 Gaussian 16, Revision C.01,

 ----------------------------------------------------------------------
 #t hf aug-cc-pvdz symm=none int=(grid=ultrafine) guess=(read,tcheck) s
 table=(opt,rrhf)
 ----------------------------------------------------------------------
 -----
 title
 -----
 Symbolic Z-matrix:
 Charge =  0 Multiplicity = 1

 SCF Done:  E(RHF) =  -1128.56432311     A.U. after   14 cycles
 Normal termination of Gaussian 16 at Wed Apr  9 00:14:42 2025.
 Gaussian 16:  ES64L-G16RevC.01  3-Jul-2019

 ----------------------------------------------------------------------
 #t hf aug-cc-pvdz iop(5/13=1,5/36=2,99/5=2) pseudo=read geom=check gue
 ss=(read,tcheck) scf=(maxcycle=1)
 ----------------------------------------------------------------------
 -----
 title
 -----
 Structure from the checkpoint file:  "BDE49_nonexpt_2460_mol1.chk"
 Charge =  0 Multiplicity = 1

                         Standard orientation:
 ---------------------------------------------------------------------
 Center     Atomic      Atomic             Coordinates (Angstroms)
 Number     Number       Type             X           Y           Z
 ---------------------------------------------------------------------
      1         14           0        2.128774   -0.539638    0.228051
      2         14           0        0.546355    1.119036   -0.318139
      3          1           0        1.718473   -1.214703    1.476209
      4          1           0        3.441583    0.120353    0.430188
      5          1           0        2.243803   -1.510650   -0.880296
      6         16           0       -1.501306    0.188758   -0.020204
      7          1           0        0.637632    1.625311   -1.708335
      8          1           0        0.537299    2.264458    0.620886
      9          8           0       -1.505718   -0.241027    1.402329
     10          8           0       -1.018189   -1.110341   -1.038794
     11          1           0       -1.818446   -1.605532   -1.262437
 ---------------------------------------------------------------------

 SCF Done:  E(RHF) =  -1129.74818874     A.U. after    2 cycles

 The electronic state is 1-A.
 Alpha  occ. eigenvalues --  -76.25377 -76.23046 -75.81623 -21.11138 -21.02760
 Alpha  occ. eigenvalues --  -13.35826 -13.23316 -13.18924  -8.15550  -5.58848
 Alpha  occ. eigenvalues --   -5.56421  -2.20870  -2.20796  -2.19936  -2.18556
 Alpha  occ. eigenvalues --   -2.18481  -2.17446  -1.77221  -1.65880  -1.00394
 Alpha  occ. eigenvalues --   -0.81997  -0.72618  -0.63665  -0.53091  -0.51018
 Alpha  occ. eigenvalues --   -0.48502  -0.47814  -0.46938  -0.44818  -0.37886
 Alpha  occ. eigenvalues --   -0.35132  -0.33489  -0.24517
 Alpha virt. eigenvalues --    0.03612   0.03913   0.04121   0.05935   0.06709
 Alpha virt. eigenvalues --    0.07786   0.07894   0.08569   0.09114   0.09608
 Alpha virt. eigenvalues --    0.10123   0.10231   0.10730   0.12173   0.12519

 Mulliken charges:
               1
     1  Si   4.650097
     2  Si   4.099703
     3  H   -1.462256
     4  H   -1.523359
     5  H   -1.494235
     6  S    2.102036
     7  H   -1.720497
     8  H   -1.718218
     9  O   -2.050164
    10  O   -1.902769
    11  H    1.019663
 Sum of Mulliken charges =   0.00000

 Dipole moment (field-independent basis, Debye):
    X=             -0.1615    Y=             -0.1539    Z=             -1.4069  Tot=              1.4245

 Test job not archived.
 1\1\GINC-SE187\SP\RHF\Aug-CC-pVDZ\H6O2S1Si2\OHZDE\09-Apr-2025\0\\#t hf
  aug-cc-pvdz iop(5/13=1,5/36=2,99/5=2) pseudo=read geom=check guess=(r
 ead,tcheck) scf=(maxcycle=1)\\title\\0,1\Si,0,-2.128774,-0.539638,-0.2
 28051\Si,0,-0.546355,1.119036,0.318139\H,0,-1.718473,-1.214703,-1.4762
 09\H,0,-3.441583,0.120354,-0.430188\H,0,-2.243803,-1.51065,0.880296\S,
 0,1.501306,0.188758,0.020204\H,0,-0.637632,1.625311,1.708335\H,0,-0.53
 7298,2.264458,-0.620886\O,0,1.505718,-0.241027,-1.402329\O,0,1.018189,
 -1.110341,1.038794\H,0,1.818446,-1.605533,1.262437\\Version=ES64L-G16R

 Normal termination of Gaussian 16 at Wed Apr  9 00:14:46 2025.
