 Gaussian 16, Revision C.01,

 ----------------------------------------------------------------------
 #t hf aug-cc-pvdz symm=none int=(grid=ultrafine) guess=(read,tcheck) s
 table=opt
 ----------------------------------------------------------------------
 -----
 title
 -----
 Symbolic Z-matrix:
 Charge =  0 Multiplicity = 2

 SCF Done:  E(UHF) =  -1540.49290650     A.U. after   17 cycles
 Normal termination of Gaussian 16 at Wed Apr  9 00:32:20 2025.
 Gaussian 16:  ES64L-G16RevC.01  3-Jul-2019

 ----------------------------------------------------------------------
 #t hf aug-cc-pvdz iop(5/13=1,5/36=2,99/5=2) pseudo=read geom=check gue
 ss=(read,tcheck) scf=(maxcycle=1)
 ----------------------------------------------------------------------
 -----
 title
 -----
 Structure from the checkpoint file:  "BDE49_nonexpt_365_mol2.chk"
 Charge =  0 Multiplicity = 2

                         Standard orientation:
 ---------------------------------------------------------------------
 Center     Atomic      Atomic             Coordinates (Angstroms)
 Number     Number       Type             X           Y           Z
 ---------------------------------------------------------------------
      1          9           0        2.246119   -0.028878    1.105291
      2          5           0        0.980841    0.233711    1.247242
      3          6           0       -0.093089   -0.007610    0.102426
      4         17           0       -1.675917   -0.469967    0.788727
      5         17           0        0.419739   -1.219621   -1.124418
      6         17           0       -0.188572    1.638824   -0.652449
 ---------------------------------------------------------------------

 SCF Done:  E(UHF) =  -1541.82458220     A.U. after    2 cycles

 The electronic state is 2-A.
 Alpha  occ. eigenvalues --  -99.93148 -99.92825 -99.92499 -29.29364 -11.53751
 Alpha  occ. eigenvalues --  -10.50438 -10.50149 -10.49730  -9.70288  -9.70001
 Alpha  occ. eigenvalues --   -9.69682  -9.69497  -9.69461  -9.69197  -9.69138
 Alpha  occ. eigenvalues --   -9.68807  -9.68781  -7.72857  -1.47058  -1.31702
 Alpha  occ. eigenvalues --   -1.31329  -1.09524  -0.92928  -0.73013  -0.71231
 Alpha  occ. eigenvalues --   -0.70247  -0.58336  -0.57454  -0.53147  -0.52580
 Alpha  occ. eigenvalues --   -0.51230  -0.50958  -0.49883  -0.45863  -0.41240
 Alpha  occ. eigenvalues --   -0.28207
 Alpha virt. eigenvalues --   -0.00113   0.03760   0.04855   0.05118   0.05569
 Alpha virt. eigenvalues --    0.05812   0.07326   0.11316   0.12307   0.12832
 Alpha virt. eigenvalues --    0.13358   0.15322   0.15495   0.16267   0.17182

  Beta  occ. eigenvalues --  -99.93155 -99.92831 -99.92452 -29.29097 -11.53460
  Beta  occ. eigenvalues --  -10.50444 -10.50151 -10.49685  -9.70309  -9.70031
  Beta  occ. eigenvalues --   -9.69565  -9.69493  -9.69418  -9.69183  -9.69139
  Beta  occ. eigenvalues --   -9.68774  -9.68757  -7.70756  -1.46678  -1.31703
  Beta  occ. eigenvalues --   -1.31083  -1.06929  -0.91354  -0.72248  -0.71001
  Beta  occ. eigenvalues --   -0.69014  -0.57845  -0.56820  -0.52574  -0.52470
  Beta  occ. eigenvalues --   -0.51097  -0.50515  -0.45577  -0.43759  -0.39118
  Beta virt. eigenvalues --   -0.01947   0.02966   0.04065   0.04921   0.05589
  Beta virt. eigenvalues --    0.05809   0.06645   0.10118   0.11887   0.12455
  Beta virt. eigenvalues --    0.13820   0.14977   0.15554   0.15991   0.16646

 Mulliken charges and spin densities:
               1          2
     1  F   -0.839297  -0.057024
     2  B    2.057160   1.078340
     3  C   -2.109457  -0.170609
     4  Cl   0.421744   0.014092
     5  Cl   0.236464   0.085668
     6  Cl   0.233385   0.049534
 Sum of Mulliken charges =  -0.00000   1.00000

 Dipole moment (field-independent basis, Debye):
    X=              4.4410    Y=             -0.5837    Z=              0.6844  Tot=              4.5312
                          Isotropic Fermi Contact Couplings
        Atom                 a.u.       MegaHertz       Gauss      10(-4) cm-1
     1  F(19)              0.06091     256.28665      91.44945      85.48803
     2  B(11)              0.24663     353.75161     126.22737     117.99883
     3  C(13)              0.12640     142.10117      50.70523      47.39985
     4  Cl(35)             0.01350       5.92100       2.11276       1.97503
     5  Cl(35)             0.00714       3.13228       1.11767       1.04482
     6  Cl(35)            -0.00204      -0.89291      -0.31861      -0.29784
 --------------------------------------------------------
       Center         ----  Spin Dipole Couplings  ----

 Normal termination of Gaussian 16 at Wed Apr  9 00:32:23 2025.
