 Gaussian 16, Revision C.01,

 ----------------------------------------------------------------------
 #t hf aug-cc-pvdz symm=none int=(grid=ultrafine) guess=(read,tcheck) s
 table=(opt,rrhf)
 ----------------------------------------------------------------------
 -----
 title
 -----
 Symbolic Z-matrix:
 Charge =  0 Multiplicity = 1

 SCF Done:  E(RHF) =  -1367.88232284     A.U. after   14 cycles
 Normal termination of Gaussian 16 at Wed Apr  9 00:18:35 2025.
 Gaussian 16:  ES64L-G16RevC.01  3-Jul-2019

 ----------------------------------------------------------------------
 #t hf aug-cc-pvdz iop(5/13=1,5/36=2,99/5=2) pseudo=read geom=check gue
 ss=(read,tcheck) scf=(maxcycle=1)
 ----------------------------------------------------------------------
 -----
 title
 -----
 Structure from the checkpoint file:  "BDE49_nonexpt_2572_mol1.chk"
 Charge =  0 Multiplicity = 1

                         Standard orientation:
 ---------------------------------------------------------------------
 Center     Atomic      Atomic             Coordinates (Angstroms)
 Number     Number       Type             X           Y           Z
 ---------------------------------------------------------------------
      1         17           0        2.294974    0.150458   -0.000041
      2         16           0        0.528770   -0.892638    0.000023
      3          6           0       -0.678794    0.460446    0.000054
      4          8           0       -0.424230    1.621187    0.000104
      5         16           0       -2.371169   -0.158531   -0.000048
      6          1           0       -2.069561   -1.471251   -0.000046
 ---------------------------------------------------------------------

 SCF Done:  E(RHF) =  -1369.03567025     A.U. after    2 cycles

 The electronic state is 1-A.
 Alpha  occ. eigenvalues --  -99.93099 -75.77647 -75.74526 -21.10439 -13.18511
 Alpha  occ. eigenvalues --  -13.17128 -13.14517 -13.14049 -13.08726 -13.05923
 Alpha  occ. eigenvalues --  -11.54677 -10.50260  -9.69989  -9.69318  -9.69188
 Alpha  occ. eigenvalues --   -8.11583  -8.08519  -1.76370  -1.37056  -1.21678
 Alpha  occ. eigenvalues --   -1.10674  -0.79401  -0.65971  -0.60003  -0.58345
 Alpha  occ. eigenvalues --   -0.55813  -0.53823  -0.49494  -0.48080  -0.29850
 Alpha  occ. eigenvalues --   -0.28338  -0.27824
 Alpha virt. eigenvalues --    0.01045   0.05019   0.06425   0.07370   0.08793
 Alpha virt. eigenvalues --    0.09540   0.11255   0.12203   0.12613   0.13191
 Alpha virt. eigenvalues --    0.15013   0.16118   0.16147   0.16544   0.17062

 Mulliken charges:
               1
     1  Cl  -0.408720
     2  S    0.785694
     3  C    0.977173
     4  O   -2.224791
     5  S   -0.297083
     6  H    1.167728
 Sum of Mulliken charges =  -0.00000

 Dipole moment (field-independent basis, Debye):
    X=             -3.9938    Y=             -1.9876    Z=             -0.0001  Tot=              4.4610

 Test job not archived.
 1\1\GINC-SE455\SP\RHF\Aug-CC-pVDZ\C1H1Cl1O1S2\OHZDE\09-Apr-2025\0\\#t
 hf aug-cc-pvdz iop(5/13=1,5/36=2,99/5=2) pseudo=read geom=check guess=
 (read,tcheck) scf=(maxcycle=1)\\title\\0,1\Cl,0,-2.294974,0.150457,0.0
 00041\S,0,-0.52877,-0.892638,-0.000023\C,0,0.678794,0.460446,-0.000054
 \O,0,0.42423,1.621187,-0.000104\S,0,2.371169,-0.158531,0.000048\H,0,2.
 069561,-1.471251,0.000046\\Version=ES64L-G16RevC.01\State=1-A\HF=-1369
 .0356702\RMSD=9.154e-02\Dipole=1.5712631,-0.7819935,0.0000431\Quadrupo
 le=3.6635325,0.7408903,-4.4044229,0.2092381,0.0003651,0.0001151\PG=C01

 Normal termination of Gaussian 16 at Wed Apr  9 00:18:37 2025.
