 Gaussian 16, Revision C.01,

 ----------------------------------------------------------------------
 #t hf aug-cc-pvdz symm=none int=(grid=ultrafine) guess=(read,tcheck) s
 table=opt
 ----------------------------------------------------------------------
 -----
 title
 -----
 Symbolic Z-matrix:
 Charge =  0 Multiplicity = 2

 SCF Done:  E(UHF) =  -370.567023124     A.U. after   21 cycles
 Normal termination of Gaussian 16 at Wed Apr  9 00:33:19 2025.
 Gaussian 16:  ES64L-G16RevC.01  3-Jul-2019

 ----------------------------------------------------------------------
 #t hf aug-cc-pvdz iop(5/13=1,5/36=2,99/5=2) pseudo=read geom=check gue
 ss=(read,tcheck) scf=(maxcycle=1)
 ----------------------------------------------------------------------
 -----
 title
 -----
 Structure from the checkpoint file:  "BDE49_nonexpt_391_mol2.chk"
 Charge =  0 Multiplicity = 2

                         Standard orientation:
 ---------------------------------------------------------------------
 Center     Atomic      Atomic             Coordinates (Angstroms)
 Number     Number       Type             X           Y           Z
 ---------------------------------------------------------------------
      1          9           0       -2.615718    0.392243    0.334413
      2          5           0       -1.611814    0.244998   -0.494464
      3          6           0       -0.249011   -0.462282   -0.143152
      4          8           0       -0.390777   -1.686342   -0.095982
      5          7           0        0.937786    0.188148   -0.025647
      6          6           0        1.023433    1.634642   -0.067757
      7          1           0        0.053753    2.055158   -0.346819
      8          1           0        1.756471    1.955324   -0.815096
      9          1           0        1.313871    2.048487    0.904500
     10          6           0        2.162966   -0.565131    0.196283
     11          1           0        1.913460   -1.624645    0.191871
     12          1           0        2.611573   -0.302154    1.160074
     13          1           0        2.888802   -0.357015   -0.596790
 ---------------------------------------------------------------------

 SCF Done:  E(UHF) =  -372.112399514     A.U. after    2 cycles

 The electronic state is 2-A.
 Alpha  occ. eigenvalues --  -29.27546 -21.03327 -15.76295 -11.46301 -11.42426
 Alpha  occ. eigenvalues --  -11.40303  -7.70324  -1.71339  -1.44329  -1.08417
 Alpha  occ. eigenvalues --   -1.04417  -0.97532  -0.77194  -0.69223  -0.66736
 Alpha  occ. eigenvalues --   -0.63334  -0.57238  -0.56216  -0.53839  -0.53144
 Alpha  occ. eigenvalues --   -0.48925  -0.47130  -0.43932  -0.39479  -0.31625
 Alpha  occ. eigenvalues --   -0.30090  -0.21031
 Alpha virt. eigenvalues --    0.02725   0.04278   0.04668   0.05399   0.05974
 Alpha virt. eigenvalues --    0.06740   0.07215   0.07661   0.08781   0.10209
 Alpha virt. eigenvalues --    0.12590   0.13185   0.13748   0.14327   0.14907

  Beta  occ. eigenvalues --  -29.27244 -21.03126 -15.76290 -11.46061 -11.42415
  Beta  occ. eigenvalues --  -11.40295  -7.68440  -1.70891  -1.44214  -1.07682
  Beta  occ. eigenvalues --   -1.02668  -0.95917  -0.76468  -0.68652  -0.66452
  Beta  occ. eigenvalues --   -0.63168  -0.57224  -0.55927  -0.53575  -0.49955
  Beta  occ. eigenvalues --   -0.48453  -0.43392  -0.41922  -0.38135  -0.29946
  Beta  occ. eigenvalues --   -0.28369
  Beta virt. eigenvalues --    0.02620   0.04163   0.04518   0.05423   0.05858
  Beta virt. eigenvalues --    0.06771   0.07089   0.07487   0.08576   0.10112
  Beta virt. eigenvalues --    0.11104   0.13033   0.13243   0.14225   0.14368

 Mulliken charges and spin densities:
               1          2
     1  F   -0.523872  -0.084339
     2  B    0.604635   1.033416
     3  C    3.722374  -0.105917
     4  O   -2.833152   0.108915
     5  N   -2.883167   0.050466
     6  C   -3.606508   0.007880
     7  H    1.495917  -0.008021
     8  H    1.429307  -0.000721
     9  H    1.416317  -0.002719
    10  C   -3.100847   0.003811
    11  H    1.442104  -0.002431
    12  H    1.419375  -0.001042
    13  H    1.417516   0.000702
 Sum of Mulliken charges =  -0.00000   1.00000

 Dipole moment (field-independent basis, Debye):
    X=             -0.4677    Y=              2.1928    Z=              2.5830  Tot=              3.4203
                          Isotropic Fermi Contact Couplings
        Atom                 a.u.       MegaHertz       Gauss      10(-4) cm-1
     1  F(19)              0.04965     208.88244      74.53445      69.67568
     2  B(11)              0.18836     270.18391      96.40834      90.12365
     3  C(13)              0.05461      61.39531      21.90737      20.47927
     4  O(17)              0.01118      -6.77474      -2.41740      -2.25981
     5  N(14)             -0.00009      -0.03021      -0.01078      -0.01008
     6  C(13)             -0.00020      -0.22259      -0.07943      -0.07425
     7  H(1)              -0.00006      -0.27089      -0.09666      -0.09036
     8  H(1)              -0.00010      -0.46456      -0.16577      -0.15496

 Normal termination of Gaussian 16 at Wed Apr  9 00:33:23 2025.
