 Gaussian 16, Revision C.01,

 ----------------------------------------------------------------------
 #t hf aug-cc-pvdz symm=none int=(grid=ultrafine) guess=(read,tcheck) s
 table=(opt,rrhf)
 ----------------------------------------------------------------------
 -----
 title
 -----
 Symbolic Z-matrix:
 Charge =  0 Multiplicity = 1

 SCF Done:  E(RHF) =  -924.489600009     A.U. after   15 cycles
 Normal termination of Gaussian 16 at Wed Apr  9 00:05:45 2025.
 Gaussian 16:  ES64L-G16RevC.01  3-Jul-2019

 ----------------------------------------------------------------------
 #t hf aug-cc-pvdz iop(5/13=1,5/36=2,99/5=2) pseudo=read geom=check gue
 ss=(read,tcheck) scf=(maxcycle=1)
 ----------------------------------------------------------------------
 -----
 title
 -----
 Structure from the checkpoint file:  "BDE49_nonexpt_2124_mol1.chk"
 Charge =  0 Multiplicity = 1

                         Standard orientation:
 ---------------------------------------------------------------------
 Center     Atomic      Atomic             Coordinates (Angstroms)
 Number     Number       Type             X           Y           Z
 ---------------------------------------------------------------------
      1          7           0       -0.349811   -0.971604   -0.127830
      2          7           0        0.301200   -0.068715   -0.705795
      3         14           0       -2.155929   -0.804432   -0.100102
      4          6           0       -2.797953    0.738421   -0.962037
      5          6           0       -2.514335    2.073640   -0.250737
      6          1           0       -3.877496    0.605395   -1.109091
      7          1           0       -2.356021    0.753082   -1.964767
      8          1           0       -1.439377    2.240649   -0.154993
      9          1           0       -2.950621    2.100693    0.752109
     10         14           0        2.103941   -0.262678   -0.759051
     11          6           0        2.818104    1.311458   -0.010423
     12          6           0        2.578071    1.493315    1.499077
     13          1           0        2.395399    2.157377   -0.564154
     14          1           0        3.893931    1.321715   -0.224777
     15          1           0        3.029274    0.684104    2.080040
     16          1           0        1.510611    1.510770    1.735724
     17          6           0       -2.649067   -0.927610    1.705521
     18          1           0       -2.301812   -0.062572    2.277125
     19          1           0       -2.220597   -1.825768    2.157286
     20          1           0       -3.737076   -0.983547    1.805477
     21          6           0        2.697954   -1.830633    0.073618
     22          1           0        2.454964   -1.832461    1.138961
     23          1           0        3.781503   -1.937777   -0.035180
     24          1           0        2.218639   -2.704977   -0.373201
     25          1           0        3.008106    2.432178    1.859669
     26          1           0       -2.932006    2.916694   -0.809180
     27          1           0        2.403043   -0.285542   -2.213558
     28          1           0       -2.609002   -2.019784   -0.824084
 ---------------------------------------------------------------------

 SCF Done:  E(RHF) =  -926.542022302     A.U. after    2 cycles

 The electronic state is 1-A.
 Alpha  occ. eigenvalues --  -76.20297 -76.20241 -15.76027 -15.75378 -11.39453
 Alpha  occ. eigenvalues --  -11.39055 -11.34795 -11.34617 -11.34414 -11.34265
 Alpha  occ. eigenvalues --   -5.54450  -5.54366  -2.19441  -2.19096  -2.18482
 Alpha  occ. eigenvalues --   -2.18268  -2.17146  -2.16868  -1.46498  -1.15023
 Alpha  occ. eigenvalues --   -1.14478  -1.04123  -1.03154  -0.93370  -0.88953
 Alpha  occ. eigenvalues --   -0.87687  -0.69976  -0.65930  -0.61180  -0.60891
 Alpha  occ. eigenvalues --   -0.58661  -0.57762  -0.57041  -0.56185  -0.54779
 Alpha  occ. eigenvalues --   -0.54593  -0.52699  -0.51168  -0.50101  -0.49462
 Alpha  occ. eigenvalues --   -0.48681  -0.48227  -0.47860  -0.42449  -0.41668
 Alpha  occ. eigenvalues --   -0.37800  -0.37525  -0.25262
 Alpha virt. eigenvalues --    0.03455   0.04098   0.05262   0.05434   0.05646
 Alpha virt. eigenvalues --    0.05751   0.06062   0.06161   0.06297   0.06664
 Alpha virt. eigenvalues --    0.07051   0.07351   0.07380   0.07709   0.08446

 Mulliken charges:
               1
     1  N   -1.622270
     2  N   -1.816093
     3  Si   7.034656
     4  C   -4.582990
     5  C   -3.845185
     6  H    1.289816
     7  H    1.497623
     8  H    1.593623
     9  H    1.410179
    10  Si   6.907005
    11  C   -4.378890
    12  C   -3.756527
    13  H    1.497602
    14  H    1.347287
    15  H    1.377498
    16  H    1.520552
    17  C   -5.297859
    18  H    1.455751
    19  H    1.326181
    20  H    1.254159
    21  C   -5.431683
    22  H    1.439681
    23  H    1.239499
    24  H    1.324555
    25  H    1.143878
    26  H    1.145762
    27  H   -2.522641
    28  H   -2.551172
 Sum of Mulliken charges =   0.00000

 Dipole moment (field-independent basis, Debye):
    X=              0.1427    Y=              0.7634    Z=              0.9928  Tot=              1.2605

 Test job not archived.
 1\1\GINC-SE453\SP\RHF\Aug-CC-pVDZ\C6H18N2Si2\OHZDE\09-Apr-2025\0\\#t h
 f aug-cc-pvdz iop(5/13=1,5/36=2,99/5=2) pseudo=read geom=check guess=(
 read,tcheck) scf=(maxcycle=1)\\title\\0,1\N,0,-0.349811,-0.971604,-0.1
 2783\N,0,0.3012,-0.068715,-0.705795\Si,0,-2.155929,-0.804432,-0.100102
 \C,0,-2.797953,0.738421,-0.962037\C,0,-2.514335,2.07364,-0.250737\H,0,
 -3.877496,0.605395,-1.109091\H,0,-2.356021,0.753082,-1.964767\H,0,-1.4
 39377,2.240649,-0.154993\H,0,-2.950621,2.100693,0.752109\Si,0,2.103941
 ,-0.262678,-0.759051\C,0,2.818104,1.311458,-0.010423\C,0,2.578071,1.49

 Normal termination of Gaussian 16 at Wed Apr  9 00:06:05 2025.
