 Gaussian 16, Revision C.01,

 ----------------------------------------------------------------------
 #t hf aug-cc-pvdz symm=none int=(grid=ultrafine) guess=(read,tcheck) s
 table=(opt,rrhf)
 ----------------------------------------------------------------------
 -----
 title
 -----
 Symbolic Z-matrix:
 Charge =  0 Multiplicity = 1

 SCF Done:  E(RHF) =  -930.490205313     A.U. after   18 cycles
 Normal termination of Gaussian 16 at Tue Apr  8 23:32:18 2025.
 Gaussian 16:  ES64L-G16RevC.01  3-Jul-2019

 ----------------------------------------------------------------------
 #t hf aug-cc-pvdz iop(5/13=1,5/36=2,99/5=2) pseudo=read geom=check gue
 ss=(read,tcheck) scf=(maxcycle=1)
 ----------------------------------------------------------------------
 -----
 title
 -----
 Structure from the checkpoint file:  "BDE49_nonexpt_1390_mol1.chk"
 Charge =  0 Multiplicity = 1

                         Standard orientation:
 ---------------------------------------------------------------------
 Center     Atomic      Atomic             Coordinates (Angstroms)
 Number     Number       Type             X           Y           Z
 ---------------------------------------------------------------------
      1          6           0        1.886025   -0.854541    0.180938
      2          6           0        2.269372    0.440047    0.125453
      3         15           0        0.210132   -1.345955   -0.238313
      4          6           0       -0.752724    0.186067   -0.030213
      5          6           0       -0.016128    1.423963   -0.120571
      6          6           0        1.341267    1.531092   -0.054266
      7         16           0       -2.401883    0.125629    0.109425
      8          1           0        2.618604   -1.640848    0.334576
      9          1           0        3.317173    0.695486    0.248013
     10          1           0       -0.616579    2.326571   -0.170707
     11          1           0        1.765711    2.529465   -0.090365
     12          1           0       -0.173637   -2.091182    0.894344
 ---------------------------------------------------------------------

 SCF Done:  E(RHF) =  -931.804727333     A.U. after    2 cycles

 The electronic state is 1-A.
 Alpha  occ. eigenvalues -- -105.19951 -75.65840 -13.13456 -13.01911 -12.97029
 Alpha  occ. eigenvalues --  -11.50140 -11.47772 -11.45110 -11.43441 -11.40398
 Alpha  occ. eigenvalues --   -7.99855  -2.78623  -1.54415  -1.52959  -1.45874
 Alpha  occ. eigenvalues --   -1.29077  -1.15958  -1.07196  -0.93883  -0.80514
 Alpha  occ. eigenvalues --   -0.78869  -0.69798  -0.63341  -0.58053  -0.52989
 Alpha  occ. eigenvalues --   -0.49302  -0.47175  -0.40505  -0.29559  -0.28534
 Alpha  occ. eigenvalues --   -0.25826  -0.17326  -0.04519
 Alpha virt. eigenvalues --    0.02494   0.04699   0.04990   0.05237   0.06200
 Alpha virt. eigenvalues --    0.06832   0.08009   0.08940   0.09144   0.10700
 Alpha virt. eigenvalues --    0.11998   0.12893   0.13432   0.13878   0.14112

 Mulliken charges:
               1
     1  C   -3.159598
     2  C   -2.303881
     3  P    4.555164
     4  C   -2.542905
     5  C   -1.769166
     6  C   -0.694330
     7  S    0.000846
     8  H    1.246018
     9  H    1.464407
    10  H    1.697620
    11  H    1.398592
    12  H    0.107233
 Sum of Mulliken charges =  -0.00000

 Dipole moment (field-independent basis, Debye):
    X=              1.6060    Y=             -6.4413    Z=             -3.6754  Tot=              7.5881

 Test job not archived.
 1\1\GINC-SE219\SP\RHF\Aug-CC-pVDZ\C5H5P1S1\OHZDE\08-Apr-2025\0\\#t hf
 aug-cc-pvdz iop(5/13=1,5/36=2,99/5=2) pseudo=read geom=check guess=(re
 ad,tcheck) scf=(maxcycle=1)\\title\\0,1\C,0,1.886025,-0.854541,0.18093
 8\C,0,2.269372,0.440047,0.125453\P,0,0.210132,-1.345955,-0.238313\C,0,
 -0.752724,0.186067,-0.030213\C,0,-0.016128,1.423963,-0.120571\C,0,1.34
 1267,1.531092,-0.054266\S,0,-2.401883,0.125629,0.109425\H,0,2.618604,-
 1.640848,0.334576\H,0,3.317173,0.695486,0.248013\H,0,-0.616579,2.32657
 1,-0.170707\H,0,1.765711,2.529465,-0.090365\H,0,-0.173637,-2.091182,0.

 Normal termination of Gaussian 16 at Tue Apr  8 23:32:24 2025.
