 Gaussian 16, Revision C.01,

 ----------------------------------------------------------------------
 #t hf aug-cc-pvdz symm=none int=(grid=ultrafine) guess=(read,tcheck) s
 table=(opt,rrhf)
 ----------------------------------------------------------------------
 -----
 title
 -----
 Symbolic Z-matrix:
 Charge =  0 Multiplicity = 1

 SCF Done:  E(RHF) =  -698.721371926     A.U. after   17 cycles
 Normal termination of Gaussian 16 at Wed Apr  9 00:49:24 2025.
 Gaussian 16:  ES64L-G16RevC.01  3-Jul-2019

 ----------------------------------------------------------------------
 #t hf aug-cc-pvdz iop(5/13=1,5/36=2,99/5=2) pseudo=read geom=check gue
 ss=(read,tcheck) scf=(maxcycle=1)
 ----------------------------------------------------------------------
 -----
 title
 -----
 Structure from the checkpoint file:  "BDE49_nonexpt_772_mol1.chk"
 Charge =  0 Multiplicity = 1

                         Standard orientation:
 ---------------------------------------------------------------------
 Center     Atomic      Atomic             Coordinates (Angstroms)
 Number     Number       Type             X           Y           Z
 ---------------------------------------------------------------------
      1          6           0       -0.481114   -1.554459   -0.246490
      2          6           0       -1.723411   -2.135949   -0.158560
      3          6           0       -2.872144   -1.340997    0.049559
      4          6           0       -2.750247    0.021740    0.163741
      5          6           0       -1.481800    0.652237    0.077946
      6          6           0       -0.311304   -0.148774   -0.131207
      7          1           0        0.387296   -2.181481   -0.412769
      8          1           0       -1.824321   -3.211425   -0.251265
      9          1           0       -3.847141   -1.810166    0.116837
     10          1           0       -3.627708    0.640360    0.321776
     11          6           0        0.972606    0.487672   -0.222320
     12          6           0        1.040657    1.865276   -0.097782
     13          6           0       -1.346317    2.059544    0.196634
     14          6           0       -0.113318    2.653736    0.110353
     15          1           0       -2.237314    2.658042    0.356386
     16          1           0       -0.016208    3.730108    0.198132
     17          1           0        2.001127    2.364934   -0.168802
     18          5           0        2.993746   -1.374572    1.298297
     19         14           0        2.593706   -0.464280   -0.457211
     20          1           0        2.480475   -1.439268   -1.573748
     21          1           0        3.620700    0.539176   -0.831518
     22          1           0        2.473142   -2.405841    1.593161
     23          1           0        3.707681   -0.871819    2.110026
 ---------------------------------------------------------------------

 SCF Done:  E(RHF) =  -700.835376681     A.U. after    2 cycles

 The electronic state is 1-A.
 Alpha  occ. eigenvalues --  -76.19971 -11.52437 -11.49411 -11.45248 -11.44037
 Alpha  occ. eigenvalues --  -11.42840 -11.42085 -11.41665 -11.41251 -11.39322
 Alpha  occ. eigenvalues --  -11.36337  -7.61919  -5.53691  -2.18854  -2.17442
 Alpha  occ. eigenvalues --   -2.16158  -1.39407  -1.23718  -1.14318  -1.08070
 Alpha  occ. eigenvalues --   -1.04429  -0.89807  -0.87651  -0.87370  -0.83089
 Alpha  occ. eigenvalues --   -0.72530  -0.72098  -0.68707  -0.66906  -0.60576
 Alpha  occ. eigenvalues --   -0.57974  -0.55031  -0.53837  -0.53495  -0.52810
 Alpha  occ. eigenvalues --   -0.49697  -0.47074  -0.45270  -0.44864  -0.42177
 Alpha  occ. eigenvalues --   -0.40787  -0.38092  -0.34983  -0.31546  -0.27834
 Alpha virt. eigenvalues --    0.02503   0.03298   0.03857   0.04179   0.05178
 Alpha virt. eigenvalues --    0.05349   0.06187   0.06408   0.06944   0.07405
 Alpha virt. eigenvalues --    0.07974   0.08766   0.08829   0.09465   0.09787

 Mulliken charges:
               1
     1  C   -2.048094
     2  C   -4.628370
     3  C   -3.930915
     4  C   -2.918268
     5  C    6.401167
     6  C    6.533748
     7  H    2.290917
     8  H    1.486443
     9  H    1.532989
    10  H    1.713925
    11  C    0.108108
    12  C   -5.114464
    13  C   -3.084610
    14  C   -3.187446
    15  H    1.750484
    16  H    1.555623
    17  H    1.993278
    18  B    3.444950
    19  Si   4.217385
    20  H   -1.743852
    21  H   -1.856694
    22  H   -2.098395
    23  H   -2.417910
 Sum of Mulliken charges =   0.00000

 Dipole moment (field-independent basis, Debye):
    X=             -0.9874    Y=              0.4087    Z=              0.4503  Tot=              1.1596

 Test job not archived.
 1\1\GINC-SE073\SP\RHF\Aug-CC-pVDZ\C10H11B1Si1\OHZDE\09-Apr-2025\0\\#t
 hf aug-cc-pvdz iop(5/13=1,5/36=2,99/5=2) pseudo=read geom=check guess=
 (read,tcheck) scf=(maxcycle=1)\\title\\0,1\C,0,-0.481114,-1.554459,-0.
 24649\C,0,-1.723411,-2.135949,-0.15856\C,0,-2.872144,-1.340996,0.04955
 9\C,0,-2.750247,0.021741,0.163741\C,0,-1.4818,0.652237,0.077946\C,0,-0
 .311304,-0.148774,-0.131207\H,0,0.387296,-2.181481,-0.412769\H,0,-1.82
 4322,-3.211425,-0.251265\H,0,-3.847141,-1.810165,0.116837\H,0,-3.62770
 8,0.640361,0.321776\C,0,0.972606,0.487672,-0.22232\C,0,1.040657,1.8652

 Normal termination of Gaussian 16 at Wed Apr  9 00:49:43 2025.
