 Gaussian 16, Revision C.01,

 ----------------------------------------------------------------------
 #t hf aug-cc-pvdz symm=none int=(grid=ultrafine) guess=(read,tcheck) s
 table=opt
 ----------------------------------------------------------------------
 -----
 title
 -----
 Symbolic Z-matrix:
 Charge =  0 Multiplicity = 2

 SCF Done:  E(UHF) =  -1293.06088861     A.U. after   17 cycles

 1\1\GINC-SE398\Stability\UHF\Aug-CC-pVDZ\C2Cl2F3\OHZDE\08-Apr-2025\0\\
 #t hf aug-cc-pvdz symm=none int=(grid=ultrafine) guess=(read,tcheck) s
 table=opt\\title\\0,2\C,0,-0.28005,-0.413952,0.\C,0,0.190385,1.015824,
 0.\Cl,0,-0.256093,-1.278372,1.471253\Cl,0,-0.256093,-1.278372,-1.47125
 3\F,0,1.539425,1.107737,0.\F,0,-0.256093,1.66021,1.088396\F,0,-0.25609
 3,1.66021,-1.088396\\Version=ES64L-G16RevC.01\HF=-1293.0608886\S2=0.76
 9114\S2-1=0.\S2A=0.750298\RMSD=4.454e-09\Dipole=-0.1714627,-0.4405152,
 0.\Quadrupole=-0.5024096,-0.5038719,1.0062815,-0.1485203,0.,0.\PG=Unkn

 Normal termination of Gaussian 16 at Tue Apr  8 22:48:39 2025.
 Gaussian 16:  ES64L-G16RevC.01  3-Jul-2019

 ----------------------------------------------------------------------
 #t hf aug-cc-pvdz iop(5/13=1,5/36=2,99/5=2) pseudo=read geom=check gue
 ss=(read,tcheck) scf=(maxcycle=1)
 ----------------------------------------------------------------------
 -----
 title
 -----
 Structure from the checkpoint file:  "BDE49_expt_1633_mol2.chk"
 Charge =  0 Multiplicity = 2

                         Standard orientation:
 ---------------------------------------------------------------------
 Center     Atomic      Atomic             Coordinates (Angstroms)
 Number     Number       Type             X           Y           Z
 ---------------------------------------------------------------------
      1          6           0       -0.280050   -0.413952   -0.000000
      2          6           0        0.190385    1.015824    0.000000
      3         17           0       -0.256093   -1.278372    1.471253
      4         17           0       -0.256093   -1.278372   -1.471253
      5          9           0        1.539425    1.107737    0.000000
      6          9           0       -0.256093    1.660210    1.088396
      7          9           0       -0.256093    1.660210   -1.088396
 ---------------------------------------------------------------------

 SCF Done:  E(UHF) =  -1294.87964803     A.U. after    2 cycles

 The electronic state is 2-A'.
 Alpha  occ. eigenvalues --  -99.94497 -99.94490 -29.33064 -29.33013 -29.32547
 Alpha  occ. eigenvalues --  -11.62714 -11.51462 -10.52074 -10.51822  -9.71729
 Alpha  occ. eigenvalues --   -9.71580  -9.71002  -9.70996  -9.70928  -9.70881
 Alpha  occ. eigenvalues --   -1.51468  -1.38357  -1.34200  -1.03049  -0.91853
 Alpha  occ. eigenvalues --   -0.91828  -0.79181  -0.69000  -0.67061  -0.57844
 Alpha  occ. eigenvalues --   -0.57463  -0.54236  -0.49244  -0.45629  -0.45208
 Alpha  occ. eigenvalues --   -0.42744  -0.38303  -0.36440  -0.33992  -0.27435
 Alpha  occ. eigenvalues --   -0.26529  -0.23168
 Alpha virt. eigenvalues --    0.03037   0.06543   0.06808   0.10339   0.12022
 Alpha virt. eigenvalues --    0.12365   0.13045   0.13518   0.13858   0.14977
 Alpha virt. eigenvalues --    0.15937   0.17181   0.17932   0.18226   0.19897

  Beta  occ. eigenvalues --  -99.94458 -99.94451 -29.33050 -29.32998 -29.32364
  Beta  occ. eigenvalues --  -11.62832 -11.48827 -10.52031 -10.51779  -9.72020
  Beta  occ. eigenvalues --   -9.71871  -9.70902  -9.70859  -9.70550  -9.70534
  Beta  occ. eigenvalues --   -1.49429  -1.38085  -1.33868  -0.97434  -0.91716
  Beta  occ. eigenvalues --   -0.90168  -0.77672  -0.68024  -0.60789  -0.57837
  Beta  occ. eigenvalues --   -0.54966  -0.54177  -0.49173  -0.45141  -0.45020
  Beta  occ. eigenvalues --   -0.38228  -0.38170  -0.33876  -0.27449  -0.27415
  Beta  occ. eigenvalues --   -0.23065
  Beta virt. eigenvalues --    0.02302   0.04394   0.06803   0.07205   0.10563
  Beta virt. eigenvalues --    0.12157   0.12834   0.13058   0.13554   0.14007
  Beta virt. eigenvalues --    0.15062   0.16698   0.17455   0.17966   0.19118

 Mulliken charges and spin densities:
               1          2
     1  C   -2.196753   1.293709
     2  C    0.079941  -0.283026
     3  Cl   0.174226  -0.014926
     4  Cl   0.174226  -0.014926
     5  F    0.504301   0.032253
     6  F    0.632030  -0.006542
     7  F    0.632030  -0.006542
 Sum of Mulliken charges =   0.00000   1.00000

 Dipole moment (field-independent basis, Debye):
    X=              0.8067    Y=              3.1330    Z=             -0.0000  Tot=              3.2352
                          Isotropic Fermi Contact Couplings
        Atom                 a.u.       MegaHertz       Gauss      10(-4) cm-1
     1  C(13)              0.21541     242.15964      86.40858      80.77576
     2  C(13)             -0.01608     -18.07570      -6.44986      -6.02940
     3  Cl(35)             0.04946      21.68629       7.73821       7.23377
     4  Cl(35)             0.04946      21.68629       7.73821       7.23377
     5  F(19)              0.01580      66.46961      23.71801      22.17187
     6  F(19)             -0.00015      -0.62819      -0.22416      -0.20954
     7  F(19)             -0.00015      -0.62819      -0.22416      -0.20954
 --------------------------------------------------------

 Normal termination of Gaussian 16 at Tue Apr  8 22:48:42 2025.
