 Gaussian 16, Revision C.01,

 ----------------------------------------------------------------------
 #t hf aug-cc-pvdz symm=none int=(grid=ultrafine) guess=(read,tcheck) s
 table=(opt,rrhf)
 ----------------------------------------------------------------------
 -----
 title
 -----
 Symbolic Z-matrix:
 Charge =  0 Multiplicity = 1

 SCF Done:  E(RHF) =  -1137.68852468     A.U. after   17 cycles
 Normal termination of Gaussian 16 at Tue Apr  8 23:35:31 2025.
 Gaussian 16:  ES64L-G16RevC.01  3-Jul-2019

 ----------------------------------------------------------------------
 #t hf aug-cc-pvdz iop(5/13=1,5/36=2,99/5=2) pseudo=read geom=check gue
 ss=(read,tcheck) scf=(maxcycle=1)
 ----------------------------------------------------------------------
 -----
 title
 -----
 Structure from the checkpoint file:  "BDE49_nonexpt_1402_mol1.chk"
 Charge =  0 Multiplicity = 1

                         Standard orientation:
 ---------------------------------------------------------------------
 Center     Atomic      Atomic             Coordinates (Angstroms)
 Number     Number       Type             X           Y           Z
 ---------------------------------------------------------------------
      1          6           0        1.956531    1.384321   -0.077358
      2          6           0        3.160167    0.696417   -0.041456
      3          6           0        3.160162   -0.696441    0.041471
      4          6           0        1.956521   -1.384338    0.077351
      5          6           0        0.729801   -0.706443    0.030893
      6          6           0        0.729806    0.706433   -0.030922
      7          6           0       -0.487533    1.590166   -0.022466
      8         15           0       -2.136374    0.940423    0.604969
      9          1           0        4.095876   -1.242695    0.072642
     10          1           0        4.095885    1.242664   -0.072610
     11          1           0        1.932588   -2.465198    0.129854
     12          6           0       -0.487544   -1.590170    0.022415
     13         15           0       -2.136400   -0.940405   -0.604960
     14          8           0       -0.406294   -2.769427    0.291612
     15          8           0       -0.406254    2.769440   -0.291580
     16          1           0        1.932605    2.465181   -0.129862
     17          1           0       -2.886212    1.738650   -0.288750
     18          1           0       -2.886218   -1.738624    0.288782
 ---------------------------------------------------------------------

 SCF Done:  E(RHF) =  -1140.07961809     A.U. after    2 cycles

 The electronic state is 1-A.
 Alpha  occ. eigenvalues -- -105.20929-105.20846 -21.07588 -21.07571 -11.54519
 Alpha  occ. eigenvalues --  -11.52370 -11.50817 -11.47882 -11.45802 -11.44465
 Alpha  occ. eigenvalues --  -11.44206 -11.39693  -2.78813  -2.77915  -1.74146
 Alpha  occ. eigenvalues --   -1.73112  -1.55513  -1.51392  -1.49256  -1.48793
 Alpha  occ. eigenvalues --   -1.46595  -1.36745  -1.34452  -1.15147  -1.13413
 Alpha  occ. eigenvalues --   -0.95787  -0.92615  -0.84134  -0.79042  -0.77381
 Alpha  occ. eigenvalues --   -0.67433  -0.67290  -0.61925  -0.60660  -0.57332
 Alpha  occ. eigenvalues --   -0.56431  -0.55133  -0.49594  -0.49050  -0.47263
 Alpha  occ. eigenvalues --   -0.46739  -0.40475  -0.40118  -0.34536  -0.34342
 Alpha  occ. eigenvalues --   -0.23860  -0.21612  -0.08257  -0.07381   0.02246
 Alpha virt. eigenvalues --    0.04112   0.04963   0.05357   0.06344   0.06436
 Alpha virt. eigenvalues --    0.06725   0.07508   0.08014   0.08214   0.10026
 Alpha virt. eigenvalues --    0.10321   0.10378   0.11548   0.11571   0.12307

 Mulliken charges:
               1
     1  C   -3.676099
     2  C   -2.932660
     3  C   -2.932778
     4  C   -3.675806
     5  C    5.474094
     6  C    5.474152
     7  C    1.134615
     8  P    2.841230
     9  H    0.578590
    10  H    0.578623
    11  H    1.059272
    12  C    1.134952
    13  P    2.841247
    14  O   -3.433367
    15  O   -3.433424
    16  H    1.059241
    17  H   -1.045941
    18  H   -1.045941
 Sum of Mulliken charges =   0.00000

 Dipole moment (field-independent basis, Debye):
    X=            -22.1131    Y=              0.0003    Z=              0.0005  Tot=             22.1131

 Test job not archived.
 1\1\GINC-SE039\SP\RHF\Aug-CC-pVDZ\C8H6O2P2\OHZDE\08-Apr-2025\0\\#t hf
 aug-cc-pvdz iop(5/13=1,5/36=2,99/5=2) pseudo=read geom=check guess=(re
 ad,tcheck) scf=(maxcycle=1)\\title\\0,1\C,0,-1.956531,-1.384321,-0.077
 358\C,0,-3.160167,-0.696417,-0.041456\C,0,-3.160162,0.696441,0.041471\
 C,0,-1.956521,1.384338,0.077351\C,0,-0.729801,0.706443,0.030893\C,0,-0
 .729806,-0.706433,-0.030922\C,0,0.487533,-1.590166,-0.022466\P,0,2.136
 374,-0.940423,0.604969\H,0,-4.095876,1.242695,0.072642\H,0,-4.095885,-
 1.242664,-0.07261\H,0,-1.932588,2.465198,0.129854\C,0,0.487544,1.59017

 Normal termination of Gaussian 16 at Tue Apr  8 23:35:46 2025.
