 Gaussian 16, Revision C.01,

 ----------------------------------------------------------------------
 #t hf aug-cc-pvdz symm=none int=(grid=ultrafine) guess=(read,tcheck) s
 table=(opt,rrhf)
 ----------------------------------------------------------------------
 -----
 title
 -----
 Symbolic Z-matrix:
 Charge =  0 Multiplicity = 1

 SCF Done:  E(RHF) =  -749.699458110     A.U. after   12 cycles
 Normal termination of Gaussian 16 at Tue Apr  8 23:42:21 2025.
 Gaussian 16:  ES64L-G16RevC.01  3-Jul-2019

 ----------------------------------------------------------------------
 #t hf aug-cc-pvdz iop(5/13=1,5/36=2,99/5=2) pseudo=read geom=check gue
 ss=(read,tcheck) scf=(maxcycle=1)
 ----------------------------------------------------------------------
 -----
 title
 -----
 Structure from the checkpoint file:  "BDE49_nonexpt_1632_mol1.chk"
 Charge =  0 Multiplicity = 1

                         Standard orientation:
 ---------------------------------------------------------------------
 Center     Atomic      Atomic             Coordinates (Angstroms)
 Number     Number       Type             X           Y           Z
 ---------------------------------------------------------------------
      1         15           0       -2.118337   -0.868700   -0.193928
      2         14           0       -0.838350    0.994925    0.146613
      3          6           0        3.160525   -0.543827   -0.087623
      4          6           0        0.940425    0.695000   -0.411875
      5          6           0        1.708773   -0.382133    0.375660
      6          1           0        1.468919    1.654338   -0.337750
      7          1           0        0.926994    0.440793   -1.478897
      8          1           0        1.194029   -1.345233    0.281946
      9          1           0        1.695712   -0.134865    1.443510
     10          1           0        3.717084    0.391075    0.029542
     11          1           0        3.207183   -0.826993   -1.143574
     12          1           0        3.678775   -1.315601    0.488499
     13          1           0       -3.259028   -0.326151    0.454457
     14          1           0       -1.667981   -1.547641    0.969048
     15          1           0       -0.857931    1.427940    1.567098
     16          1           0       -1.450137    2.069649   -0.674511
 ---------------------------------------------------------------------

 SCF Done:  E(RHF) =  -750.688704215     A.U. after    2 cycles

 The electronic state is 1-A.
 Alpha  occ. eigenvalues -- -105.16880 -76.21701 -11.41589 -11.37620 -11.34649
 Alpha  occ. eigenvalues --   -5.55274  -2.73669  -2.19125  -2.17443  -2.16894
 Alpha  occ. eigenvalues --   -1.43560  -1.42924  -1.41005  -1.20787  -0.99951
 Alpha  occ. eigenvalues --   -0.85226  -0.76773  -0.66605  -0.63674  -0.57541
 Alpha  occ. eigenvalues --   -0.54164  -0.53173  -0.47898  -0.46857  -0.45288
 Alpha  occ. eigenvalues --   -0.39186  -0.25625  -0.15049  -0.03658
 Alpha virt. eigenvalues --    0.04054   0.05316   0.05681   0.06128   0.06208
 Alpha virt. eigenvalues --    0.06422   0.06669   0.06771   0.08665   0.09218
 Alpha virt. eigenvalues --    0.09591   0.09765   0.10428   0.11346   0.12186

 Mulliken charges:
               1
     1  P    1.352587
     2  Si   4.487550
     3  C   -3.729897
     4  C   -3.673042
     5  C   -3.030683
     6  H    1.456083
     7  H    1.632968
     8  H    1.584930
     9  H    1.488125
    10  H    1.285750
    11  H    1.250611
    12  H    1.153907
    13  H   -0.750340
    14  H   -0.783932
    15  H   -1.951641
    16  H   -1.772975
 Sum of Mulliken charges =  -0.00000

 Dipole moment (field-independent basis, Debye):
    X=             -0.7119    Y=             -3.9630    Z=             -4.3466  Tot=              5.9250

 Test job not archived.
 1\1\GINC-SE132\SP\RHF\Aug-CC-pVDZ\C3H11P1Si1\OHZDE\08-Apr-2025\0\\#t h
 f aug-cc-pvdz iop(5/13=1,5/36=2,99/5=2) pseudo=read geom=check guess=(
 read,tcheck) scf=(maxcycle=1)\\title\\0,1\P,0,-2.118337,-0.8687,-0.193
 928\Si,0,-0.83835,0.994925,0.146613\C,0,3.160525,-0.543827,-0.087623\C
 ,0,0.940425,0.695,-0.411875\C,0,1.708773,-0.382133,0.37566\H,0,1.46891
 9,1.654338,-0.33775\H,0,0.926994,0.440793,-1.478897\H,0,1.194029,-1.34
 5233,0.281946\H,0,1.695712,-0.134865,1.44351\H,0,3.717084,0.391075,0.0
 29542\H,0,3.207183,-0.826993,-1.143574\H,0,3.678775,-1.315601,0.488499

 Normal termination of Gaussian 16 at Tue Apr  8 23:42:27 2025.
