 Gaussian 16, Revision C.01,

 ----------------------------------------------------------------------
 #t hf aug-cc-pvdz symm=none int=(grid=ultrafine) guess=(read,tcheck) s
 table=(opt,rrhf)
 ----------------------------------------------------------------------
 -----
 title
 -----
 Symbolic Z-matrix:
 Charge =  0 Multiplicity = 1

 SCF Done:  E(RHF) =  -1327.42091926     A.U. after   15 cycles
 Normal termination of Gaussian 16 at Wed Apr  9 00:54:26 2025.
 Gaussian 16:  ES64L-G16RevC.01  3-Jul-2019

 ----------------------------------------------------------------------
 #t hf aug-cc-pvdz iop(5/13=1,5/36=2,99/5=2) pseudo=read geom=check gue
 ss=(read,tcheck) scf=(maxcycle=1)
 ----------------------------------------------------------------------
 -----
 title
 -----
 Structure from the checkpoint file:  "BDE49_nonexpt_959_mol1.chk"
 Charge =  0 Multiplicity = 1

                         Standard orientation:
 ---------------------------------------------------------------------
 Center     Atomic      Atomic             Coordinates (Angstroms)
 Number     Number       Type             X           Y           Z
 ---------------------------------------------------------------------
      1          9           0        0.154765    1.866956   -0.482825
      2          7           0        0.013080    0.476847   -0.666835
      3         16           0        1.514866   -0.269460   -0.133000
      4         16           0       -1.530288    0.010907    0.156581
      5          8           0        1.184995   -1.671655   -0.159286
      6          8           0        2.533479    0.295441   -0.967369
      7          8           0       -1.280037   -0.400541    1.515316
      8          8           0       -2.420654    1.094042   -0.143817
      9          6           0        1.762210    0.295290    1.542131
     10          1           0        2.731735   -0.101158    1.845307
     11          1           0        0.955332   -0.089090    2.160846
     12          1           0        1.781915    1.383719    1.524678
     13          6           0       -1.908592   -1.414154   -0.842996
     14          1           0       -1.102738   -2.135956   -0.728293
     15          1           0       -2.019511   -1.085026   -1.873666
     16          1           0       -2.848386   -1.801291   -0.446469
 ---------------------------------------------------------------------

 SCF Done:  E(RHF) =  -1330.20234850     A.U. after    2 cycles

 The electronic state is 1-A.
 Alpha  occ. eigenvalues --  -75.94244 -75.93690 -29.32577 -21.09105 -21.08818
 Alpha  occ. eigenvalues --  -21.08653 -21.08315 -15.85632 -13.57640 -13.57243
 Alpha  occ. eigenvalues --  -13.47533 -13.45871 -13.40837 -13.35209 -11.45173
 Alpha  occ. eigenvalues --  -11.44799  -8.29397  -8.28929  -1.88009  -1.87749
 Alpha  occ. eigenvalues --   -1.69756  -1.68839  -1.47058  -1.19134  -1.16286
 Alpha  occ. eigenvalues --   -0.97160  -0.92340  -0.76767  -0.72850  -0.68939
 Alpha  occ. eigenvalues --   -0.65808  -0.65045  -0.63041  -0.61078  -0.60717
 Alpha  occ. eigenvalues --   -0.55278  -0.50660  -0.48383  -0.47303  -0.44754
 Alpha  occ. eigenvalues --   -0.43547  -0.42506  -0.41569  -0.40603  -0.39698
 Alpha  occ. eigenvalues --   -0.39325  -0.38489  -0.28438  -0.25937
 Alpha virt. eigenvalues --    0.02755   0.03305   0.05266   0.05743   0.06549
 Alpha virt. eigenvalues --    0.06588   0.09289   0.10557   0.11475   0.12173
 Alpha virt. eigenvalues --    0.12605   0.12805   0.13173   0.13752   0.15005

 Mulliken charges:
               1
     1  F   -0.322479
     2  N   -1.382114
     3  S    6.220466
     4  S    6.191862
     5  O   -2.590235
     6  O   -2.546816
     7  O   -2.657161
     8  O   -2.513741
     9  C   -4.411063
    10  H    1.328336
    11  H    1.560392
    12  H    1.317357
    13  C   -4.433359
    14  H    1.537085
    15  H    1.363535
    16  H    1.337936
 Sum of Mulliken charges =  -0.00000

 Dipole moment (field-independent basis, Debye):
    X=             -0.2566    Y=              1.2664    Z=              0.8751  Tot=              1.5606

 Test job not archived.
 1\1\GINC-SE284\SP\RHF\Aug-CC-pVDZ\C2H6F1N1O4S2\OHZDE\09-Apr-2025\0\\#t
  hf aug-cc-pvdz iop(5/13=1,5/36=2,99/5=2) pseudo=read geom=check guess
 =(read,tcheck) scf=(maxcycle=1)\\title\\0,1\F,0,0.154765,1.866956,-0.4
 82825\N,0,0.01308,0.476847,-0.666835\S,0,1.514866,-0.26946,-0.133\S,0,
 -1.530288,0.010907,0.156581\O,0,1.184995,-1.671655,-0.159286\O,0,2.533
 479,0.295441,-0.967369\O,0,-1.280037,-0.400541,1.515316\O,0,-2.420654,
 1.094042,-0.143817\C,0,1.76221,0.29529,1.542131\H,0,2.731735,-0.101158
 ,1.845307\H,0,0.955332,-0.08909,2.160846\H,0,1.781915,1.383719,1.52467

 Normal termination of Gaussian 16 at Wed Apr  9 00:54:37 2025.
