 Gaussian 16, Revision C.01,

 ----------------------------------------------------------------------
 #t hf aug-cc-pvdz symm=none int=(grid=ultrafine) guess=(read,tcheck) s
 table=(opt,rrhf)
 ----------------------------------------------------------------------
 -----
 title
 -----
 Symbolic Z-matrix:
 Charge =  0 Multiplicity = 1

 SCF Done:  E(RHF) =  -706.334669784     A.U. after   15 cycles

 1\1\GINC-SE132\Stability\RHF\Aug-CC-pVDZ\C8H10S1\OHZDE\08-Apr-2025\0\\
 #t hf aug-cc-pvdz symm=none int=(grid=ultrafine) guess=(read,tcheck) s
 table=(opt,rrhf)\\title\\0,1\S,0,-2.421748,-0.477804,-0.10005\C,0,-1.0
 82915,-0.262352,1.146037\C,0,0.307303,-0.142676,0.574635\C,0,0.929849,
 -1.236878,-0.038633\C,0,2.215186,-1.124696,-0.556492\C,0,1.003636,1.06
 6869,0.647807\C,0,2.291973,1.183653,0.12619\C,0,2.901523,0.08778,-0.47
 6565\H,0,3.903568,0.174517,-0.881202\H,0,2.684454,-1.983612,-1.023361\
 H,0,0.396298,-2.178378,-0.11471\H,0,0.537062,1.923473,1.124079\H,0,2.8

 Normal termination of Gaussian 16 at Tue Apr  8 22:48:53 2025.
 Gaussian 16:  ES64L-G16RevC.01  3-Jul-2019

 ----------------------------------------------------------------------
 #t hf aug-cc-pvdz iop(5/13=1,5/36=2,99/5=2) pseudo=read geom=check gue
 ss=(read,tcheck) scf=(maxcycle=1)
 ----------------------------------------------------------------------
 -----
 title
 -----
 Structure from the checkpoint file:  "BDE49_expt_1582_mol1.chk"
 Charge =  0 Multiplicity = 1

                         Standard orientation:
 ---------------------------------------------------------------------
 Center     Atomic      Atomic             Coordinates (Angstroms)
 Number     Number       Type             X           Y           Z
 ---------------------------------------------------------------------
      1         16           0       -2.421748   -0.477804   -0.100050
      2          6           0       -1.082915   -0.262352    1.146037
      3          6           0        0.307303   -0.142676    0.574635
      4          6           0        0.929849   -1.236878   -0.038633
      5          6           0        2.215186   -1.124696   -0.556492
      6          6           0        1.003636    1.066869    0.647807
      7          6           0        2.291973    1.183653    0.126190
      8          6           0        2.901523    0.087780   -0.476565
      9          1           0        3.903568    0.174517   -0.881202
     10          1           0        2.684454   -1.983612   -1.023361
     11          1           0        0.396298   -2.178378   -0.114710
     12          1           0        0.537062    1.923473    1.124079
     13          1           0        2.816863    2.130129    0.193650
     14          6           0       -2.280528    1.086618   -1.020002
     15          1           0       -2.491466    1.942826   -0.376325
     16          1           0       -3.029126    1.047134   -1.812193
     17          1           0       -1.292033    1.189032   -1.468847
     18          1           0       -1.171849   -1.152807    1.773176
     19          1           0       -1.321962    0.602644    1.768681
 ---------------------------------------------------------------------

 SCF Done:  E(RHF) =  -708.086617673     A.U. after    2 cycles

 The electronic state is 1-A.
 Alpha  occ. eigenvalues --  -75.67195 -13.11045 -13.08214 -13.02821 -11.51710
 Alpha  occ. eigenvalues --  -11.44105 -11.43239 -11.41552 -11.40716 -11.40513
 Alpha  occ. eigenvalues --  -11.38958 -11.36156  -8.01163  -1.35852  -1.21845
 Alpha  occ. eigenvalues --   -1.11216  -1.09087  -1.00572  -0.89549  -0.86371
 Alpha  occ. eigenvalues --   -0.82184  -0.70716  -0.64999  -0.62568  -0.59271
 Alpha  occ. eigenvalues --   -0.58251  -0.57894  -0.56262  -0.53380  -0.51221
 Alpha  occ. eigenvalues --   -0.45766  -0.44224  -0.43820  -0.36844  -0.33122
 Alpha  occ. eigenvalues --   -0.30766  -0.21729
 Alpha virt. eigenvalues --    0.03176   0.04254   0.04707   0.05005   0.05682
 Alpha virt. eigenvalues --    0.06005   0.06853   0.07210   0.07438   0.08337
 Alpha virt. eigenvalues --    0.09875   0.11107   0.11501   0.11838   0.12927

 Mulliken charges:
               1
     1  S    1.033002
     2  C   -5.656928
     3  C    5.657368
     4  C   -3.176541
     5  C   -1.208298
     6  C   -2.476371
     7  C   -1.340631
     8  C   -2.987210
     9  H    1.540393
    10  H    1.529511
    11  H    1.871312
    12  H    1.807683
    13  H    1.513061
    14  C   -5.001146
    15  H    1.390609
    16  H    1.366924
    17  H    1.638489
    18  H    1.156619
    19  H    1.342155
 Sum of Mulliken charges =   0.00000

 Dipole moment (field-independent basis, Debye):
    X=             -0.2403    Y=             -0.2575    Z=             -0.1459  Tot=              0.3812

 Test job not archived.
 1\1\GINC-SE132\SP\RHF\Aug-CC-pVDZ\C8H10S1\OHZDE\08-Apr-2025\0\\#t hf a
 ug-cc-pvdz iop(5/13=1,5/36=2,99/5=2) pseudo=read geom=check guess=(rea
 d,tcheck) scf=(maxcycle=1)\\title\\0,1\S,0,-2.421748,-0.477804,-0.1000
 5\C,0,-1.082915,-0.262352,1.146037\C,0,0.307303,-0.142676,0.574635\C,0
 ,0.929849,-1.236878,-0.038633\C,0,2.215186,-1.124696,-0.556492\C,0,1.0
 03636,1.066869,0.647807\C,0,2.291973,1.183653,0.12619\C,0,2.901523,0.0
 8778,-0.476565\H,0,3.903568,0.174517,-0.881202\H,0,2.684454,-1.983612,
 -1.023361\H,0,0.396298,-2.178378,-0.11471\H,0,0.537062,1.923473,1.1240

 Normal termination of Gaussian 16 at Tue Apr  8 22:49:04 2025.
