 Gaussian 16, Revision C.01,

 ----------------------------------------------------------------------
 #t hf aug-cc-pvdz symm=none int=(grid=ultrafine) guess=(read,tcheck) s
 table=opt
 ----------------------------------------------------------------------
 -----
 title
 -----
 Symbolic Z-matrix:
 Charge =  0 Multiplicity = 2

 SCF Done:  E(UHF) =  -192.404337933     A.U. after   20 cycles
 Normal termination of Gaussian 16 at Wed Apr  9 00:48:27 2025.
 Gaussian 16:  ES64L-G16RevC.01  3-Jul-2019

 ----------------------------------------------------------------------
 #t hf aug-cc-pvdz iop(5/13=1,5/36=2,99/5=2) pseudo=read geom=check gue
 ss=(read,tcheck) scf=(maxcycle=1)
 ----------------------------------------------------------------------
 -----
 title
 -----
 Structure from the checkpoint file:  "BDE49_nonexpt_85_mol3.chk"
 Charge =  0 Multiplicity = 2

                         Standard orientation:
 ---------------------------------------------------------------------
 Center     Atomic      Atomic             Coordinates (Angstroms)
 Number     Number       Type             X           Y           Z
 ---------------------------------------------------------------------
      1          5           0       -1.681394    0.464064   -0.000000
      2          8           0       -0.619273   -0.400368    0.000001
      3          6           0        0.632828   -0.057044   -0.000000
      4          7           0        1.763337    0.174185   -0.000001
      5          1           0       -2.779172    0.005597    0.000001
 ---------------------------------------------------------------------

 SCF Done:  E(UHF) =  -193.174345066     A.U. after    2 cycles

 The electronic state is 2-A.
 Alpha  occ. eigenvalues --  -21.16631 -15.77469 -11.50413  -7.71881  -1.89843
 Alpha  occ. eigenvalues --   -1.30692  -0.90818  -0.67696  -0.63249  -0.60978
 Alpha  occ. eigenvalues --   -0.53939  -0.44280  -0.41322  -0.35376
 Alpha virt. eigenvalues --    0.02407   0.03580   0.03970   0.05218   0.09154
 Alpha virt. eigenvalues --    0.11193   0.11957   0.12720   0.13389   0.14218
 Alpha virt. eigenvalues --    0.17931   0.18826   0.20070   0.20158   0.21611

  Beta  occ. eigenvalues --  -21.16490 -15.77586 -11.50286  -7.69902  -1.89173
  Beta  occ. eigenvalues --   -1.30830  -0.88477  -0.63962  -0.61160  -0.60918
  Beta  occ. eigenvalues --   -0.53641  -0.42530  -0.41323
  Beta virt. eigenvalues --    0.01987   0.02992   0.03698   0.04127   0.07687
  Beta virt. eigenvalues --    0.11082   0.11882   0.12942   0.13469   0.13509
  Beta virt. eigenvalues --    0.15357   0.18203   0.19300   0.20710   0.20761

 Mulliken charges and spin densities:
               1          2
     1  B    2.327324   1.025175
     2  O   -2.647373  -0.103538
     3  C    4.369386   0.088870
     4  N   -2.499101  -0.038196
     5  H   -1.550236   0.027689
 Sum of Mulliken charges =  -0.00000   1.00000

 Dipole moment (field-independent basis, Debye):
    X=             -2.8669    Y=             -0.8069    Z=              0.0000  Tot=              2.9783
                          Isotropic Fermi Contact Couplings
        Atom                 a.u.       MegaHertz       Gauss      10(-4) cm-1
     1  B(11)              0.25595     367.12112     130.99794     122.45842
     2  O(17)              0.00498      -3.02034      -1.07773      -1.00748
     3  C(13)              0.01972      22.17386       7.91219       7.39641
     4  N(14)             -0.00735      -2.37553      -0.84765      -0.79239
     5  H(1)               0.02748     122.84663      43.83473      40.97722
 --------------------------------------------------------
       Center         ----  Spin Dipole Couplings  ----
                      3XX-RR        3YY-RR        3ZZ-RR

 Normal termination of Gaussian 16 at Wed Apr  9 00:48:29 2025.
