 Gaussian 16, Revision C.01,

 ----------------------------------------------------------------------
 #t hf aug-cc-pvdz symm=none int=(grid=ultrafine) guess=(read,tcheck) s
 table=(opt,rrhf)
 ----------------------------------------------------------------------
 -----
 title
 -----
 Symbolic Z-matrix:
 Charge =  0 Multiplicity = 1

 SCF Done:  E(RHF) =  -1369.48505036     A.U. after   15 cycles
 Normal termination of Gaussian 16 at Wed Apr  9 00:22:44 2025.
 Gaussian 16:  ES64L-G16RevC.01  3-Jul-2019

 ----------------------------------------------------------------------
 #t hf aug-cc-pvdz iop(5/13=1,5/36=2,99/5=2) pseudo=read geom=check gue
 ss=(read,tcheck) scf=(maxcycle=1)
 ----------------------------------------------------------------------
 -----
 title
 -----
 Structure from the checkpoint file:  "BDE49_nonexpt_2668_mol1.chk"
 Charge =  0 Multiplicity = 1

                         Standard orientation:
 ---------------------------------------------------------------------
 Center     Atomic      Atomic             Coordinates (Angstroms)
 Number     Number       Type             X           Y           Z
 ---------------------------------------------------------------------
      1          9           0       -2.161024   -1.267831    0.000324
      2         16           0       -1.705275    0.360037    0.000063
      3          6           0        0.005060    0.311577   -0.000497
      4         16           0        0.607193    1.852747    0.000227
      5         16           0        0.810304   -1.226488   -0.000306
      6          6           0        2.555542   -0.718055    0.000017
      7          1           0        3.120453   -1.650805    0.000135
      8          1           0        2.784635   -0.140287    0.893746
      9          1           0        2.784966   -0.140307   -0.893641
 ---------------------------------------------------------------------

 SCF Done:  E(RHF) =  -1370.88101057     A.U. after    2 cycles

 The electronic state is 1-A.
 Alpha  occ. eigenvalues --  -75.79890 -75.73959 -75.68297 -29.28468 -13.24156
 Alpha  occ. eigenvalues --  -13.21845 -13.16400 -13.15588 -13.13530 -13.10360
 Alpha  occ. eigenvalues --  -13.06673 -13.04045 -12.99820 -11.51535 -11.42367
 Alpha  occ. eigenvalues --   -8.13924  -8.08211  -8.02405  -1.37220  -1.21581
 Alpha  occ. eigenvalues --   -1.12103  -1.00397  -0.80855  -0.68045  -0.61597
 Alpha  occ. eigenvalues --   -0.61257  -0.54674  -0.50451  -0.48923  -0.40432
 Alpha  occ. eigenvalues --   -0.38049  -0.34885  -0.31042  -0.25652  -0.23074
 Alpha  occ. eigenvalues --   -0.18359
 Alpha virt. eigenvalues --    0.01860   0.04547   0.05050   0.06111   0.07528
 Alpha virt. eigenvalues --    0.07826   0.08121   0.09679   0.12968   0.14154
 Alpha virt. eigenvalues --    0.14635   0.14755   0.14963   0.15575   0.16812

 Mulliken charges:
               1
     1  F   -0.151074
     2  S    1.479102
     3  C   -3.127647
     4  S    0.884486
     5  S    1.422504
     6  C   -4.666221
     7  H    1.288267
     8  H    1.435421
     9  H    1.435161
 Sum of Mulliken charges =   0.00000

 Dipole moment (field-independent basis, Debye):
    X=             -1.3874    Y=             -3.7325    Z=              0.0038  Tot=              3.9820

 Test job not archived.
 1\1\GINC-SE458\SP\RHF\Aug-CC-pVDZ\C2H3F1S3\OHZDE\09-Apr-2025\0\\#t hf
 aug-cc-pvdz iop(5/13=1,5/36=2,99/5=2) pseudo=read geom=check guess=(re
 ad,tcheck) scf=(maxcycle=1)\\title\\0,1\F,0,-2.161025,-1.26783,0.00032
 4\S,0,-1.705275,0.360037,0.000063\C,0,0.00506,0.311577,-0.000497\S,0,0
 .607194,1.852747,0.000227\S,0,0.810303,-1.226488,-0.000306\C,0,2.55554
 2,-0.718056,0.000017\H,0,3.120452,-1.650806,0.000135\H,0,2.784635,-0.1
 40288,0.893746\H,0,2.784966,-0.140308,-0.893641\\Version=ES64L-G16RevC
 .01\State=1-A\HF=-1370.8810106\RMSD=1.321e-01\Dipole=-0.5458452,-1.468

 Normal termination of Gaussian 16 at Wed Apr  9 00:22:47 2025.
