 Gaussian 16, Revision C.01,

 ----------------------------------------------------------------------
 #t hf aug-cc-pvdz symm=none int=(grid=ultrafine) guess=(read,tcheck) s
 table=(opt,rrhf)
 ----------------------------------------------------------------------
 -----
 title
 -----
 Symbolic Z-matrix:
 Charge =  0 Multiplicity = 1

 SCF Done:  E(RHF) =  -1009.74827036     A.U. after   14 cycles
 Normal termination of Gaussian 16 at Tue Apr  8 22:58:39 2025.
 Gaussian 16:  ES64L-G16RevC.01  3-Jul-2019

 ----------------------------------------------------------------------
 #t hf aug-cc-pvdz iop(5/13=1,5/36=2,99/5=2) pseudo=read geom=check gue
 ss=(read,tcheck) scf=(maxcycle=1)
 ----------------------------------------------------------------------
 -----
 title
 -----
 Structure from the checkpoint file:  "BDE49_expt_1872_mol1.chk"
 Charge =  0 Multiplicity = 1

                         Standard orientation:
 ---------------------------------------------------------------------
 Center     Atomic      Atomic             Coordinates (Angstroms)
 Number     Number       Type             X           Y           Z
 ---------------------------------------------------------------------
      1          6           0       -2.698669    0.138992    0.084123
      2          8           0       -1.446858    0.612744   -0.289881
      3          9           0       -3.135164   -0.796674   -0.753748
      4          9           0       -3.512781    1.183262    0.038268
      5          9           0       -2.683910   -0.353686    1.319273
      6          6           0       -0.407997   -0.268595   -0.323114
      7          8           0        0.641781    0.530266   -0.716725
      8          8           0       -0.402349   -1.422878   -0.084106
      9          8           0        1.808662   -0.290822   -0.883155
     10          6           0        2.714244    0.073770    0.107242
     11          9           0        3.755840   -0.719248   -0.090165
     12          9           0        3.085926    1.346406   -0.000246
     13          9           0        2.217271   -0.115557    1.328998
 ---------------------------------------------------------------------

 SCF Done:  E(RHF) =  -1013.40876991     A.U. after    2 cycles

 The electronic state is 1-A.
 Alpha  occ. eigenvalues --  -29.35414 -29.35163 -29.34995 -29.34978 -29.34933
 Alpha  occ. eigenvalues --  -29.34837 -21.20566 -21.19241 -21.17822 -21.12216
 Alpha  occ. eigenvalues --  -11.65684 -11.64609 -11.61776  -2.11305  -1.94997
 Alpha  occ. eigenvalues --   -1.77342  -1.63368  -1.39199  -1.33180  -0.98280
 Alpha  occ. eigenvalues --   -0.97469  -0.96401  -0.95971  -0.90731  -0.77225
 Alpha  occ. eigenvalues --   -0.74731  -0.68106  -0.67121  -0.58590  -0.53476
 Alpha  occ. eigenvalues --   -0.51571  -0.51247  -0.48374  -0.48118  -0.47370
 Alpha  occ. eigenvalues --   -0.47133  -0.46300  -0.44269  -0.42185  -0.40838
 Alpha  occ. eigenvalues --   -0.39521  -0.37280  -0.36471  -0.35857  -0.34091
 Alpha  occ. eigenvalues --   -0.33363  -0.29553  -0.28804  -0.28563  -0.28139
 Alpha  occ. eigenvalues --   -0.24971  -0.24854
 Alpha virt. eigenvalues --    0.09105   0.09711   0.10511   0.10943   0.11237
 Alpha virt. eigenvalues --    0.11720   0.11836   0.13255   0.13904   0.15341
 Alpha virt. eigenvalues --    0.15813   0.16424   0.18321   0.18962   0.19311

 Mulliken charges:
               1
     1  C    0.371119
     2  O   -2.776515
     3  F    0.437370
     4  F    0.437824
     5  F    0.433185
     6  C    4.781556
     7  O   -1.789010
     8  O   -2.303457
     9  O   -1.584045
    10  C    0.311313
    11  F    0.630313
    12  F    0.584511
    13  F    0.465838
 Sum of Mulliken charges =   0.00000

 Dipole moment (field-independent basis, Debye):
    X=             -0.3838    Y=              0.2130    Z=              2.1664  Tot=              2.2104

 Test job not archived.
 1\1\GINC-SE339\SP\RHF\Aug-CC-pVDZ\C3F6O4\OHZDE\08-Apr-2025\0\\#t hf au
 g-cc-pvdz iop(5/13=1,5/36=2,99/5=2) pseudo=read geom=check guess=(read
 ,tcheck) scf=(maxcycle=1)\\title\\0,1\C,0,-2.698669,0.138992,0.084123\
 O,0,-1.446858,0.612744,-0.289881\F,0,-3.135164,-0.796674,-0.753748\F,0
 ,-3.512781,1.183262,0.038268\F,0,-2.68391,-0.353686,1.319273\C,0,-0.40
 7997,-0.268595,-0.323114\O,0,0.641781,0.530266,-0.716725\O,0,-0.402349
 ,-1.422878,-0.084106\O,0,1.808662,-0.290822,-0.883155\C,0,2.714244,0.0
 7377,0.107242\F,0,3.75584,-0.719248,-0.090165\F,0,3.085926,1.346406,-0

 Normal termination of Gaussian 16 at Tue Apr  8 22:58:45 2025.
