 Gaussian 16, Revision C.01,

 ----------------------------------------------------------------------
 #t hf aug-cc-pvdz symm=none int=(grid=ultrafine) guess=(read,tcheck) s
 table=opt
 ----------------------------------------------------------------------
 -----
 title
 -----
 Symbolic Z-matrix:
 Charge =  0 Multiplicity = 2

 SCF Done:  E(UHF) =  -922.385004295     A.U. after   18 cycles
 Normal termination of Gaussian 16 at Tue Apr  8 23:07:15 2025.
 Gaussian 16:  ES64L-G16RevC.01  3-Jul-2019

 ----------------------------------------------------------------------
 #t hf aug-cc-pvdz iop(5/13=1,5/36=2,99/5=2) pseudo=read geom=check gue
 ss=(read,tcheck) scf=(maxcycle=1)
 ----------------------------------------------------------------------
 -----
 title
 -----
 Structure from the checkpoint file:  "BDE49_expt_391_mol2.chk"
 Charge =  0 Multiplicity = 2

                         Standard orientation:
 ---------------------------------------------------------------------
 Center     Atomic      Atomic             Coordinates (Angstroms)
 Number     Number       Type             X           Y           Z
 ---------------------------------------------------------------------
      1          6           0       -1.387565    1.488694    0.115850
      2         16           0       -0.872131   -0.163969   -0.022293
      3          1           0       -0.931791    2.240463   -0.513174
      4          1           0       -2.251254    1.675069    0.738471
      5          6           0        0.997042    0.023558    0.020243
      6          9           0        1.553258   -1.163446   -0.190095
      7          9           0        1.386099    0.498881    1.203401
      8          9           0        1.384964    0.875423   -0.937751
      9          8           0       -1.184702   -0.655408   -1.343263
     10          8           0       -1.245124   -0.877501    1.172617
 ---------------------------------------------------------------------

 SCF Done:  E(UHF) =  -924.613285722     A.U. after    2 cycles

 The electronic state is 2-A.
 Alpha  occ. eigenvalues --  -75.92913 -29.35411 -29.35327 -29.35203 -21.08385
 Alpha  occ. eigenvalues --  -21.08309 -13.55990 -13.45288 -13.37676 -11.62712
 Alpha  occ. eigenvalues --  -11.47377  -8.28214  -1.86948  -1.68685  -1.45142
 Alpha  occ. eigenvalues --   -1.18822  -0.96907  -0.93616  -0.93066  -0.77421
 Alpha  occ. eigenvalues --   -0.68263  -0.61889  -0.54467  -0.51714  -0.49345
 Alpha  occ. eigenvalues --   -0.48036  -0.46699  -0.45053  -0.43015  -0.41191
 Alpha  occ. eigenvalues --   -0.40101  -0.39449  -0.37967  -0.29956  -0.29192
 Alpha  occ. eigenvalues --   -0.27598  -0.25119
 Alpha virt. eigenvalues --    0.02729   0.04998   0.09269   0.09689   0.11297
 Alpha virt. eigenvalues --    0.12382   0.12495   0.12883   0.13468   0.14060
 Alpha virt. eigenvalues --    0.15130   0.17609   0.17919   0.20145   0.20961

  Beta  occ. eigenvalues --  -75.93000 -29.35410 -29.35323 -29.35192 -21.08353
  Beta  occ. eigenvalues --  -21.08107 -13.56081 -13.45518 -13.37865 -11.62694
  Beta  occ. eigenvalues --  -11.45080  -8.28324  -1.86749  -1.68380  -1.45058
  Beta  occ. eigenvalues --   -1.12991  -0.94520  -0.93059  -0.92742  -0.76536
  Beta  occ. eigenvalues --   -0.66821  -0.61044  -0.52613  -0.49308  -0.48988
  Beta  occ. eigenvalues --   -0.47732  -0.46605  -0.43292  -0.41421  -0.39959
  Beta  occ. eigenvalues --   -0.39803  -0.38236  -0.30375  -0.29202  -0.27449
  Beta  occ. eigenvalues --   -0.25155
  Beta virt. eigenvalues --    0.01703   0.02945   0.05030   0.09441   0.09754
  Beta virt. eigenvalues --    0.12054   0.12504   0.12858   0.13243   0.13555
  Beta virt. eigenvalues --    0.14275   0.15512   0.17819   0.18146   0.20273

 Mulliken charges and spin densities:
               1          2
     1  C   -3.584304   1.290106
     2  S    5.561671  -0.151178
     3  H    1.393757  -0.079210
     4  H    1.453036  -0.078690
     5  C   -1.190702  -0.008297
     6  F    0.605727   0.005842
     7  F    0.437714   0.000331
     8  F    0.380624  -0.000338
     9  O   -2.422514   0.005265
    10  O   -2.635008   0.016170
 Sum of Mulliken charges =  -0.00000   1.00000

 Dipole moment (field-independent basis, Debye):
    X=              2.3037    Y=              1.8864    Z=              0.1027  Tot=              2.9792
                          Isotropic Fermi Contact Couplings
        Atom                 a.u.       MegaHertz       Gauss      10(-4) cm-1
     1  C(13)              0.12197     137.11399      48.92568      45.73630
     2  S(33)             -0.11931     -40.97823     -14.62205     -13.66887
     3  H(1)              -0.01762     -78.73759     -28.09553     -26.26403
     4  H(1)              -0.01866     -83.42353     -29.76759     -27.82709
     5  C(13)              0.00150       1.68781       0.60225       0.56299
     6  F(19)              0.00027       1.15093       0.41068       0.38391
     7  F(19)             -0.00140      -5.87644      -2.09686      -1.96017
     8  F(19)             -0.00039      -1.65252      -0.58966      -0.55122

 Normal termination of Gaussian 16 at Tue Apr  8 23:07:22 2025.
