 Gaussian 16, Revision C.01,

 ----------------------------------------------------------------------
 #t hf aug-cc-pvdz symm=none int=(grid=ultrafine) guess=(read,tcheck) s
 table=(opt,rrhf)
 ----------------------------------------------------------------------
 -----
 title
 -----
 Symbolic Z-matrix:
 Charge =  0 Multiplicity = 1

 SCF Done:  E(RHF) =  -957.428626404     A.U. after   15 cycles
 Normal termination of Gaussian 16 at Wed Apr  9 00:16:52 2025.
 Gaussian 16:  ES64L-G16RevC.01  3-Jul-2019

 ----------------------------------------------------------------------
 #t hf aug-cc-pvdz iop(5/13=1,5/36=2,99/5=2) pseudo=read geom=check gue
 ss=(read,tcheck) scf=(maxcycle=1)
 ----------------------------------------------------------------------
 -----
 title
 -----
 Structure from the checkpoint file:  "BDE49_nonexpt_2497_mol1.chk"
 Charge =  0 Multiplicity = 1

                         Standard orientation:
 ---------------------------------------------------------------------
 Center     Atomic      Atomic             Coordinates (Angstroms)
 Number     Number       Type             X           Y           Z
 ---------------------------------------------------------------------
      1         14           0       -2.360048   -0.117168   -0.525610
      2         16           0       -1.056492   -0.994788    0.968884
      3          6           0        0.546882   -0.403092    0.390291
      4          6           0        1.227332   -1.081782   -0.625439
      5          6           0        2.486188   -0.646577   -1.032955
      6          6           0        1.143558    0.703835    1.001441
      7          6           0        2.405302    1.131033    0.592408
      8          6           0        3.077971    0.459665   -0.426302
      9          1           0        4.059532    0.793590   -0.742622
     10          1           0        3.006580   -1.177962   -1.821926
     11          1           0        0.771296   -1.948969   -1.087188
     12          1           0        0.620376    1.220946    1.796521
     13          1           0        2.861754    1.989236    1.072876
     14          6           0       -2.335657    1.756131   -0.523903
     15          1           0       -2.660544    2.151421    0.441494
     16          1           0       -3.008692    2.138998   -1.297803
     17          1           0       -1.331704    2.134527   -0.731301
     18          1           0       -3.698604   -0.636112   -0.160097
     19          1           0       -1.984910   -0.623991   -1.866813
 ---------------------------------------------------------------------

 SCF Done:  E(RHF) =  -959.138662678     A.U. after    2 cycles

 The electronic state is 1-A.
 Alpha  occ. eigenvalues --  -76.23184 -75.67371 -13.15624 -13.08990 -13.06580
 Alpha  occ. eigenvalues --  -11.52053 -11.44492 -11.43777 -11.41668 -11.41084
 Alpha  occ. eigenvalues --  -11.36989 -11.35473  -8.01516  -5.56683  -2.20042
 Alpha  occ. eigenvalues --   -2.18683  -2.18586  -1.35702  -1.15994  -1.09728
 Alpha  occ. eigenvalues --   -1.04983  -1.01930  -0.87042  -0.84083  -0.72788
 Alpha  occ. eigenvalues --   -0.70667  -0.64042  -0.58831  -0.57812  -0.56880
 Alpha  occ. eigenvalues --   -0.56397  -0.53927  -0.51945  -0.47357  -0.45693
 Alpha  occ. eigenvalues --   -0.43579  -0.40164  -0.38325  -0.33589  -0.29092
 Alpha  occ. eigenvalues --   -0.25760
 Alpha virt. eigenvalues --    0.03046   0.04452   0.04725   0.05023   0.05572
 Alpha virt. eigenvalues --    0.05808   0.06480   0.07304   0.07678   0.08323
 Alpha virt. eigenvalues --    0.08636   0.09043   0.10524   0.11118   0.11324

 Mulliken charges:
               1
     1  Si   6.465153
     2  S   -1.161126
     3  C    2.802882
     4  C   -3.807004
     5  C   -0.952763
     6  C   -3.469544
     7  C   -0.906593
     8  C   -2.261928
     9  H    1.534744
    10  H    1.559231
    11  H    1.853480
    12  H    1.854658
    13  H    1.545845
    14  C   -5.070649
    15  H    1.276954
    16  H    1.275752
    17  H    1.384405
    18  H   -1.990172
    19  H   -1.933324
 Sum of Mulliken charges =   0.00000

 Dipole moment (field-independent basis, Debye):
    X=              1.0151    Y=              0.3156    Z=              0.8229  Tot=              1.3443

 Test job not archived.
 1\1\GINC-SE393\SP\RHF\Aug-CC-pVDZ\C7H10S1Si1\OHZDE\09-Apr-2025\0\\#t h
 f aug-cc-pvdz iop(5/13=1,5/36=2,99/5=2) pseudo=read geom=check guess=(
 read,tcheck) scf=(maxcycle=1)\\title\\0,1\Si,0,2.360048,-0.117168,0.52
 561\S,0,1.056492,-0.994788,-0.968884\C,0,-0.546882,-0.403092,-0.390291
 \C,0,-1.227332,-1.081782,0.625439\C,0,-2.486188,-0.646577,1.032955\C,0
 ,-1.143558,0.703835,-1.001441\C,0,-2.405302,1.131033,-0.592408\C,0,-3.
 077971,0.459665,0.426302\H,0,-4.059532,0.79359,0.742622\H,0,-3.00658,-
 1.177962,1.821926\H,0,-0.771296,-1.948969,1.087188\H,0,-0.620376,1.220

 Normal termination of Gaussian 16 at Wed Apr  9 00:17:02 2025.
