 Gaussian 16, Revision C.01,

 ----------------------------------------------------------------------
 #t hf aug-cc-pvdz symm=none int=(grid=ultrafine) guess=(read,tcheck) s
 table=(opt,rrhf)
 ----------------------------------------------------------------------
 -----
 title
 -----
 Symbolic Z-matrix:
 Charge =  0 Multiplicity = 1

 SCF Done:  E(RHF) =  -709.142740987     A.U. after   14 cycles
 Normal termination of Gaussian 16 at Wed Apr  9 00:22:08 2025.
 Gaussian 16:  ES64L-G16RevC.01  3-Jul-2019

 ----------------------------------------------------------------------
 #t hf aug-cc-pvdz iop(5/13=1,5/36=2,99/5=2) pseudo=read geom=check gue
 ss=(read,tcheck) scf=(maxcycle=1)
 ----------------------------------------------------------------------
 -----
 title
 -----
 Structure from the checkpoint file:  "BDE49_nonexpt_2648_mol1.chk"
 Charge =  0 Multiplicity = 1

                         Standard orientation:
 ---------------------------------------------------------------------
 Center     Atomic      Atomic             Coordinates (Angstroms)
 Number     Number       Type             X           Y           Z
 ---------------------------------------------------------------------
      1          9           0       -1.795867    0.543334   -0.000008
      2         16           0       -0.728649   -0.705449    0.000001
      3          6           0        0.760452    0.234069    0.000004
      4          8           0        0.927823    1.397036    0.000011
      5          9           0        1.759544   -0.687059   -0.000006
 ---------------------------------------------------------------------

 SCF Done:  E(RHF) =  -710.493199311     A.U. after    2 cycles

 The electronic state is 1-A.
 Alpha  occ. eigenvalues --  -75.81935 -29.34646 -29.31922 -21.12571 -13.26939
 Alpha  occ. eigenvalues --  -13.22223 -13.12251 -11.59359  -8.16162  -1.79856
 Alpha  occ. eigenvalues --   -1.31258  -1.06433  -0.76237  -0.66998  -0.62019
 Alpha  occ. eigenvalues --   -0.59922  -0.46630  -0.44865  -0.41117  -0.35246
 Alpha  occ. eigenvalues --   -0.33794  -0.31576  -0.28264  -0.22224
 Alpha virt. eigenvalues --    0.05810   0.09539   0.09572   0.10332   0.11737
 Alpha virt. eigenvalues --    0.12582   0.14476   0.16658   0.17580   0.19613
 Alpha virt. eigenvalues --    0.23074   0.24246   0.25932   0.27680   0.29147

 Mulliken charges:
               1
     1  F   -0.137380
     2  S    1.097391
     3  C    0.520017
     4  O   -2.335978
     5  F    0.855950
 Sum of Mulliken charges =  -0.00000

 Dipole moment (field-independent basis, Debye):
    X=             -1.0730    Y=             -1.8680    Z=             -0.0000  Tot=              2.1542

 Test job not archived.
 1\1\GINC-SE099\SP\RHF\Aug-CC-pVDZ\C1F2O1S1\OHZDE\09-Apr-2025\0\\#t hf
 aug-cc-pvdz iop(5/13=1,5/36=2,99/5=2) pseudo=read geom=check guess=(re
 ad,tcheck) scf=(maxcycle=1)\\title\\0,1\F,0,1.795867,0.543334,0.000008
 \S,0,0.728649,-0.705449,-0.000001\C,0,-0.760452,0.234069,-0.000004\O,0
 ,-0.927823,1.397036,-0.000011\F,0,-1.759544,-0.687059,0.000006\\Versio
 n=ES64L-G16RevC.01\State=1-A\HF=-710.4931993\RMSD=7.004e-02\Dipole=0.4
 221367,-0.7349115,0.0000168\Quadrupole=4.9465875,-2.3424921,-2.6040955
 ,3.3038014,-0.0000047,0.0000156\PG=C01 [X(C1F2O1S1)]\\@

 Normal termination of Gaussian 16 at Wed Apr  9 00:22:10 2025.
