 Gaussian 16, Revision C.01,

 ----------------------------------------------------------------------
 #t hf aug-cc-pvdz symm=none int=(grid=ultrafine) guess=(read,tcheck) s
 table=(opt,rrhf)
 ----------------------------------------------------------------------
 -----
 title
 -----
 Symbolic Z-matrix:
 Charge =  0 Multiplicity = 1

 SCF Done:  E(RHF) =  -360.825314871     A.U. after   15 cycles
 Normal termination of Gaussian 16 at Tue Apr  8 22:54:01 2025.
 Gaussian 16:  ES64L-G16RevC.01  3-Jul-2019

 ----------------------------------------------------------------------
 #t hf aug-cc-pvdz iop(5/13=1,5/36=2,99/5=2) pseudo=read geom=check gue
 ss=(read,tcheck) scf=(maxcycle=1)
 ----------------------------------------------------------------------
 -----
 title
 -----
 Structure from the checkpoint file:  "BDE49_expt_1782_mol1.chk"
 Charge =  0 Multiplicity = 1

                         Standard orientation:
 ---------------------------------------------------------------------
 Center     Atomic      Atomic             Coordinates (Angstroms)
 Number     Number       Type             X           Y           Z
 ---------------------------------------------------------------------
      1          8           0       -1.043014   -0.485583   -0.440803
      2          7           0       -2.402127   -0.704813   -0.185761
      3          8           0       -2.940490    0.162265    0.408777
      4          6           0       -0.479142    0.756414    0.050619
      5          6           0        0.997429    0.755141   -0.309246
      6          1           0       -0.638525    0.813440    1.132163
      7          6           0        1.810664   -0.335356    0.397794
      8          1           0        1.399029    1.742960   -0.052177
      9          1           0        1.096172    0.651459   -1.395258
     10          6           0        3.291685   -0.314535    0.011993
     11          1           0        1.379048   -1.311814    0.159914
     12          1           0        1.711718   -0.209124    1.482872
     13          1           0        3.422240   -0.473235   -1.062836
     14          1           0        3.847284   -1.098946    0.532138
     15          1           0        3.756027    0.644176    0.264028
     16          1           0       -1.013893    1.591333   -0.411268
 ---------------------------------------------------------------------

 SCF Done:  E(RHF) =  -362.475311723     A.U. after    2 cycles

 The electronic state is 1-A.
 Alpha  occ. eigenvalues --  -21.14277 -21.10014 -15.92970 -11.45784 -11.41681
 Alpha  occ. eigenvalues --  -11.38608 -11.35397  -1.97044  -1.72347  -1.23733
 Alpha  occ. eigenvalues --   -1.08916  -0.97205  -0.88268  -0.82477  -0.69177
 Alpha  occ. eigenvalues --   -0.66872  -0.63983  -0.61173  -0.58223  -0.57295
 Alpha  occ. eigenvalues --   -0.54076  -0.51954  -0.47526  -0.46396  -0.43904
 Alpha  occ. eigenvalues --   -0.41866  -0.34100  -0.30049
 Alpha virt. eigenvalues --    0.04070   0.05037   0.05306   0.05639   0.06058
 Alpha virt. eigenvalues --    0.06435   0.07190   0.07835   0.08997   0.10488
 Alpha virt. eigenvalues --    0.12475   0.13049   0.13841   0.14092   0.14163

 Mulliken charges:
               1
     1  O   -1.884498
     2  N    2.186228
     3  O   -1.738966
     4  C   -2.030686
     5  C   -2.528343
     6  H    1.722484
     7  C   -2.767686
     8  H    1.351559
     9  H    1.511302
    10  C   -3.901770
    11  H    1.552395
    12  H    1.418601
    13  H    1.298915
    14  H    1.103327
    15  H    1.285314
    16  H    1.421825
 Sum of Mulliken charges =  -0.00000

 Dipole moment (field-independent basis, Debye):
    X=              1.6294    Y=              1.2197    Z=              0.3276  Tot=              2.0615

 Test job not archived.
 1\1\GINC-SE368\SP\RHF\Aug-CC-pVDZ\C4H9N1O2\OHZDE\08-Apr-2025\0\\#t hf
 aug-cc-pvdz iop(5/13=1,5/36=2,99/5=2) pseudo=read geom=check guess=(re
 ad,tcheck) scf=(maxcycle=1)\\title\\0,1\O,0,-1.043014,-0.485583,-0.440
 803\N,0,-2.402127,-0.704813,-0.185761\O,0,-2.94049,0.162265,0.408777\C
 ,0,-0.479142,0.756414,0.050619\C,0,0.997429,0.755141,-0.309246\H,0,-0.
 638525,0.81344,1.132163\C,0,1.810664,-0.335356,0.397794\H,0,1.399029,1
 .74296,-0.052177\H,0,1.096172,0.651459,-1.395258\C,0,3.291685,-0.31453
 5,0.011993\H,0,1.379048,-1.311814,0.159914\H,0,1.711718,-0.209124,1.48

 Normal termination of Gaussian 16 at Tue Apr  8 22:54:05 2025.
