 Gaussian 16, Revision C.01,

 ----------------------------------------------------------------------
 #t hf aug-cc-pvdz symm=none int=(grid=ultrafine) guess=(read,tcheck) s
 table=(opt,rrhf)
 ----------------------------------------------------------------------
 -----
 title
 -----
 Symbolic Z-matrix:
 Charge =  0 Multiplicity = 1

 SCF Done:  E(RHF) =  -779.756418787     A.U. after   16 cycles
 Normal termination of Gaussian 16 at Tue Apr  8 23:39:57 2025.
 Gaussian 16:  ES64L-G16RevC.01  3-Jul-2019

 ----------------------------------------------------------------------
 #t hf aug-cc-pvdz iop(5/13=1,5/36=2,99/5=2) pseudo=read geom=check gue
 ss=(read,tcheck) scf=(maxcycle=1)
 ----------------------------------------------------------------------
 -----
 title
 -----
 Structure from the checkpoint file:  "BDE49_nonexpt_1503_mol1.chk"
 Charge =  0 Multiplicity = 1

                         Standard orientation:
 ---------------------------------------------------------------------
 Center     Atomic      Atomic             Coordinates (Angstroms)
 Number     Number       Type             X           Y           Z
 ---------------------------------------------------------------------
      1          6           0        1.811378   -1.614712   -0.082659
      2          6           0        3.170310   -1.415625   -0.033549
      3          6           0        3.697707   -0.106283    0.049084
      4          6           0        2.854459    0.978805    0.080577
      5          6           0        1.447981    0.807029    0.031157
      6          6           0        0.913185   -0.516360   -0.051835
      7          1           0        1.405356   -2.618927   -0.147071
      8          1           0        3.845159   -2.263969   -0.058603
      9          1           0        4.771653    0.037660    0.086950
     10          1           0        3.256755    1.984740    0.143456
     11          6           0       -0.495552   -0.690890   -0.099993
     12          6           0       -1.352463    0.385947   -0.061660
     13          6           0        0.543370    1.902169    0.060752
     14          6           0       -0.811387    1.700031    0.012417
     15          1           0        0.942916    2.909282    0.124219
     16          1           0       -1.481134    2.554717    0.038437
     17          7           0       -3.415146   -1.410716    0.284180
     18          1           0       -0.900536   -1.695226   -0.163032
     19         15           0       -3.175592    0.197635   -0.233706
     20          1           0       -3.492017    0.960638    0.928825
     21          1           0       -4.215299   -1.876954   -0.114954
     22          1           0       -3.266883   -1.662143    1.252371
 ---------------------------------------------------------------------

 SCF Done:  E(RHF) =  -782.046532727     A.U. after    2 cycles

 The electronic state is 1-A.
 Alpha  occ. eigenvalues -- -105.19187 -15.74637 -11.51793 -11.49183 -11.44720
 Alpha  occ. eigenvalues --  -11.43456 -11.42839 -11.42232 -11.41374 -11.41286
 Alpha  occ. eigenvalues --  -11.39186 -11.36135  -2.77149  -1.56584  -1.51289
 Alpha  occ. eigenvalues --   -1.44481  -1.38650  -1.22973  -1.17634  -1.13842
 Alpha  occ. eigenvalues --   -1.07112  -1.03668  -0.89241  -0.86159  -0.84622
 Alpha  occ. eigenvalues --   -0.73783  -0.71106  -0.69053  -0.65578  -0.63124
 Alpha  occ. eigenvalues --   -0.61046  -0.56966  -0.56710  -0.53801  -0.53431
 Alpha  occ. eigenvalues --   -0.49194  -0.44832  -0.44576  -0.42206  -0.41055
 Alpha  occ. eigenvalues --   -0.38166  -0.31880  -0.28449  -0.27705  -0.23528
 Alpha  occ. eigenvalues --   -0.01621
 Alpha virt. eigenvalues --    0.03694   0.04573   0.05212   0.05911   0.06300
 Alpha virt. eigenvalues --    0.06617   0.06731   0.07104   0.08104   0.08824
 Alpha virt. eigenvalues --    0.09332   0.10302   0.10882   0.10965   0.11615

 Mulliken charges:
               1
     1  C   -2.801303
     2  C   -4.182646
     3  C   -4.184242
     4  C   -2.569521
     5  C    6.135755
     6  C    9.042819
     7  H    1.740096
     8  H    1.464413
     9  H    1.437968
    10  H    1.689392
    11  C   -2.105194
    12  C   -0.823436
    13  C   -2.900833
    14  C   -8.400325
    15  H    1.816407
    16  H    1.984889
    17  N   -2.581244
    18  H    1.900513
    19  P    2.980567
    20  H   -0.850708
    21  H    0.672943
    22  H    0.533690
 Sum of Mulliken charges =  -0.00000

 Dipole moment (field-independent basis, Debye):
    X=             -0.5878    Y=             -0.8308    Z=              0.2500  Tot=              1.0479

 Test job not archived.
 1\1\GINC-SE074\SP\RHF\Aug-CC-pVDZ\C10H10N1P1\OHZDE\08-Apr-2025\0\\#t h
 f aug-cc-pvdz iop(5/13=1,5/36=2,99/5=2) pseudo=read geom=check guess=(
 read,tcheck) scf=(maxcycle=1)\\title\\0,1\C,0,1.811378,-1.614712,-0.08
 2659\C,0,3.17031,-1.415625,-0.033549\C,0,3.697707,-0.106283,0.049084\C
 ,0,2.854459,0.978805,0.080577\C,0,1.447981,0.807029,0.031157\C,0,0.913
 185,-0.51636,-0.051835\H,0,1.405356,-2.618927,-0.147071\H,0,3.845159,-
 2.263969,-0.058603\H,0,4.771653,0.03766,0.08695\H,0,3.256755,1.98474,0
 .143456\C,0,-0.495552,-0.69089,-0.099993\C,0,-1.352463,0.385947,-0.061

 Normal termination of Gaussian 16 at Tue Apr  8 23:40:14 2025.
