 Gaussian 16, Revision C.01,

 ----------------------------------------------------------------------
 #t hf aug-cc-pvdz symm=none int=(grid=ultrafine) guess=(read,tcheck) s
 table=(opt,rrhf)
 ----------------------------------------------------------------------
 -----
 title
 -----
 Symbolic Z-matrix:
 Charge =  0 Multiplicity = 1

 SCF Done:  E(RHF) =  -602.172151612     A.U. after   14 cycles
 Normal termination of Gaussian 16 at Tue Apr  8 23:16:47 2025.
 Gaussian 16:  ES64L-G16RevC.01  3-Jul-2019

 ----------------------------------------------------------------------
 #t hf aug-cc-pvdz iop(5/13=1,5/36=2,99/5=2) pseudo=read geom=check gue
 ss=(read,tcheck) scf=(maxcycle=1)
 ----------------------------------------------------------------------
 -----
 title
 -----
 Structure from the checkpoint file:  "BDE49_nonexpt_1000_mol1.chk"
 Charge =  0 Multiplicity = 1

                         Standard orientation:
 ---------------------------------------------------------------------
 Center     Atomic      Atomic             Coordinates (Angstroms)
 Number     Number       Type             X           Y           Z
 ---------------------------------------------------------------------
      1         16           0        1.267822   -0.090780   -0.000081
      2          7           0       -0.580278    0.003576   -0.000038
      3          8           0       -1.085596    1.099100   -0.000082
      4          8           0       -1.119352   -1.076296    0.000117
      5          1           0        1.416381    1.245002    0.001289
 ---------------------------------------------------------------------

 SCF Done:  E(RHF) =  -603.245321968     A.U. after    2 cycles

 The electronic state is 1-A.
 Alpha  occ. eigenvalues --  -75.78258 -21.12576 -21.12425 -16.03392 -13.21765
 Alpha  occ. eigenvalues --  -13.18164 -13.09038  -8.11867  -2.02329  -1.72760
 Alpha  occ. eigenvalues --   -1.21812  -0.91159  -0.71758  -0.69294  -0.64111
 Alpha  occ. eigenvalues --   -0.53312  -0.34715  -0.34041  -0.32962  -0.30864
 Alpha virt. eigenvalues --    0.02326   0.07086   0.09098   0.09436   0.11716
 Alpha virt. eigenvalues --    0.14963   0.15535   0.15846   0.18794   0.20290
 Alpha virt. eigenvalues --    0.20352   0.23135   0.23700   0.26672   0.27769

 Mulliken charges:
               1
     1  S   -0.282777
     2  N    4.467023
     3  O   -2.600686
     4  O   -2.562363
     5  H    0.978803
 Sum of Mulliken charges =   0.00000

 Dipole moment (field-independent basis, Debye):
    X=              2.7180    Y=             -0.8140    Z=             -0.0007  Tot=              2.8373

 Test job not archived.
 1\1\GINC-SE083\SP\RHF\Aug-CC-pVDZ\H1N1O2S1\OHZDE\08-Apr-2025\0\\#t hf
 aug-cc-pvdz iop(5/13=1,5/36=2,99/5=2) pseudo=read geom=check guess=(re
 ad,tcheck) scf=(maxcycle=1)\\title\\0,1\S,0,1.267822,-0.090779,-0.0000
 81\N,0,-0.580278,0.003576,-0.000038\O,0,-1.085596,1.0991,-0.000082\O,0
 ,-1.119352,-1.076296,0.000117\H,0,1.416381,1.245003,0.001289\\Version=
 ES64L-G16RevC.01\State=1-A\HF=-603.245322\RMSD=1.015e-01\Dipole=1.0693
 611,-0.320257,-0.0002624\Quadrupole=1.6332179,-0.3683304,-1.2648875,-0
 .080525,-0.0002733,0.0031019\PG=C01 [X(H1N1O2S1)]\\@

 Normal termination of Gaussian 16 at Tue Apr  8 23:16:50 2025.
