 Gaussian 16, Revision C.01,

 ----------------------------------------------------------------------
 #t hf aug-cc-pvdz symm=none int=(grid=ultrafine) guess=(read,tcheck) s
 table=(opt,rrhf)
 ----------------------------------------------------------------------
 -----
 title
 -----
 Symbolic Z-matrix:
 Charge =  0 Multiplicity = 1

 SCF Done:  E(RHF) =  -298.722596648     A.U. after   15 cycles
 Normal termination of Gaussian 16 at Tue Apr  8 23:07:46 2025.
 Gaussian 16:  ES64L-G16RevC.01  3-Jul-2019

 ----------------------------------------------------------------------
 #t hf aug-cc-pvdz iop(5/13=1,5/36=2,99/5=2) pseudo=read geom=check gue
 ss=(read,tcheck) scf=(maxcycle=1)
 ----------------------------------------------------------------------
 -----
 title
 -----
 Structure from the checkpoint file:  "BDE49_expt_408_mol1.chk"
 Charge =  0 Multiplicity = 1

                         Standard orientation:
 ---------------------------------------------------------------------
 Center     Atomic      Atomic             Coordinates (Angstroms)
 Number     Number       Type             X           Y           Z
 ---------------------------------------------------------------------
      1          7           0       -0.562246   -0.658866   -0.202688
      2          6           0       -1.815651    0.023541    0.087270
      3          1           0       -1.880358    0.368248    1.124688
      4          1           0       -2.617097   -0.687719   -0.114385
      5          1           0       -1.923296    0.878831   -0.576456
      6          7           0        0.615910    0.049660   -0.019917
      7          1           0       -0.427056   -1.602661    0.134813
      8          8           0        0.539186    1.268077   -0.027801
      9          8           0        1.631572   -0.622265    0.086046
 ---------------------------------------------------------------------

 SCF Done:  E(RHF) =  -300.022696217     A.U. after    2 cycles

 The electronic state is 1-A.
 Alpha  occ. eigenvalues --  -21.09533 -21.09109 -16.02458 -15.81394 -11.42757
 Alpha  occ. eigenvalues --   -2.01651  -1.70345  -1.44606  -1.07323  -0.88810
 Alpha  occ. eigenvalues --   -0.73945  -0.71758  -0.68480  -0.60925  -0.58443
 Alpha  occ. eigenvalues --   -0.56521  -0.40058  -0.36892  -0.32308  -0.31621
 Alpha virt. eigenvalues --    0.02864   0.05215   0.05647   0.06403   0.10368
 Alpha virt. eigenvalues --    0.13276   0.13898   0.14465   0.15195   0.15248
 Alpha virt. eigenvalues --    0.17321   0.18215   0.19547   0.20606   0.21606

 Mulliken charges:
               1
     1  N   -1.511848
     2  C   -3.040241
     3  H    1.281501
     4  H    1.329353
     5  H    1.391111
     6  N    5.437842
     7  H    0.804471
     8  O   -2.881463
     9  O   -2.810727
 Sum of Mulliken charges =  -0.00000

 Dipole moment (field-independent basis, Debye):
    X=             -2.7421    Y=             -1.0660    Z=              0.4879  Tot=              2.9822

 Test job not archived.
 1\1\GINC-SE106\SP\RHF\Aug-CC-pVDZ\C1H4N2O2\OHZDE\08-Apr-2025\0\\#t hf
 aug-cc-pvdz iop(5/13=1,5/36=2,99/5=2) pseudo=read geom=check guess=(re
 ad,tcheck) scf=(maxcycle=1)\\title\\0,1\N,0,-0.562246,-0.658866,-0.202
 688\C,0,-1.815651,0.023541,0.08727\H,0,-1.880358,0.368248,1.124688\H,0
 ,-2.617097,-0.687719,-0.114385\H,0,-1.923296,0.878831,-0.576456\N,0,0.
 61591,0.04966,-0.019917\H,0,-0.427056,-1.602661,0.134813\O,0,0.539186,
 1.268077,-0.027801\O,0,1.631572,-0.622265,0.086046\\Version=ES64L-G16R
 evC.01\State=1-A\HF=-300.0226962\RMSD=8.882e-02\Dipole=-1.0788312,-0.4

 Normal termination of Gaussian 16 at Tue Apr  8 23:07:49 2025.
