 Gaussian 16, Revision C.01,

 ----------------------------------------------------------------------
 #t hf aug-cc-pvdz symm=none int=(grid=ultrafine) guess=(read,tcheck) s
 table=(opt,rrhf)
 ----------------------------------------------------------------------
 -----
 title
 -----
 Symbolic Z-matrix:
 Charge =  0 Multiplicity = 1

 SCF Done:  E(RHF) =  -263.170603944     A.U. after   12 cycles
 Normal termination of Gaussian 16 at Wed Apr  9 00:34:57 2025.
 Gaussian 16:  ES64L-G16RevC.01  3-Jul-2019

 ----------------------------------------------------------------------
 #t hf aug-cc-pvdz iop(5/13=1,5/36=2,99/5=2) pseudo=read geom=check gue
 ss=(read,tcheck) scf=(maxcycle=1)
 ----------------------------------------------------------------------
 -----
 title
 -----
 Structure from the checkpoint file:  "BDE49_nonexpt_456_mol1.chk"
 Charge =  0 Multiplicity = 1

                         Standard orientation:
 ---------------------------------------------------------------------
 Center     Atomic      Atomic             Coordinates (Angstroms)
 Number     Number       Type             X           Y           Z
 ---------------------------------------------------------------------
      1          1           0        2.302237   -0.520584    0.564066
      2          1           0        1.337333   -1.265655   -1.115860
      3          5           0        1.318476   -0.690365   -0.078837
      4          6           0       -0.041499   -0.033229    0.396149
      5          9           0        0.073289    1.228491   -0.199142
      6          9           0       -1.157468   -0.638621   -0.122160
      7          1           0       -0.225351    0.128609    1.460809
 ---------------------------------------------------------------------

 SCF Done:  E(RHF) =  -264.154284517     A.U. after    2 cycles

 The electronic state is 1-A.
 Alpha  occ. eigenvalues --  -29.27938 -29.27843 -11.47750  -7.64075  -1.28846
 Alpha  occ. eigenvalues --   -0.88109  -0.77795  -0.72547  -0.57852  -0.50462
 Alpha  occ. eigenvalues --   -0.43667  -0.37789  -0.30284  -0.29735  -0.24002
 Alpha  occ. eigenvalues --   -0.22118
 Alpha virt. eigenvalues --    0.02803   0.03806   0.04386   0.05935   0.08798
 Alpha virt. eigenvalues --    0.10403   0.11125   0.13081   0.13603   0.15391
 Alpha virt. eigenvalues --    0.17286   0.22087   0.23482   0.24274   0.25050

 Mulliken charges:
               1
     1  H   -2.803577
     2  H   -2.742371
     3  B    7.098450
     4  C   -3.147904
     5  F    0.067805
     6  F    0.068642
     7  H    1.458955
 Sum of Mulliken charges =  -0.00000

 Dipole moment (field-independent basis, Debye):
    X=             -1.2563    Y=              0.8592    Z=             -0.5789  Tot=              1.6284

 Test job not archived.
 1\1\GINC-SE058\SP\RHF\Aug-CC-pVDZ\C1H3B1F2\OHZDE\09-Apr-2025\0\\#t hf
 aug-cc-pvdz iop(5/13=1,5/36=2,99/5=2) pseudo=read geom=check guess=(re
 ad,tcheck) scf=(maxcycle=1)\\title\\0,1\H,0,2.302238,-0.520582,0.56406
 6\H,0,1.337335,-1.265654,-1.11586\B,0,1.318477,-0.690364,-0.078837\C,0
 ,-0.041499,-0.033229,0.396149\F,0,0.073288,1.228491,-0.199142\F,0,-1.1
 57467,-0.638623,-0.12216\H,0,-0.225351,0.128608,1.460809\\Version=ES64
 L-G16RevC.01\State=1-A\HF=-264.1542845\RMSD=1.715e-01\Dipole=-0.494279
 3,0.3380515,-0.2277522\Quadrupole=-1.2143524,1.4117135,-0.1973611,0.39

 Normal termination of Gaussian 16 at Wed Apr  9 00:34:59 2025.
