 Gaussian 16, Revision C.01,

 ----------------------------------------------------------------------
 #t hf aug-cc-pvdz symm=none int=(grid=ultrafine) guess=(read,tcheck) s
 table=(opt,rrhf)
 ----------------------------------------------------------------------
 -----
 title
 -----
 Symbolic Z-matrix:
 Charge =  0 Multiplicity = 1

 SCF Done:  E(RHF) =  -734.289520876     A.U. after   14 cycles
 Normal termination of Gaussian 16 at Wed Apr  9 00:21:08 2025.
 Gaussian 16:  ES64L-G16RevC.01  3-Jul-2019

 ----------------------------------------------------------------------
 #t hf aug-cc-pvdz iop(5/13=1,5/36=2,99/5=2) pseudo=read geom=check gue
 ss=(read,tcheck) scf=(maxcycle=1)
 ----------------------------------------------------------------------
 -----
 title
 -----
 Structure from the checkpoint file:  "BDE49_nonexpt_2623_mol1.chk"
 Charge =  0 Multiplicity = 1

                         Standard orientation:
 ---------------------------------------------------------------------
 Center     Atomic      Atomic             Coordinates (Angstroms)
 Number     Number       Type             X           Y           Z
 ---------------------------------------------------------------------
      1          9           0       -1.854559    0.525995    0.309332
      2         16           0       -0.807605   -0.624226   -0.285574
      3          6           0        0.715237    0.142329    0.344561
      4          9           0        1.677741   -0.802046    0.167455
      5          9           0        1.066876    1.245704   -0.354184
      6          1           0        0.619732    0.406766    1.398393
 ---------------------------------------------------------------------

 SCF Done:  E(RHF) =  -735.697011612     A.U. after    2 cycles

 The electronic state is 1-A.
 Alpha  occ. eigenvalues --  -75.78606 -29.32363 -29.31406 -29.29804 -13.22307
 Alpha  occ. eigenvalues --  -13.17394 -13.09706 -11.55389  -8.12743  -1.37625
 Alpha  occ. eigenvalues --   -1.15932  -0.84809  -0.78697  -0.72688  -0.59252
 Alpha  occ. eigenvalues --   -0.47513  -0.44123  -0.41336  -0.38954  -0.34927
 Alpha  occ. eigenvalues --   -0.32728  -0.32164  -0.25336  -0.24050  -0.19186
 Alpha virt. eigenvalues --    0.04430   0.06610   0.10737   0.11300   0.12210
 Alpha virt. eigenvalues --    0.13112   0.13546   0.17768   0.18519   0.21299
 Alpha virt. eigenvalues --    0.23763   0.24634   0.25708   0.28118   0.28962

 Mulliken charges:
               1
     1  F   -0.236779
     2  S    0.633208
     3  C   -2.876225
     4  F    0.517163
     5  F    0.514851
     6  H    1.447782
 Sum of Mulliken charges =   0.00000

 Dipole moment (field-independent basis, Debye):
    X=              0.0408    Y=              1.5971    Z=             -0.3527  Tot=              1.6361

 Test job not archived.
 1\1\GINC-SE179\SP\RHF\Aug-CC-pVDZ\C1H1F3S1\OHZDE\09-Apr-2025\0\\#t hf
 aug-cc-pvdz iop(5/13=1,5/36=2,99/5=2) pseudo=read geom=check guess=(re
 ad,tcheck) scf=(maxcycle=1)\\title\\0,1\F,0,-1.854559,0.525994,0.30933
 2\S,0,-0.807605,-0.624226,-0.285574\C,0,0.715237,0.142329,0.344561\F,0
 ,1.677741,-0.802046,0.167455\F,0,1.066875,1.245704,-0.354184\H,0,0.619
 732,0.406766,1.398393\\Version=ES64L-G16RevC.01\State=1-A\HF=-735.6970
 116\RMSD=6.481e-02\Dipole=0.0160448,0.6283399,-0.1387672\Quadrupole=3.
 5298284,-1.2179401,-2.3118883,-0.9791428,-0.1022622,0.6322566\PG=C01 [

 Normal termination of Gaussian 16 at Wed Apr  9 00:21:10 2025.
