 Gaussian 16, Revision C.01,

 ----------------------------------------------------------------------
 #t hf aug-cc-pvdz symm=none int=(grid=ultrafine) guess=(read,tcheck) s
 table=opt
 ----------------------------------------------------------------------
 -----
 title
 -----
 Symbolic Z-matrix:
 Charge =  0 Multiplicity = 2

 SCF Done:  E(UHF) =  -492.159857902     A.U. after   20 cycles
 Normal termination of Gaussian 16 at Wed Apr  9 00:16:37 2025.
 Gaussian 16:  ES64L-G16RevC.01  3-Jul-2019

 ----------------------------------------------------------------------
 #t hf aug-cc-pvdz iop(5/13=1,5/36=2,99/5=2) pseudo=read geom=check gue
 ss=(read,tcheck) scf=(maxcycle=1)
 ----------------------------------------------------------------------
 -----
 title
 -----
 Structure from the checkpoint file:  "BDE49_nonexpt_2528_mol2.chk"
 Charge =  0 Multiplicity = 2

                         Standard orientation:
 ---------------------------------------------------------------------
 Center     Atomic      Atomic             Coordinates (Angstroms)
 Number     Number       Type             X           Y           Z
 ---------------------------------------------------------------------
      1          7           0        0.367003    0.509689   -0.027445
      2         16           0       -1.149378   -0.132908    0.003344
      3          6           0        1.601886   -0.261008    0.004750
      4          1           0        0.457749    1.511024    0.085653
      5          1           0        1.408513   -1.249810   -0.408981
      6          1           0        1.975964   -0.375022    1.029206
      7          1           0        2.367482    0.238560   -0.595772
 ---------------------------------------------------------------------

 SCF Done:  E(UHF) =  -492.824733475     A.U. after    2 cycles

 The electronic state is 2-A.
 Alpha  occ. eigenvalues --  -75.69560 -15.78577 -13.17158 -13.03300 -13.02185
 Alpha  occ. eigenvalues --  -11.40375  -8.03314  -1.42491  -1.07457  -0.92262
 Alpha  occ. eigenvalues --   -0.66864  -0.62648  -0.57546  -0.49419  -0.45333
 Alpha  occ. eigenvalues --   -0.24268  -0.22654
 Alpha virt. eigenvalues --    0.02787   0.05094   0.05886   0.06388   0.08294
 Alpha virt. eigenvalues --    0.10935   0.13859   0.14242   0.15040   0.16363
 Alpha virt. eigenvalues --    0.17593   0.19041   0.20228   0.21817   0.23891

  Beta  occ. eigenvalues --  -75.68809 -15.77148 -13.16980 -13.02847 -12.97493
  Beta  occ. eigenvalues --  -11.40494  -8.02470  -1.39413  -1.04776  -0.88175
  Beta  occ. eigenvalues --   -0.65716  -0.60328  -0.56834  -0.47413  -0.37193
  Beta  occ. eigenvalues --   -0.23208
  Beta virt. eigenvalues --    0.02793   0.05123   0.05665   0.06372   0.07915
  Beta virt. eigenvalues --    0.08711   0.10980   0.13959   0.15070   0.16222
  Beta virt. eigenvalues --    0.17602   0.18951   0.19622   0.20492   0.22623

 Mulliken charges and spin densities:
               1          2
     1  N   -2.100706   0.230082
     2  S    0.833947   0.835757
     3  C   -3.054235  -0.045106
     4  H    0.585614  -0.031302
     5  H    1.321360  -0.006767
     6  H    1.212334   0.009994
     7  H    1.201686   0.007342
 Sum of Mulliken charges =  -0.00000   1.00000

 Dipole moment (field-independent basis, Debye):
    X=              0.8991    Y=              0.4413    Z=              0.0922  Tot=              1.0058
                          Isotropic Fermi Contact Couplings
        Atom                 a.u.       MegaHertz       Gauss      10(-4) cm-1
     1  N(14)              0.10677      34.49686      12.30934      11.50691
     2  S(33)              0.28403      97.55588      34.81036      32.54114
     3  C(13)             -0.01379     -15.50063      -5.53101      -5.17045
     4  H(1)              -0.00719     -32.16056     -11.47569     -10.72761
     5  H(1)               0.00121       5.43039       1.93770       1.81138
     6  H(1)               0.00518      23.17195       8.26833       7.72933
     7  H(1)               0.00195       8.71402       3.10938       2.90668
 --------------------------------------------------------

 Normal termination of Gaussian 16 at Wed Apr  9 00:16:39 2025.
