 Gaussian 16, Revision C.01,

 ----------------------------------------------------------------------
 #t hf aug-cc-pvdz symm=none int=(grid=ultrafine) guess=(read,tcheck) s
 table=(opt,rrhf)
 ----------------------------------------------------------------------
 -----
 title
 -----
 Symbolic Z-matrix:
 Charge =  0 Multiplicity = 1

 SCF Done:  E(RHF) =  -592.846688187     A.U. after   13 cycles
 Normal termination of Gaussian 16 at Tue Apr  8 23:59:32 2025.
 Gaussian 16:  ES64L-G16RevC.01  3-Jul-2019

 ----------------------------------------------------------------------
 #t hf aug-cc-pvdz iop(5/13=1,5/36=2,99/5=2) pseudo=read geom=check gue
 ss=(read,tcheck) scf=(maxcycle=1)
 ----------------------------------------------------------------------
 -----
 title
 -----
 Structure from the checkpoint file:  "BDE49_nonexpt_2073_mol1.chk"
 Charge =  0 Multiplicity = 1

                         Standard orientation:
 ---------------------------------------------------------------------
 Center     Atomic      Atomic             Coordinates (Angstroms)
 Number     Number       Type             X           Y           Z
 ---------------------------------------------------------------------
      1         14           0       -2.202466   -0.000309    0.000026
      2          8           0       -0.662708   -0.709182   -0.000027
      3          6           0        0.433206    0.060355   -0.000066
      4          8           0        0.424167    1.267928   -0.000004
      5          8           0        1.518213   -0.713695   -0.000022
      6          6           0        2.771766   -0.005672    0.000032
      7          1           0        2.856881    0.619913   -0.889509
      8          1           0        3.536862   -0.778309    0.000062
      9          1           0        2.856808    0.619909    0.889583
     10          1           0       -3.102562   -1.166250    0.000061
     11          1           0       -2.390386    0.810271   -1.216804
     12          1           0       -2.390300    0.810277    1.216866
 ---------------------------------------------------------------------

 SCF Done:  E(RHF) =  -594.273400005     A.U. after    2 cycles

 The electronic state is 1-A.
 Alpha  occ. eigenvalues --  -76.25512 -21.10513 -21.09440 -21.05496 -11.54620
 Alpha  occ. eigenvalues --  -11.42466  -5.58929  -2.25127  -2.20846  -2.20593
 Alpha  occ. eigenvalues --   -1.90163  -1.72407  -1.66263  -1.03398  -0.82954
 Alpha  occ. eigenvalues --   -0.72889  -0.68310  -0.65654  -0.61458  -0.58197
 Alpha  occ. eigenvalues --   -0.55692  -0.49176  -0.48563  -0.45452  -0.40623
 Alpha  occ. eigenvalues --   -0.37728  -0.33566  -0.31148
 Alpha virt. eigenvalues --    0.03386   0.04976   0.05331   0.05676   0.06943
 Alpha virt. eigenvalues --    0.07063   0.07160   0.09350   0.09852   0.11056
 Alpha virt. eigenvalues --    0.13454   0.14095   0.14284   0.15094   0.15616

 Mulliken charges:
               1
     1  Si   5.988442
     2  O   -2.878322
     3  C    6.234847
     4  O   -2.368569
     5  O   -3.000491
     6  C   -2.977401
     7  H    1.295187
     8  H    1.336221
     9  H    1.295206
    10  H   -1.622180
    11  H   -1.651480
    12  H   -1.651460
 Sum of Mulliken charges =   0.00000

 Dipole moment (field-independent basis, Debye):
    X=              0.9941    Y=             -0.8763    Z=              0.0001  Tot=              1.3252

 Test job not archived.
 1\1\GINC-SE336\SP\RHF\Aug-CC-pVDZ\C2H6O3Si1\OHZDE\08-Apr-2025\0\\#t hf
  aug-cc-pvdz iop(5/13=1,5/36=2,99/5=2) pseudo=read geom=check guess=(r
 ead,tcheck) scf=(maxcycle=1)\\title\\0,1\Si,0,2.202466,-0.000309,-0.00
 0026\O,0,0.662708,-0.709182,0.000027\C,0,-0.433206,0.060355,0.000066\O
 ,0,-0.424167,1.267928,0.000004\O,0,-1.518213,-0.713695,0.000022\C,0,-2
 .771766,-0.005672,-0.000032\H,0,-2.856881,0.619913,0.889509\H,0,-3.536
 862,-0.778309,-0.000062\H,0,-2.856808,0.619909,-0.889583\H,0,3.102562,
 -1.16625,-0.000061\H,0,2.390386,0.810271,1.216804\H,0,2.3903,0.810277,

 Normal termination of Gaussian 16 at Tue Apr  8 23:59:36 2025.
