 Gaussian 16, Revision C.01,

 ----------------------------------------------------------------------
 #t hf aug-cc-pvdz symm=none int=(grid=ultrafine) guess=(read,tcheck) s
 table=opt
 ----------------------------------------------------------------------
 -----
 title
 -----
 Symbolic Z-matrix:
 Charge =  0 Multiplicity = 2

 SCF Done:  E(UHF) =  -423.340847415     A.U. after   15 cycles
 Normal termination of Gaussian 16 at Wed Apr  9 00:34:45 2025.
 Gaussian 16:  ES64L-G16RevC.01  3-Jul-2019

 ----------------------------------------------------------------------
 #t hf aug-cc-pvdz iop(5/13=1,5/36=2,99/5=2) pseudo=read geom=check gue
 ss=(read,tcheck) scf=(maxcycle=1)
 ----------------------------------------------------------------------
 -----
 title
 -----
 Structure from the checkpoint file:  "BDE49_nonexpt_449_mol2.chk"
 Charge =  0 Multiplicity = 2

                         Standard orientation:
 ---------------------------------------------------------------------
 Center     Atomic      Atomic             Coordinates (Angstroms)
 Number     Number       Type             X           Y           Z
 ---------------------------------------------------------------------
      1          1           0       -2.114194    0.654688    0.000003
      2         16           0        0.482037   -0.069581   -0.000002
      3          5           0       -1.259912   -0.163097    0.000004
      4          1           0        0.701168    1.274084    0.000000
 ---------------------------------------------------------------------

 SCF Done:  E(UHF) =  -423.661889057     A.U. after    2 cycles

 The electronic state is 2-A.
 Alpha  occ. eigenvalues --  -75.70718 -13.15727 -13.09496 -13.03531  -8.04670
 Alpha  occ. eigenvalues --   -7.65740  -1.16907  -0.74714  -0.56268  -0.37854
 Alpha  occ. eigenvalues --   -0.32041  -0.31633
 Alpha virt. eigenvalues --    0.02440   0.03324   0.04307   0.05087   0.09820
 Alpha virt. eigenvalues --    0.10015   0.12229   0.13065   0.15823   0.16515
 Alpha virt. eigenvalues --    0.18414   0.21752   0.22479   0.26044   0.27926

  Beta  occ. eigenvalues --  -75.70788 -13.15989 -13.09630 -13.03778  -8.04712
  Beta  occ. eigenvalues --   -7.63860  -1.15867  -0.69477  -0.53349  -0.36764
  Beta  occ. eigenvalues --   -0.31083
  Beta virt. eigenvalues --    0.02113   0.02784   0.04060   0.04383   0.08538
  Beta virt. eigenvalues --    0.10228   0.11668   0.12759   0.14311   0.16685
  Beta virt. eigenvalues --    0.16904   0.18785   0.22586   0.23278   0.27695

 Mulliken charges and spin densities:
               1          2
     1  H   -1.168335  -0.021577
     2  S   -1.737977  -0.183110
     3  B    1.971796   1.099857
     4  H    0.934515   0.104830
 Sum of Mulliken charges =  -0.00000   1.00000

 Dipole moment (field-independent basis, Debye):
    X=              1.8024    Y=             -0.1179    Z=             -0.0000  Tot=              1.8063
                          Isotropic Fermi Contact Couplings
        Atom                 a.u.       MegaHertz       Gauss      10(-4) cm-1
     1  H(1)               0.00360      16.09465       5.74297       5.36860
     2  S(33)              0.39450     135.49905      48.34943      45.19762
     3  B(11)              0.16142     231.53677      82.61808      77.23235
     4  H(1)               0.02717     121.44517      43.33466      40.50975
 --------------------------------------------------------
       Center         ----  Spin Dipole Couplings  ----
                      3XX-RR        3YY-RR        3ZZ-RR
 --------------------------------------------------------

 Normal termination of Gaussian 16 at Wed Apr  9 00:34:46 2025.
