 Gaussian 16, Revision C.01,

 ----------------------------------------------------------------------
 #t hf aug-cc-pvdz symm=none int=(grid=ultrafine) guess=(read,tcheck) s
 table=(opt,rrhf)
 ----------------------------------------------------------------------
 -----
 title
 -----
 Symbolic Z-matrix:
 Charge =  0 Multiplicity = 1

 SCF Done:  E(RHF) =  -650.651113802     A.U. after   14 cycles
 Normal termination of Gaussian 16 at Tue Apr  8 23:05:16 2025.
 Gaussian 16:  ES64L-G16RevC.01  3-Jul-2019

 ----------------------------------------------------------------------
 #t hf aug-cc-pvdz iop(5/13=1,5/36=2,99/5=2) pseudo=read geom=check gue
 ss=(read,tcheck) scf=(maxcycle=1)
 ----------------------------------------------------------------------
 -----
 title
 -----
 Structure from the checkpoint file:  "BDE49_expt_331_mol1.chk"
 Charge =  0 Multiplicity = 1

                         Standard orientation:
 ---------------------------------------------------------------------
 Center     Atomic      Atomic             Coordinates (Angstroms)
 Number     Number       Type             X           Y           Z
 ---------------------------------------------------------------------
      1          6           0        0.000242   -0.000058   -0.547785
      2          7           0        1.435409    0.065947   -0.043155
      3          7           0       -0.774622    1.209793   -0.043250
      4          8           0        1.668438    0.787795    0.898275
      5          8           0        2.195576   -0.654941   -0.655389
      6          8           0       -1.516486    1.050590    0.897999
      7          8           0       -0.530801    2.228463   -0.655801
      8          7           0       -0.660230   -1.276052   -0.043492
      9          1           0        0.000346    0.000040   -1.631272
     10          8           0       -1.665113   -1.573235   -0.655253
     11          8           0       -0.152326   -1.838361    0.898577
 ---------------------------------------------------------------------

 SCF Done:  E(RHF) =  -653.355784056     A.U. after    2 cycles

 The electronic state is 1-A.
 Alpha  occ. eigenvalues --  -21.17002 -21.16944 -21.16944 -21.16397 -21.16397
 Alpha  occ. eigenvalues --  -21.16391 -16.07571 -16.07570 -16.07528 -11.61043
 Alpha  occ. eigenvalues --   -2.09692  -2.05417  -2.05416  -1.76989  -1.76989
 Alpha  occ. eigenvalues --   -1.76710  -1.36697  -1.06500  -1.06497  -0.88263
 Alpha  occ. eigenvalues --   -0.81262  -0.80441  -0.80436  -0.71181  -0.71181
 Alpha  occ. eigenvalues --   -0.67554  -0.66909  -0.66908  -0.64243  -0.47732
 Alpha  occ. eigenvalues --   -0.41773  -0.41771  -0.40320  -0.37348  -0.37345
 Alpha  occ. eigenvalues --   -0.37126  -0.35682  -0.35678
 Alpha virt. eigenvalues --    0.03611   0.07572   0.07580   0.08147   0.09967
 Alpha virt. eigenvalues --    0.09968   0.12082   0.14074   0.14089   0.14090
 Alpha virt. eigenvalues --    0.14566   0.14567   0.14914   0.18207   0.19603

 Mulliken charges:
               1
     1  C    0.638488
     2  N    4.689904
     3  N    4.689467
     4  O   -2.846936
     5  O   -2.882863
     6  O   -2.846883
     7  O   -2.882629
     8  N    4.690535
     9  H    2.481195
    10  O   -2.883136
    11  O   -2.847141
 Sum of Mulliken charges =  -0.00000

 Dipole moment (field-independent basis, Debye):
    X=             -0.0008    Y=              0.0002    Z=             -0.6624  Tot=              0.6624

 Test job not archived.
 1\1\GINC-SE126\SP\RHF\Aug-CC-pVDZ\C1H1N3O6\OHZDE\08-Apr-2025\0\\#t hf
 aug-cc-pvdz iop(5/13=1,5/36=2,99/5=2) pseudo=read geom=check guess=(re
 ad,tcheck) scf=(maxcycle=1)\\title\\0,1\C,0,0.000242,-0.000058,-0.5477
 85\N,0,1.435408,0.065972,-0.043155\N,0,-0.774643,1.209779,-0.04325\O,0
 ,1.668424,0.787824,0.898275\O,0,2.195587,-0.654903,-0.655389\O,0,-1.51
 6504,1.050564,0.897999\O,0,-0.530839,2.228454,-0.655801\N,0,-0.660208,
 -1.276064,-0.043492\H,0,0.000346,0.00004,-1.631272\O,0,-1.665086,-1.57
 3264,-0.655253\O,0,-0.152294,-1.838364,0.898577\\Version=ES64L-G16RevC

 Normal termination of Gaussian 16 at Tue Apr  8 23:05:23 2025.
