 Gaussian 16, Revision C.01,

 ----------------------------------------------------------------------
 #t hf aug-cc-pvdz symm=none int=(grid=ultrafine) guess=(read,tcheck) s
 table=(opt,rrhf)
 ----------------------------------------------------------------------
 -----
 title
 -----
 Symbolic Z-matrix:
 Charge =  0 Multiplicity = 1

 SCF Done:  E(RHF) =  -711.520698769     A.U. after   12 cycles
 Normal termination of Gaussian 16 at Wed Apr  9 00:17:35 2025.
 Gaussian 16:  ES64L-G16RevC.01  3-Jul-2019

 ----------------------------------------------------------------------
 #t hf aug-cc-pvdz iop(5/13=1,5/36=2,99/5=2) pseudo=read geom=check gue
 ss=(read,tcheck) scf=(maxcycle=1)
 ----------------------------------------------------------------------
 -----
 title
 -----
 Structure from the checkpoint file:  "BDE49_nonexpt_254_mol1.chk"
 Charge =  0 Multiplicity = 1

                         Standard orientation:
 ---------------------------------------------------------------------
 Center     Atomic      Atomic             Coordinates (Angstroms)
 Number     Number       Type             X           Y           Z
 ---------------------------------------------------------------------
      1         17           0       -2.423957   -0.000000    0.062533
      2          7           0        0.076886   -1.222755   -0.068898
      3          7           0        0.076886    1.222755   -0.068898
      4          6           0        1.533369   -1.272475   -0.182411
      5          6           0        2.151063    0.000000    0.409351
      6          6           0        1.533369    1.272475   -0.182412
      7          5           0       -0.617934    0.000000   -0.035039
      8          1           0       -0.413363   -2.101429   -0.082631
      9          1           0       -0.413363    2.101429   -0.082631
     10          1           0        1.915785    2.144952    0.356520
     11          1           0        1.843640    1.382058   -1.231495
     12          1           0        3.230433    0.000000    0.232538
     13          1           0        1.991179    0.000000    1.492211
     14          1           0        1.843641   -1.382058   -1.231494
     15          1           0        1.915785   -2.144952    0.356520
 ---------------------------------------------------------------------

 SCF Done:  E(RHF) =  -712.966387163     A.U. after    2 cycles

 The electronic state is 1-A.
 Alpha  occ. eigenvalues --  -99.85972 -15.70002 -15.69937 -11.43685 -11.42808
 Alpha  occ. eigenvalues --  -11.36936 -10.43242  -9.63230  -9.62821  -9.62606
 Alpha  occ. eigenvalues --   -7.64910  -1.46962  -1.30294  -1.28941  -1.13935
 Alpha  occ. eigenvalues --   -0.95497  -0.87647  -0.76557  -0.70127  -0.64396
 Alpha  occ. eigenvalues --   -0.61260  -0.59480  -0.58430  -0.55357  -0.53587
 Alpha  occ. eigenvalues --   -0.49240  -0.48648  -0.45889  -0.42338  -0.39858
 Alpha  occ. eigenvalues --   -0.32363
 Alpha virt. eigenvalues --    0.03247   0.04182   0.04972   0.05104   0.05853
 Alpha virt. eigenvalues --    0.06306   0.06516   0.06777   0.07112   0.09025
 Alpha virt. eigenvalues --    0.09409   0.11003   0.12719   0.12759   0.14148

 Mulliken charges:
               1
     1  Cl  -1.583960
     2  N   -3.121063
     3  N   -3.121062
     4  C   -1.768145
     5  C   -2.299735
     6  C   -1.768148
     7  B    3.608679
     8  H    0.953043
     9  H    0.953043
    10  H    1.415654
    11  H    1.373329
    12  H    1.370046
    13  H    1.199334
    14  H    1.373329
    15  H    1.415655
 Sum of Mulliken charges =  -0.00000

 Dipole moment (field-independent basis, Debye):
    X=              2.8148    Y=             -0.0000    Z=             -0.1663  Tot=              2.8197

 Test job not archived.
 1\1\GINC-SE179\SP\RHF\Aug-CC-pVDZ\C3H8B1Cl1N2\OHZDE\09-Apr-2025\0\\#t
 hf aug-cc-pvdz iop(5/13=1,5/36=2,99/5=2) pseudo=read geom=check guess=
 (read,tcheck) scf=(maxcycle=1)\\title\\0,1\Cl,0,2.423957,0.,0.062533\N
 ,0,-0.076886,1.222755,-0.068898\N,0,-0.076886,-1.222755,-0.068898\C,0,
 -1.533369,1.272475,-0.182411\C,0,-2.151063,0.,0.409351\C,0,-1.533369,-
 1.272475,-0.182412\B,0,0.617934,0.,-0.035039\H,0,0.413363,2.101429,-0.
 082631\H,0,0.413363,-2.101429,-0.082631\H,0,-1.915785,-2.144952,0.3565
 2\H,0,-1.84364,-1.382058,-1.231495\H,0,-3.230433,0.,0.232538\H,0,-1.99

 Normal termination of Gaussian 16 at Wed Apr  9 00:17:41 2025.
