 Gaussian 16, Revision C.01,

 ----------------------------------------------------------------------
 #t hf aug-cc-pvdz symm=none int=(grid=ultrafine) guess=(read,tcheck) s
 table=opt
 ----------------------------------------------------------------------
 -----
 title
 -----
 Symbolic Z-matrix:
 Charge =  0 Multiplicity = 2

 SCF Done:  E(UHF) =  -564.645131786     A.U. after   24 cycles
 Normal termination of Gaussian 16 at Wed Apr  9 00:19:35 2025.
 Gaussian 16:  ES64L-G16RevC.01  3-Jul-2019

 ----------------------------------------------------------------------
 #t hf aug-cc-pvdz iop(5/13=1,5/36=2,99/5=2) pseudo=read geom=check gue
 ss=(read,tcheck) scf=(maxcycle=1)
 ----------------------------------------------------------------------
 -----
 title
 -----
 Structure from the checkpoint file:  "BDE49_nonexpt_2582_mol2.chk"
 Charge =  0 Multiplicity = 2

                         Standard orientation:
 ---------------------------------------------------------------------
 Center     Atomic      Atomic             Coordinates (Angstroms)
 Number     Number       Type             X           Y           Z
 ---------------------------------------------------------------------
      1         16           0       -1.405583   -0.257625    0.000000
      2          6           0        1.155843    0.122723    0.000000
      3          7           0        2.222038   -0.325577    0.000000
      4          8           0        0.000000    0.708087    0.000000
 ---------------------------------------------------------------------

 SCF Done:  E(UHF) =  -565.516371551     A.U. after    2 cycles

 The electronic state is 2-A".
 Alpha  occ. eigenvalues --  -75.81607 -21.19833 -15.77439 -13.24323 -13.13995
 Alpha  occ. eigenvalues --  -13.13826 -11.49345  -8.14671  -1.88524  -1.30608
 Alpha  occ. eigenvalues --   -1.12528  -0.74254  -0.62052  -0.61443  -0.54076
 Alpha  occ. eigenvalues --   -0.43984  -0.41237  -0.30947  -0.30271
 Alpha virt. eigenvalues --    0.03366   0.04888   0.09866   0.10111   0.11679
 Alpha virt. eigenvalues --    0.12813   0.13488   0.14918   0.18902   0.19543
 Alpha virt. eigenvalues --    0.20232   0.20837   0.21335   0.23872   0.27006

  Beta  occ. eigenvalues --  -75.80614 -21.19420 -15.77349 -13.23916 -13.13258
  Beta  occ. eigenvalues --  -13.07891 -11.49429  -8.13562  -1.87550  -1.30332
  Beta  occ. eigenvalues --   -1.04163  -0.72912  -0.60675  -0.59905  -0.53897
  Beta  occ. eigenvalues --   -0.40925  -0.39989  -0.28844
  Beta virt. eigenvalues --    0.01058   0.03812   0.05162   0.10217   0.11511
  Beta virt. eigenvalues --    0.11758   0.12945   0.15162   0.15390   0.19034
  Beta virt. eigenvalues --    0.20700   0.20783   0.21876   0.22172   0.24132

 Mulliken charges and spin densities:
               1          2
     1  S    0.952809   0.960200
     2  C    3.569391  -0.024114
     3  N   -2.285183   0.040205
     4  O   -2.237017   0.023709
 Sum of Mulliken charges =   0.00000   1.00000

 Dipole moment (field-independent basis, Debye):
    X=             -4.1752    Y=              0.2774    Z=              0.0000  Tot=              4.1844
                          Isotropic Fermi Contact Couplings
        Atom                 a.u.       MegaHertz       Gauss      10(-4) cm-1
     1  S(33)              0.28608      98.26132      35.06208      32.77645
     2  C(13)             -0.00654      -7.35474      -2.62435      -2.45328
     3  N(14)              0.00545       1.76210       0.62876       0.58777
     4  O(17)              0.02524     -15.29910      -5.45910      -5.10323
 --------------------------------------------------------
       Center         ----  Spin Dipole Couplings  ----
                      3XX-RR        3YY-RR        3ZZ-RR
 --------------------------------------------------------

 Normal termination of Gaussian 16 at Wed Apr  9 00:19:36 2025.
