 Gaussian 16, Revision C.01,

 ----------------------------------------------------------------------
 #t hf aug-cc-pvdz symm=none int=(grid=ultrafine) guess=(read,tcheck) s
 table=(opt,rrhf)
 ----------------------------------------------------------------------
 -----
 title
 -----
 Symbolic Z-matrix:
 Charge =  0 Multiplicity = 1

 SCF Done:  E(RHF) =  -1707.03846969     A.U. after   12 cycles
 Normal termination of Gaussian 16 at Tue Apr  8 23:57:24 2025.
 Gaussian 16:  ES64L-G16RevC.01  3-Jul-2019

 ----------------------------------------------------------------------
 #t hf aug-cc-pvdz iop(5/13=1,5/36=2,99/5=2) pseudo=read geom=check gue
 ss=(read,tcheck) scf=(maxcycle=1)
 ----------------------------------------------------------------------
 -----
 title
 -----
 Structure from the checkpoint file:  "BDE49_nonexpt_2026_mol1.chk"
 Charge =  0 Multiplicity = 1

                         Standard orientation:
 ---------------------------------------------------------------------
 Center     Atomic      Atomic             Coordinates (Angstroms)
 Number     Number       Type             X           Y           Z
 ---------------------------------------------------------------------
      1         14           0       -1.878092    0.000110   -0.000150
      2          6           0        0.041784    0.000019   -0.000021
      3         17           0        0.646671   -0.339821    1.663166
      4         17           0        0.647004    1.610184   -0.537250
      5         17           0        0.646865   -1.270481   -1.125754
      6          1           0       -2.315545    1.054507    0.933705
      7          1           0       -2.315601   -1.335826    0.446012
      8          1           0       -2.315444    0.281682   -1.380235
 ---------------------------------------------------------------------

 SCF Done:  E(RHF) =  -1708.12424167     A.U. after    2 cycles

 The electronic state is 1-A.
 Alpha  occ. eigenvalues --  -99.91764 -99.91764 -99.91745 -76.25235 -11.52676
 Alpha  occ. eigenvalues --  -10.49308 -10.48899 -10.48899  -9.68952  -9.68952
 Alpha  occ. eigenvalues --   -9.68831  -9.68222  -9.68222  -9.68161  -9.68126
 Alpha  occ. eigenvalues --   -9.68033  -9.68033  -5.58695  -2.22110  -2.21031
 Alpha  occ. eigenvalues --   -2.21031  -1.44452  -1.30326  -1.30325  -0.98035
 Alpha  occ. eigenvalues --   -0.80736  -0.69827  -0.69826  -0.64296  -0.56536
 Alpha  occ. eigenvalues --   -0.56536  -0.51586  -0.51585  -0.50102  -0.49344
 Alpha  occ. eigenvalues --   -0.49344  -0.43946
 Alpha virt. eigenvalues --   -0.00473   0.03878   0.05642   0.05753   0.05753
 Alpha virt. eigenvalues --    0.06283   0.06283   0.09436   0.09568   0.09568
 Alpha virt. eigenvalues --    0.11678   0.11678   0.13648   0.15413   0.16422

 Mulliken charges:
               1
     1  Si   5.856234
     2  C   -2.022420
     3  Cl   0.282045
     4  Cl   0.282024
     5  Cl   0.282030
     6  H   -1.559968
     7  H   -1.559992
     8  H   -1.559954
 Sum of Mulliken charges =  -0.00000

 Dipole moment (field-independent basis, Debye):
    X=             -1.7243    Y=              0.0002    Z=             -0.0002  Tot=              1.7243

 Test job not archived.
 1\1\GINC-SE362\SP\RHF\Aug-CC-pVDZ\C1H3Cl3Si1\OHZDE\08-Apr-2025\0\\#t h
 f aug-cc-pvdz iop(5/13=1,5/36=2,99/5=2) pseudo=read geom=check guess=(
 read,tcheck) scf=(maxcycle=1)\\title\\0,1\Si,0,1.878092,0.000111,0.000
 155\C,0,-0.041784,0.000019,0.000021\Cl,0,-0.646666,-0.341761,-1.66277\
 Cl,0,-0.647006,1.610809,0.53537\Cl,0,-0.646867,-1.269168,1.127233\H,0,
 2.315547,1.053419,-0.934928\H,0,2.315603,-1.336344,-0.444448\H,0,2.315
 44,0.283293,1.379911\\Version=ES64L-G16RevC.01\State=1-A\HF=-1708.1242
 417\RMSD=6.722e-02\Dipole=0.678407,0.0000715,0.0000782\Quadrupole=1.26

 Normal termination of Gaussian 16 at Tue Apr  8 23:57:26 2025.
