 Gaussian 16, Revision C.01,

 ----------------------------------------------------------------------
 #t hf aug-cc-pvdz symm=none int=(grid=ultrafine) guess=(read,tcheck) s
 table=opt
 ----------------------------------------------------------------------
 -----
 title
 -----
 Symbolic Z-matrix:
 Charge =  0 Multiplicity = 2

 SCF Done:  E(UHF) =  -188.133314936     a.u. after   13 cycles
 Normal termination of Gaussian 16 at Tue Apr  8 22:43:28 2025.
 Gaussian 16:  ES64L-G16RevC.01  3-Jul-2019

 ----------------------------------------------------------------------
 #t hf aug-cc-pvdz iop(5/13=1,5/36=2,99/5=2) pseudo=read geom=check gue
 ss=(read,tcheck) scf=(maxcycle=1)
 ----------------------------------------------------------------------
 -----
 title
 -----
 Structure from the checkpoint file:  "BDE49_expt_1440_mol2.chk"
 Charge =  0 Multiplicity = 2

                         Standard orientation:
 ---------------------------------------------------------------------
 Center     Atomic      Atomic             Coordinates (Angstroms)
 Number     Number       Type             X           Y           Z
 ---------------------------------------------------------------------
      1          6           0        0.003877    0.206801   -0.000005
      2          8           0        1.164646   -0.161534    0.000001
      3          8           0       -1.164280   -0.164923    0.000001
      4          1           0       -0.026187    1.370850    0.000007
 ---------------------------------------------------------------------

 SCF Done:  E(UHF) =  -188.855025507     A.U. after    2 cycles

 The electronic state is 2-A.
 Alpha  occ. eigenvalues --  -21.23210 -21.08144 -11.54760  -1.88064  -1.69522
 Alpha  occ. eigenvalues --   -0.86854  -0.70770  -0.61014  -0.60020  -0.46257
 Alpha  occ. eigenvalues --   -0.37355  -0.32952
 Alpha virt. eigenvalues --    0.03906   0.09303   0.10377   0.10924   0.13924
 Alpha virt. eigenvalues --    0.17449   0.19381   0.20674   0.21825   0.26779
 Alpha virt. eigenvalues --    0.27502   0.29164   0.32100   0.32355   0.34604

  Beta  occ. eigenvalues --  -21.19492 -21.08062 -11.55206  -1.80158  -1.66091
  Beta  occ. eigenvalues --   -0.81432  -0.66974  -0.59820  -0.54896  -0.35598
  Beta  occ. eigenvalues --   -0.32148
  Beta virt. eigenvalues --    0.02716   0.06108   0.09801   0.10454   0.11706
  Beta virt. eigenvalues --    0.14180   0.17449   0.19509   0.22097   0.22695
  Beta virt. eigenvalues --    0.27761   0.29093   0.29912   0.32456   0.33872

 Mulliken charges and spin densities:
               1          2
     1  C    2.771477  -0.160863
     2  O   -2.151701  -0.021084
     3  O   -1.781929   1.057644
     4  H    1.162153   0.124302
 Sum of Mulliken charges =  -0.00000   1.00000

 Dipole moment (field-independent basis, Debye):
    X=             -1.2534    Y=              0.5472    Z=              0.0000  Tot=              1.3677
                          Isotropic Fermi Contact Couplings
        Atom                 a.u.       MegaHertz       Gauss      10(-4) cm-1
     1  C(13)             -0.05134     -57.71395     -20.59377     -19.25130
     2  O(17)              0.01232      -7.47125      -2.66593      -2.49214
     3  O(17)              0.18689    -113.28981     -40.42462     -37.78941
     4  H(1)               0.05862     262.01762      93.49440      87.39967
 --------------------------------------------------------
       Center         ----  Spin Dipole Couplings  ----
                      3XX-RR        3YY-RR        3ZZ-RR
 --------------------------------------------------------

 Normal termination of Gaussian 16 at Tue Apr  8 22:43:29 2025.
