 Gaussian 16, Revision C.01,

 ----------------------------------------------------------------------
 #t hf aug-cc-pvdz symm=none int=(grid=ultrafine) guess=(read,tcheck) s
 table=(opt,rrhf)
 ----------------------------------------------------------------------
 -----
 title
 -----
 Symbolic Z-matrix:
 Charge =  0 Multiplicity = 1

 SCF Done:  E(RHF) =  -877.506339478     A.U. after   14 cycles
 Normal termination of Gaussian 16 at Tue Apr  8 23:55:24 2025.
 Gaussian 16:  ES64L-G16RevC.01  3-Jul-2019

 ----------------------------------------------------------------------
 #t hf aug-cc-pvdz iop(5/13=1,5/36=2,99/5=2) pseudo=read geom=check gue
 ss=(read,tcheck) scf=(maxcycle=1)
 ----------------------------------------------------------------------
 -----
 title
 -----
 Structure from the checkpoint file:  "BDE49_nonexpt_1965_mol1.chk"
 Charge =  0 Multiplicity = 1

                         Standard orientation:
 ---------------------------------------------------------------------
 Center     Atomic      Atomic             Coordinates (Angstroms)
 Number     Number       Type             X           Y           Z
 ---------------------------------------------------------------------
      1         14           0       -1.893657   -0.003841   -0.267643
      2          6           0       -0.494761   -0.348410    0.982315
      3          1           0       -2.211943    1.436162   -0.301477
      4          1           0       -3.077019   -0.736641    0.244679
      5          1           0       -1.555808   -0.505303   -1.611688
      6         16           0        1.133189    0.178312    0.374132
      7          8           0        0.890522    1.373093   -0.455930
      8          8           0        1.251471   -1.191512   -0.621441
      9          1           0        2.144663   -1.183356   -0.991632
     10          1           0       -0.422773   -1.403654    1.251500
     11          1           0       -0.664332    0.231389    1.894583
 ---------------------------------------------------------------------

 SCF Done:  E(RHF) =  -878.744553615     A.U. after    2 cycles

 The electronic state is 1-A.
 Alpha  occ. eigenvalues --  -76.22343 -75.83610 -21.11100 -21.03311 -13.38781
 Alpha  occ. eigenvalues --  -13.25503 -13.22155 -11.39442  -8.17578  -5.55743
 Alpha  occ. eigenvalues --   -2.19180  -2.18054  -2.17906  -1.79121  -1.66990
 Alpha  occ. eigenvalues --   -1.14393  -0.92735  -0.75933  -0.66736  -0.60867
 Alpha  occ. eigenvalues --   -0.55364  -0.52611  -0.47637  -0.47070  -0.44764
 Alpha  occ. eigenvalues --   -0.43743  -0.37061  -0.34597  -0.27046
 Alpha virt. eigenvalues --    0.03568   0.04240   0.04669   0.05526   0.06942
 Alpha virt. eigenvalues --    0.07832   0.08171   0.09226   0.10259   0.10990
 Alpha virt. eigenvalues --    0.11960   0.12904   0.14584   0.14697   0.15700

 Mulliken charges:
               1
     1  Si   6.149536
     2  C   -4.736964
     3  H   -1.776434
     4  H   -1.702798
     5  H   -1.628967
     6  S    4.454315
     7  O   -2.381589
     8  O   -2.245493
     9  H    1.021459
    10  H    1.455327
    11  H    1.391610
 Sum of Mulliken charges =   0.00000

 Dipole moment (field-independent basis, Debye):
    X=              1.1727    Y=             -1.2919    Z=              1.0516  Tot=              2.0372

 Test job not archived.
 1\1\GINC-SE363\SP\RHF\Aug-CC-pVDZ\C1H6O2S1Si1\OHZDE\08-Apr-2025\0\\#t
 hf aug-cc-pvdz iop(5/13=1,5/36=2,99/5=2) pseudo=read geom=check guess=
 (read,tcheck) scf=(maxcycle=1)\\title\\0,1\Si,0,-1.893657,-0.003841,-0
 .267643\C,0,-0.494761,-0.34841,0.982315\H,0,-2.211943,1.436162,-0.3014
 77\H,0,-3.077019,-0.736642,0.244679\H,0,-1.555808,-0.505303,-1.611688\
 S,0,1.133189,0.178312,0.374132\O,0,0.890522,1.373093,-0.45593\O,0,1.25
 1471,-1.191512,-0.621441\H,0,2.144663,-1.183355,-0.991632\H,0,-0.42277
 3,-1.403654,1.2515\H,0,-0.664332,0.231389,1.894583\\Version=ES64L-G16R

 Normal termination of Gaussian 16 at Tue Apr  8 23:55:28 2025.
