 Gaussian 16, Revision C.01,

 ----------------------------------------------------------------------
 #t hf aug-cc-pvdz symm=none int=(grid=ultrafine) guess=(read,tcheck) s
 table=(opt,rrhf)
 ----------------------------------------------------------------------
 -----
 title
 -----
 Symbolic Z-matrix:
 Charge =  0 Multiplicity = 1

 SCF Done:  E(RHF) =  -1292.38896591     A.U. after   16 cycles
 Normal termination of Gaussian 16 at Wed Apr  9 00:52:18 2025.
 Gaussian 16:  ES64L-G16RevC.01  3-Jul-2019

 ----------------------------------------------------------------------
 #t hf aug-cc-pvdz iop(5/13=1,5/36=2,99/5=2) pseudo=read geom=check gue
 ss=(read,tcheck) scf=(maxcycle=1)
 ----------------------------------------------------------------------
 -----
 title
 -----
 Structure from the checkpoint file:  "BDE49_nonexpt_943_mol1.chk"
 Charge =  0 Multiplicity = 1

                         Standard orientation:
 ---------------------------------------------------------------------
 Center     Atomic      Atomic             Coordinates (Angstroms)
 Number     Number       Type             X           Y           Z
 ---------------------------------------------------------------------
      1         17           0       -2.468168   -0.902460    0.032081
      2         17           0        2.846220   -0.145986    0.093382
      3          8           0        0.406749   -1.991149   -0.019560
      4          8           0       -1.712760    2.110760    0.035419
      5          7           0        1.202333    0.193512   -0.282466
      6          7           0       -0.973418   -0.095540    0.021355
      7          6           0        0.258631   -0.809908   -0.077508
      8          6           0        0.668955    1.525707   -0.025951
      9          1           0        0.926611    2.232512   -0.815749
     10          1           0        0.990561    1.924486    0.941748
     11          6           0       -0.843982    1.288181    0.010463
 ---------------------------------------------------------------------

 SCF Done:  E(RHF) =  -1294.46819250     A.U. after    2 cycles

 The electronic state is 1-A.
 Alpha  occ. eigenvalues --  -99.95889 -99.95704 -21.08814 -21.08215 -15.83887
 Alpha  occ. eigenvalues --  -15.82702 -11.56711 -11.56304 -11.47747 -10.53015
 Alpha  occ. eigenvalues --  -10.52804  -9.73217  -9.72815  -9.72050  -9.71852
 Alpha  occ. eigenvalues --   -9.71726  -9.71618  -1.78864  -1.75469  -1.58038
 Alpha  occ. eigenvalues --   -1.49027  -1.33021  -1.20683  -1.09952  -0.89974
 Alpha  occ. eigenvalues --   -0.86718  -0.75152  -0.72627  -0.68367  -0.65175
 Alpha  occ. eigenvalues --   -0.64531  -0.61266  -0.58893  -0.55480  -0.54653
 Alpha  occ. eigenvalues --   -0.53680  -0.53079  -0.50920  -0.37987  -0.37254
 Alpha  occ. eigenvalues --   -0.36326  -0.32257
 Alpha virt. eigenvalues --    0.01491   0.02969   0.04774   0.05614   0.07751
 Alpha virt. eigenvalues --    0.08400   0.09800   0.10023   0.10960   0.11220
 Alpha virt. eigenvalues --    0.11292   0.12422   0.13951   0.14505   0.14572

 Mulliken charges:
               1
     1  Cl   0.703520
     2  Cl   0.478504
     3  O   -3.019639
     4  O   -3.280825
     5  N   -2.094261
     6  N   -2.111165
     7  C    5.029197
     8  C   -2.770898
     9  H    1.313263
    10  H    1.401242
    11  C    4.351061
 Sum of Mulliken charges =  -0.00000

 Dipole moment (field-independent basis, Debye):
    X=              0.6042    Y=              1.6868    Z=              0.0755  Tot=              1.7933

 Test job not archived.
 1\1\GINC-SE069\SP\RHF\Aug-CC-pVDZ\C3H2Cl2N2O2\OHZDE\09-Apr-2025\0\\#t
 hf aug-cc-pvdz iop(5/13=1,5/36=2,99/5=2) pseudo=read geom=check guess=
 (read,tcheck) scf=(maxcycle=1)\\title\\0,1\Cl,0,-2.468168,-0.90246,0.0
 32081\Cl,0,2.84622,-0.145986,0.093382\O,0,0.406749,-1.991149,-0.01956\
 O,0,-1.71276,2.11076,0.035419\N,0,1.202333,0.193512,-0.282466\N,0,-0.9
 73418,-0.09554,0.021355\C,0,0.258631,-0.809908,-0.077508\C,0,0.668955,
 1.525707,-0.025951\H,0,0.926611,2.232512,-0.815749\H,0,0.990561,1.9244
 86,0.941748\C,0,-0.843982,1.288181,0.010463\\Version=ES64L-G16RevC.01\

 Normal termination of Gaussian 16 at Wed Apr  9 00:52:23 2025.
