 Gaussian 16, Revision C.01,

 ----------------------------------------------------------------------
 #t hf aug-cc-pvdz symm=none int=(grid=ultrafine) guess=(read,tcheck) s
 table=(opt,rrhf)
 ----------------------------------------------------------------------
 -----
 title
 -----
 Symbolic Z-matrix:
 Charge =  0 Multiplicity = 1

 SCF Done:  E(RHF) =  -1216.92431810     A.U. after   15 cycles
 Normal termination of Gaussian 16 at Wed Apr  9 00:28:50 2025.
 Gaussian 16:  ES64L-G16RevC.01  3-Jul-2019

 ----------------------------------------------------------------------
 #t hf aug-cc-pvdz iop(5/13=1,5/36=2,99/5=2) pseudo=read geom=check gue
 ss=(read,tcheck) scf=(maxcycle=1)
 ----------------------------------------------------------------------
 -----
 title
 -----
 Structure from the checkpoint file:  "BDE49_nonexpt_2717_mol1.chk"
 Charge =  0 Multiplicity = 1

                         Standard orientation:
 ---------------------------------------------------------------------
 Center     Atomic      Atomic             Coordinates (Angstroms)
 Number     Number       Type             X           Y           Z
 ---------------------------------------------------------------------
      1          6           0       -1.897561    0.218472   -0.133468
      2          8           0       -1.255079    1.076375   -0.660843
      3         16           0       -1.310155   -1.520554    0.044525
      4         16           0        0.573080   -1.417042   -0.800174
      5          6           0        1.534712   -0.564916    0.511317
      6          8           0        1.050133   -0.176708    1.532990
      7          6           0       -3.259169    0.404891    0.512870
      8          6           0        2.993333   -0.398558    0.120049
      9          6           0        3.486130    1.040247    0.352374
     10          1           0        3.147785   -0.703960   -0.919562
     11          1           0        3.556155   -1.097443    0.749559
     12          6           0        2.847921    2.058422   -0.596898
     13          1           0        4.574380    1.051260    0.236778
     14          1           0        3.273278    1.309810    1.390176
     15          1           0        1.759670    2.075475   -0.494803
     16          1           0        3.080346    1.826383   -1.640842
     17          1           0        3.217817    3.065692   -0.390111
     18          6           0       -3.991944    1.645524    0.000973
     19          1           0       -3.072238    0.481392    1.590896
     20          1           0       -3.853584   -0.503252    0.372032
     21          1           0       -3.381795    2.538641    0.139887
     22          1           0       -4.932387    1.777973    0.539989
     23          1           0       -4.217187    1.557742   -1.064078
 ---------------------------------------------------------------------

 SCF Done:  E(RHF) =  -1219.33878028     A.U. after    2 cycles

 The electronic state is 1-A.
 Alpha  occ. eigenvalues --  -75.72383 -75.72113 -21.07502 -21.07242 -13.19584
 Alpha  occ. eigenvalues --  -13.14917 -13.13546 -13.11573 -13.06611 -13.05864
 Alpha  occ. eigenvalues --  -11.52072 -11.51681 -11.43440 -11.42845 -11.40030
 Alpha  occ. eigenvalues --  -11.37837 -11.35935  -8.06381  -8.06178  -1.73588
 Alpha  occ. eigenvalues --   -1.73044  -1.26647  -1.22714  -1.18445  -1.07562
 Alpha  occ. eigenvalues --   -1.01867  -0.94308  -0.87502  -0.75647  -0.72653
 Alpha  occ. eigenvalues --   -0.65806  -0.64629  -0.63503  -0.62592  -0.58053
 Alpha  occ. eigenvalues --   -0.56538  -0.55198  -0.52758  -0.52341  -0.51029
 Alpha  occ. eigenvalues --   -0.49754  -0.48268  -0.47649  -0.46862  -0.44875
 Alpha  occ. eigenvalues --   -0.43252  -0.36010  -0.29651  -0.28557  -0.25774
 Alpha  occ. eigenvalues --   -0.24532
 Alpha virt. eigenvalues --    0.03373   0.03647   0.04848   0.05520   0.05718
 Alpha virt. eigenvalues --    0.06009   0.06201   0.06466   0.06757   0.07129
 Alpha virt. eigenvalues --    0.07819   0.08300   0.09439   0.10616   0.10953

 Mulliken charges:
               1
     1  C    3.729395
     2  O   -3.189593
     3  S    0.057227
     4  S   -0.086322
     5  C    3.918279
     6  O   -3.152755
     7  C   -3.932313
     8  C   -3.469110
     9  C   -3.224779
    10  H    1.781219
    11  H    1.351094
    12  C   -3.953447
    13  H    1.341706
    14  H    1.473467
    15  H    1.632705
    16  H    1.305715
    17  H    1.131462
    18  C   -3.706505
    19  H    1.515386
    20  H    1.695278
    21  H    1.393516
    22  H    1.098925
    23  H    1.289450
 Sum of Mulliken charges =   0.00000

 Dipole moment (field-independent basis, Debye):
    X=             -0.1746    Y=             -0.3409    Z=             -0.3064  Tot=              0.4905

 Test job not archived.
 1\1\GINC-SE084\SP\RHF\Aug-CC-pVDZ\C7H12O2S2\OHZDE\09-Apr-2025\0\\#t hf
  aug-cc-pvdz iop(5/13=1,5/36=2,99/5=2) pseudo=read geom=check guess=(r
 ead,tcheck) scf=(maxcycle=1)\\title\\0,1\C,0,-1.897561,0.218472,-0.133
 468\O,0,-1.255079,1.076375,-0.660843\S,0,-1.310155,-1.520554,0.044525\
 S,0,0.57308,-1.417042,-0.800174\C,0,1.534712,-0.564916,0.511317\O,0,1.
 050133,-0.176708,1.53299\C,0,-3.259169,0.404891,0.51287\C,0,2.993333,-
 0.398558,0.120049\C,0,3.48613,1.040247,0.352374\H,0,3.147785,-0.70396,
 -0.919562\H,0,3.556155,-1.097443,0.749559\C,0,2.847921,2.058422,-0.596

 Normal termination of Gaussian 16 at Wed Apr  9 00:29:08 2025.
