 Gaussian 16, Revision C.01,

 ----------------------------------------------------------------------
 #t hf aug-cc-pvdz symm=none int=(grid=ultrafine) guess=(read,tcheck) s
 table=(opt,rrhf)
 ----------------------------------------------------------------------
 -----
 title
 -----
 Symbolic Z-matrix:
 Charge =  0 Multiplicity = 1

 SCF Done:  E(RHF) =  -463.436870287     A.U. after   12 cycles
 Normal termination of Gaussian 16 at Wed Apr  9 00:01:45 2025.
 Gaussian 16:  ES64L-G16RevC.01  3-Jul-2019

 ----------------------------------------------------------------------
 #t hf aug-cc-pvdz iop(5/13=1,5/36=2,99/5=2) pseudo=read geom=check gue
 ss=(read,tcheck) scf=(maxcycle=1)
 ----------------------------------------------------------------------
 -----
 title
 -----
 Structure from the checkpoint file:  "BDE49_nonexpt_2136_mol1.chk"
 Charge =  0 Multiplicity = 1

                         Standard orientation:
 ---------------------------------------------------------------------
 Center     Atomic      Atomic             Coordinates (Angstroms)
 Number     Number       Type             X           Y           Z
 ---------------------------------------------------------------------
      1          7           0        2.148691    0.434389   -0.234628
      2         14           0        0.842191   -0.605920    0.216173
      3          1           0        2.994496    0.434153    0.316860
      4          1           0        2.361981    0.596738   -1.208789
      5          6           0       -0.804314    0.111729   -0.374273
      6          6           0       -1.969559   -0.854547   -0.091722
      7          1           0       -2.104474   -1.008210    0.984452
      8          1           0       -1.809570   -1.835634   -0.548049
      9          6           0       -1.068665    1.507146    0.218359
     10          1           0       -2.912562   -0.456931   -0.482363
     11          1           0       -0.712438    0.216971   -1.465657
     12          1           0       -1.986080    1.943026   -0.192835
     13          1           0       -1.190302    1.454011    1.305550
     14          1           0       -0.244358    2.194180    0.012994
     15          1           0        0.884393   -0.686878    1.698071
     16          1           0        0.942638   -1.995230   -0.318446
 ---------------------------------------------------------------------

 SCF Done:  E(RHF) =  -464.495417061     A.U. after    2 cycles

 The electronic state is 1-A.
 Alpha  occ. eigenvalues --  -76.20255 -15.72291 -11.39422 -11.37738 -11.33550
 Alpha  occ. eigenvalues --   -5.54190  -2.19681  -2.17456  -2.16139  -1.25071
 Alpha  occ. eigenvalues --   -1.19382  -0.99317  -0.83973  -0.72534  -0.64305
 Alpha  occ. eigenvalues --   -0.61307  -0.57831  -0.55843  -0.52669  -0.49982
 Alpha  occ. eigenvalues --   -0.47092  -0.45155  -0.44292  -0.38824  -0.35148
 Alpha virt. eigenvalues --    0.03897   0.04818   0.05503   0.06015   0.06293
 Alpha virt. eigenvalues --    0.06505   0.06910   0.07006   0.07170   0.08583
 Alpha virt. eigenvalues --    0.09134   0.10019   0.10685   0.11736   0.13452

 Mulliken charges:
               1
     1  N   -2.261012
     2  Si   5.695786
     3  H    0.689350
     4  H    0.701599
     5  C   -3.116269
     6  C   -3.697873
     7  H    1.259648
     8  H    1.331930
     9  C   -3.549955
    10  H    1.251054
    11  H    1.735080
    12  H    1.246161
    13  H    1.332780
    14  H    1.288497
    15  H   -2.043249
    16  H   -1.863528
 Sum of Mulliken charges =   0.00000

 Dipole moment (field-independent basis, Debye):
    X=              0.6512    Y=              0.5616    Z=             -0.9160  Tot=              1.2564

 Test job not archived.
 1\1\GINC-SE073\SP\RHF\Aug-CC-pVDZ\C3H11N1Si1\OHZDE\09-Apr-2025\0\\#t h
 f aug-cc-pvdz iop(5/13=1,5/36=2,99/5=2) pseudo=read geom=check guess=(
 read,tcheck) scf=(maxcycle=1)\\title\\0,1\N,0,2.148691,0.434389,-0.234
 628\Si,0,0.842191,-0.60592,0.216173\H,0,2.994496,0.434153,0.31686\H,0,
 2.361981,0.596738,-1.208789\C,0,-0.804314,0.111729,-0.374273\C,0,-1.96
 9559,-0.854547,-0.091722\H,0,-2.104474,-1.00821,0.984452\H,0,-1.80957,
 -1.835634,-0.548049\C,0,-1.068665,1.507146,0.218359\H,0,-2.912562,-0.4
 56931,-0.482363\H,0,-0.712438,0.216971,-1.465657\H,0,-1.98608,1.943026

 Normal termination of Gaussian 16 at Wed Apr  9 00:01:50 2025.
