 Gaussian 16, Revision C.01,

 ----------------------------------------------------------------------
 #t hf aug-cc-pvdz symm=none int=(grid=ultrafine) guess=(read,tcheck) s
 table=(opt,rrhf)
 ----------------------------------------------------------------------
 -----
 title
 -----
 Symbolic Z-matrix:
 Charge =  0 Multiplicity = 1

 SCF Done:  E(RHF) =  -725.764633124     A.U. after   14 cycles
 Normal termination of Gaussian 16 at Wed Apr  9 00:02:45 2025.
 Gaussian 16:  ES64L-G16RevC.01  3-Jul-2019

 ----------------------------------------------------------------------
 #t hf aug-cc-pvdz iop(5/13=1,5/36=2,99/5=2) pseudo=read geom=check gue
 ss=(read,tcheck) scf=(maxcycle=1)
 ----------------------------------------------------------------------
 -----
 title
 -----
 Structure from the checkpoint file:  "BDE49_nonexpt_2125_mol1.chk"
 Charge =  0 Multiplicity = 1

                         Standard orientation:
 ---------------------------------------------------------------------
 Center     Atomic      Atomic             Coordinates (Angstroms)
 Number     Number       Type             X           Y           Z
 ---------------------------------------------------------------------
      1          6           0        2.475047   -1.252888   -0.006174
      2          6           0        1.083299   -1.209470   -0.015781
      3          6           0        0.392882    0.014013   -0.022042
      4         14           0       -1.473108    0.036062    0.005272
      5          8           0       -1.834472    1.593050   -0.402005
      6          7           0       -2.257212   -1.078630   -1.019153
      7          1           0       -2.060000   -1.143701   -2.005089
      8          1           0       -2.653011   -1.925566   -0.642500
      9          6           0        3.207584   -0.066788   -0.006737
     10          6           0        2.543129    1.157907   -0.020566
     11          6           0        1.150158    1.196840   -0.028948
     12          1           0        0.638325    2.152176   -0.051643
     13          1           0        2.988466   -2.208390   -0.002477
     14          1           0        0.525017   -2.140745   -0.029398
     15          1           0        4.291782   -0.097701   -0.001470
     16          1           0        3.110245    2.082546   -0.028253
     17          1           0       -2.767281    1.795621   -0.510264
     18          8           0       -2.063811   -0.395911    1.487101
     19          1           0       -1.575883   -0.083490    2.252069
 ---------------------------------------------------------------------

 SCF Done:  E(RHF) =  -727.905788014     A.U. after    2 cycles

 The electronic state is 1-A.
 Alpha  occ. eigenvalues --  -76.22954 -21.06579 -21.06479 -15.72422 -11.50998
 Alpha  occ. eigenvalues --  -11.42490 -11.42013 -11.40358 -11.39923 -11.35540
 Alpha  occ. eigenvalues --   -5.57973  -2.25940  -2.23595  -2.22637  -1.67498
 Alpha  occ. eigenvalues --   -1.63384  -1.33085  -1.24636  -1.08590  -1.08449
 Alpha  occ. eigenvalues --   -0.85732  -0.85287  -0.73844  -0.69428  -0.65975
 Alpha  occ. eigenvalues --   -0.63232  -0.60964  -0.57789  -0.56358  -0.54227
 Alpha  occ. eigenvalues --   -0.53435  -0.50447  -0.46889  -0.45021  -0.43811
 Alpha  occ. eigenvalues --   -0.40231  -0.38627  -0.35324  -0.34720  -0.32555
 Alpha  occ. eigenvalues --   -0.32230
 Alpha virt. eigenvalues --    0.03152   0.05159   0.05309   0.05661   0.06212
 Alpha virt. eigenvalues --    0.06237   0.06586   0.07622   0.07837   0.08652
 Alpha virt. eigenvalues --    0.09570   0.10335   0.10889   0.11417   0.12046

 Mulliken charges:
               1
     1  C   -0.791130
     2  C   -1.167657
     3  C   -0.922793
     4  Si   6.974269
     5  O   -3.215067
     6  N   -2.737099
     7  H    0.631312
     8  H    0.646693
     9  C   -2.314352
    10  C   -1.267656
    11  C   -2.743233
    12  H    1.792536
    13  H    1.524860
    14  H    1.766724
    15  H    1.531778
    16  H    1.540253
    17  H    1.050273
    18  O   -3.374554
    19  H    1.074844
 Sum of Mulliken charges =   0.00000

 Dipole moment (field-independent basis, Debye):
    X=              0.2794    Y=             -0.5238    Z=             -0.2767  Tot=              0.6550

 Test job not archived.
 1\1\GINC-SE454\SP\RHF\Aug-CC-pVDZ\C6H9N1O2Si1\OHZDE\09-Apr-2025\0\\#t
 hf aug-cc-pvdz iop(5/13=1,5/36=2,99/5=2) pseudo=read geom=check guess=
 (read,tcheck) scf=(maxcycle=1)\\title\\0,1\C,0,2.475047,-1.252888,-0.0
 06174\C,0,1.083299,-1.20947,-0.015781\C,0,0.392882,0.014013,-0.022042\
 Si,0,-1.473108,0.036062,0.005272\O,0,-1.834472,1.59305,-0.402005\N,0,-
 2.257212,-1.07863,-1.019153\H,0,-2.06,-1.143701,-2.005089\H,0,-2.65301
 1,-1.925566,-0.6425\C,0,3.207584,-0.066788,-0.006737\C,0,2.543129,1.15
 7907,-0.020566\C,0,1.150158,1.19684,-0.028948\H,0,0.638325,2.152176,-0

 Normal termination of Gaussian 16 at Wed Apr  9 00:02:55 2025.
