 Gaussian 16, Revision C.01,

 ----------------------------------------------------------------------
 #t hf aug-cc-pvdz symm=none int=(grid=ultrafine) guess=(read,tcheck) s
 table=(opt,rrhf)
 ----------------------------------------------------------------------
 -----
 title
 -----
 Symbolic Z-matrix:
 Charge =  0 Multiplicity = 1

 SCF Done:  E(RHF) =  -1100.13788230     A.U. after   15 cycles
 Normal termination of Gaussian 16 at Wed Apr  9 00:16:38 2025.
 Gaussian 16:  ES64L-G16RevC.01  3-Jul-2019

 ----------------------------------------------------------------------
 #t hf aug-cc-pvdz iop(5/13=1,5/36=2,99/5=2) pseudo=read geom=check gue
 ss=(read,tcheck) scf=(maxcycle=1)
 ----------------------------------------------------------------------
 -----
 title
 -----
 Structure from the checkpoint file:  "BDE49_nonexpt_2539_mol1.chk"
 Charge =  0 Multiplicity = 1

                         Standard orientation:
 ---------------------------------------------------------------------
 Center     Atomic      Atomic             Coordinates (Angstroms)
 Number     Number       Type             X           Y           Z
 ---------------------------------------------------------------------
      1         17           0       -1.912155   -0.804682   -0.238455
      2         16           0       -0.976725    0.958884    0.317499
      3          6           0        0.565749    0.801344   -0.558762
      4          7           0        1.610236   -0.155251    0.058538
      5          1           0        1.037404    1.786655   -0.542503
      6          1           0        0.442525    0.472208   -1.587616
      7          8           0        1.429110   -0.595473    1.171286
      8          8           0        2.569410   -0.359867   -0.665452
 ---------------------------------------------------------------------

 SCF Done:  E(RHF) =  -1101.63659852     A.U. after    2 cycles

 The electronic state is 1-A.
 Alpha  occ. eigenvalues --  -99.93207 -75.77660 -21.11762 -21.10923 -16.01219
 Alpha  occ. eigenvalues --  -13.20403 -13.13355 -13.10224 -11.49519 -10.50342
 Alpha  occ. eigenvalues --   -9.70092  -9.69441  -9.69328  -8.11511  -2.01328
 Alpha  occ. eigenvalues --   -1.71084  -1.37747  -1.24076  -1.06457  -0.87095
 Alpha  occ. eigenvalues --   -0.74194  -0.71815  -0.65383  -0.61774  -0.59068
 Alpha  occ. eigenvalues --   -0.57340  -0.56040  -0.47683  -0.36852  -0.33514
 Alpha  occ. eigenvalues --   -0.32964  -0.27815
 Alpha virt. eigenvalues --    0.01680   0.03710   0.05350   0.06112   0.09475
 Alpha virt. eigenvalues --    0.11686   0.12245   0.12425   0.13658   0.13974
 Alpha virt. eigenvalues --    0.14382   0.15496   0.15555   0.16580   0.17367

 Mulliken charges:
               1
     1  Cl  -0.395773
     2  S    1.263579
     3  C   -3.349342
     4  N    4.631324
     5  H    1.553208
     6  H    1.628834
     7  O   -2.660295
     8  O   -2.671535
 Sum of Mulliken charges =  -0.00000

 Dipole moment (field-independent basis, Debye):
    X=             -0.5390    Y=              3.7573    Z=              0.8040  Tot=              3.8799

 Test job not archived.
 1\1\GINC-SE069\SP\RHF\Aug-CC-pVDZ\C1H2Cl1N1O2S1\OHZDE\09-Apr-2025\0\\#
 t hf aug-cc-pvdz iop(5/13=1,5/36=2,99/5=2) pseudo=read geom=check gues
 s=(read,tcheck) scf=(maxcycle=1)\\title\\0,1\Cl,0,-1.912155,-0.804682,
 -0.238455\S,0,-0.976725,0.958884,0.317499\C,0,0.565749,0.801344,-0.558
 762\N,0,1.610236,-0.155251,0.058538\H,0,1.037404,1.786655,-0.542503\H,
 0,0.442525,0.472208,-1.587616\O,0,1.42911,-0.595473,1.171286\O,0,2.569
 41,-0.359867,-0.665452\\Version=ES64L-G16RevC.01\State=1-A\HF=-1101.63
 65985\RMSD=8.679e-02\Dipole=-0.2120781,1.4782167,0.3163244\Quadrupole=

 Normal termination of Gaussian 16 at Wed Apr  9 00:16:41 2025.
