 Gaussian 16, Revision C.01,

 ----------------------------------------------------------------------
 #t hf aug-cc-pvdz symm=none int=(grid=ultrafine) guess=(read,tcheck) s
 table=(opt,rrhf)
 ----------------------------------------------------------------------
 -----
 title
 -----
 Symbolic Z-matrix:
 Charge =  0 Multiplicity = 1

 SCF Done:  E(RHF) =  -797.527298453     A.U. after   14 cycles
 Normal termination of Gaussian 16 at Tue Apr  8 23:17:26 2025.
 Gaussian 16:  ES64L-G16RevC.01  3-Jul-2019

 ----------------------------------------------------------------------
 #t hf aug-cc-pvdz iop(5/13=1,5/36=2,99/5=2) pseudo=read geom=check gue
 ss=(read,tcheck) scf=(maxcycle=1)
 ----------------------------------------------------------------------
 -----
 title
 -----
 Structure from the checkpoint file:  "BDE49_expt_843_mol1.chk"
 Charge =  0 Multiplicity = 1

                         Standard orientation:
 ---------------------------------------------------------------------
 Center     Atomic      Atomic             Coordinates (Angstroms)
 Number     Number       Type             X           Y           Z
 ---------------------------------------------------------------------
      1          6           0       -3.203117    0.309059   -0.750542
      2          6           0       -1.883045    0.957194   -0.327505
      3          1           0       -3.116443   -0.136409   -1.745575
      4          1           0       -4.002263    1.053705   -0.785163
      5          1           0       -3.504801   -0.480829   -0.060511
      6          6           0       -0.674405    0.012876   -0.314762
      7          1           0       -1.995070    1.424161    0.658953
      8          1           0       -1.649437    1.772314   -1.024409
      9          6           0        0.664868    0.756627   -0.128274
     10          6           0        1.855994   -0.122285   -0.580969
     11          8           0        1.782828   -0.904446   -1.490942
     12          8           0        2.981555    0.113089    0.100004
     13          7           0        0.948949    1.309663    1.199337
     14         16           0       -0.844440   -1.374374    0.904697
     15          1           0       -0.606458   -0.507496   -1.272495
     16          1           0        0.667223    1.597900   -0.833491
     17          1           0        2.731599    0.762696    0.792901
     18          1           0        0.651088    0.658282    1.921588
     19          1           0        0.490661    2.199312    1.354206
     20          1           0       -1.474548   -0.671268    1.863296
 ---------------------------------------------------------------------

 SCF Done:  E(RHF) =  -799.594283590     A.U. after    2 cycles

 The electronic state is 1-A.
 Alpha  occ. eigenvalues --  -75.69653 -21.10622 -21.04233 -15.77037 -13.16114
 Alpha  occ. eigenvalues --  -13.11781 -13.08118 -11.53060 -11.48397 -11.45110
 Alpha  occ. eigenvalues --  -11.41215 -11.37561  -8.03495  -1.81798  -1.65090
 Alpha  occ. eigenvalues --   -1.39505  -1.25177  -1.11904  -1.05706  -0.95195
 Alpha  occ. eigenvalues --   -0.84784  -0.77379  -0.73107  -0.69446  -0.64696
 Alpha  occ. eigenvalues --   -0.62850  -0.60581  -0.57190  -0.53622  -0.52500
 Alpha  occ. eigenvalues --   -0.50664  -0.50103  -0.49159  -0.47768  -0.42546
 Alpha  occ. eigenvalues --   -0.39930  -0.37744  -0.32692  -0.28697  -0.25678
 Alpha virt. eigenvalues --    0.02847   0.04131   0.04361   0.04657   0.05354
 Alpha virt. eigenvalues --    0.05793   0.06644   0.06977   0.07938   0.08419
 Alpha virt. eigenvalues --    0.09071   0.10131   0.11642   0.12183   0.12588

 Mulliken charges:
               1
     1  C   -4.208115
     2  C   -3.587346
     3  H    1.226079
     4  H    1.080145
     5  H    1.486164
     6  C   -0.281448
     7  H    1.573316
     8  H    1.198800
     9  C   -1.116051
    10  C    6.274038
    11  O   -3.347912
    12  O   -3.258984
    13  N   -3.032399
    14  S   -1.043914
    15  H    1.921932
    16  H    1.806957
    17  H    1.145131
    18  H    0.647738
    19  H    0.565063
    20  H    0.950807
 Sum of Mulliken charges =  -0.00000

 Dipole moment (field-independent basis, Debye):
    X=             -1.9095    Y=              1.0124    Z=              1.1462  Tot=              2.4464

 Test job not archived.
 1\1\GINC-SE096\SP\RHF\Aug-CC-pVDZ\C5H11N1O2S1\OHZDE\08-Apr-2025\0\\#t
 hf aug-cc-pvdz iop(5/13=1,5/36=2,99/5=2) pseudo=read geom=check guess=
 (read,tcheck) scf=(maxcycle=1)\\title\\0,1\C,0,-3.203117,0.309058,-0.7
 50542\C,0,-1.883045,0.957194,-0.327505\H,0,-3.116443,-0.13641,-1.74557
 5\H,0,-4.002263,1.053704,-0.785163\H,0,-3.504801,-0.48083,-0.060511\C,
 0,-0.674405,0.012876,-0.314762\H,0,-1.99507,1.424161,0.658953\H,0,-1.6
 49438,1.772314,-1.024409\C,0,0.664868,0.756627,-0.128274\C,0,1.855994,
 -0.122285,-0.580969\O,0,1.782828,-0.904446,-1.490942\O,0,2.981555,0.11

 Normal termination of Gaussian 16 at Tue Apr  8 23:17:37 2025.
