 Gaussian 16, Revision C.01,

 ----------------------------------------------------------------------
 #t hf aug-cc-pvdz symm=none int=(grid=ultrafine) guess=(read,tcheck) s
 table=(opt,rrhf)
 ----------------------------------------------------------------------
 -----
 title
 -----
 Symbolic Z-matrix:
 Charge =  0 Multiplicity = 1

 SCF Done:  E(RHF) =  -304.730673653     A.U. after   12 cycles
 Normal termination of Gaussian 16 at Tue Apr  8 23:02:46 2025.
 Gaussian 16:  ES64L-G16RevC.01  3-Jul-2019

 ----------------------------------------------------------------------
 #t hf aug-cc-pvdz iop(5/13=1,5/36=2,99/5=2) pseudo=read geom=check gue
 ss=(read,tcheck) scf=(maxcycle=1)
 ----------------------------------------------------------------------
 -----
 title
 -----
 Structure from the checkpoint file:  "BDE49_expt_243_mol1.chk"
 Charge =  0 Multiplicity = 1

                         Standard orientation:
 ---------------------------------------------------------------------
 Center     Atomic      Atomic             Coordinates (Angstroms)
 Number     Number       Type             X           Y           Z
 ---------------------------------------------------------------------
      1          6           0       -1.896073    0.561250    0.000014
      2          6           0       -0.695124   -0.347350    0.000026
      3          1           0       -2.805868   -0.036769    0.000125
      4          1           0       -1.870800    1.217890   -0.873910
      5          1           0       -1.870694    1.218072    0.873796
      6          6           0        0.695124    0.347350   -0.000045
      7          6           0        1.896073   -0.561250    0.000002
      8          1           0        1.870772   -1.217897    0.873919
      9          1           0        2.805868    0.036769   -0.000076
     10          1           0        1.870722   -1.218065   -0.873787
     11          8           0       -0.754757   -1.555172    0.000075
     12          8           0        0.754757    1.555172   -0.000080
 ---------------------------------------------------------------------

 SCF Done:  E(RHF) =  -306.078026131     A.U. after    2 cycles

 The electronic state is 1-A.
 Alpha  occ. eigenvalues --  -21.08294 -21.08268 -11.52631 -11.48326 -11.39869
 Alpha  occ. eigenvalues --  -11.39159  -1.75185  -1.71318  -1.14018  -1.10687
 Alpha  occ. eigenvalues --   -0.90821  -0.71365  -0.65622  -0.61981  -0.59427
 Alpha  occ. eigenvalues --   -0.58682  -0.55532  -0.53037  -0.48678  -0.46802
 Alpha  occ. eigenvalues --   -0.41709  -0.36643  -0.26877
 Alpha virt. eigenvalues --    0.03108   0.05455   0.05488   0.05973   0.07155
 Alpha virt. eigenvalues --    0.07166   0.08651   0.10859   0.11531   0.11711
 Alpha virt. eigenvalues --    0.12203   0.13437   0.13524   0.14977   0.15547

 Mulliken charges:
               1
     1  C   -4.410681
     2  C    3.878809
     3  H    1.243251
     4  H    1.328637
     5  H    1.328674
     6  C    3.878809
     7  C   -4.410681
     8  H    1.328635
     9  H    1.243251
    10  H    1.328676
    11  O   -3.368690
    12  O   -3.368690
 Sum of Mulliken charges =  -0.00000

 Dipole moment (field-independent basis, Debye):
    X=              0.0000    Y=              0.0000    Z=              0.0000  Tot=              0.0000

 Test job not archived.
 1\1\GINC-SE435\SP\RHF\Aug-CC-pVDZ\C4H6O2\OHZDE\08-Apr-2025\0\\#t hf au
 g-cc-pvdz iop(5/13=1,5/36=2,99/5=2) pseudo=read geom=check guess=(read
 ,tcheck) scf=(maxcycle=1)\\title\\0,1\C,0,1.896073,0.56125,-0.000014\C
 ,0,0.695124,-0.34735,-0.000026\H,0,2.805868,-0.036768,-0.000125\H,0,1.
 8708,1.21789,0.87391\H,0,1.870694,1.218072,-0.873796\C,0,-0.695124,0.3
 4735,0.000045\C,0,-1.896073,-0.56125,-0.000002\H,0,-1.870772,-1.217897
 ,-0.873919\H,0,-2.805868,0.036768,0.000076\H,0,-1.870722,-1.218065,0.8
 73787\O,0,0.754757,-1.555172,-0.000075\O,0,-0.754757,1.555172,0.00008\

 Normal termination of Gaussian 16 at Tue Apr  8 23:02:50 2025.
