 Gaussian 16, Revision C.01,

 ----------------------------------------------------------------------
 #t hf aug-cc-pvdz symm=none int=(grid=ultrafine) guess=(read,tcheck) s
 table=(opt,rrhf)
 ----------------------------------------------------------------------
 -----
 title
 -----
 Symbolic Z-matrix:
 Charge =  0 Multiplicity = 1

 SCF Done:  E(RHF) =  -680.116129664     A.U. after   18 cycles
 Normal termination of Gaussian 16 at Tue Apr  8 22:59:01 2025.
 Gaussian 16:  ES64L-G16RevC.01  3-Jul-2019

 ----------------------------------------------------------------------
 #t hf aug-cc-pvdz iop(5/13=1,5/36=2,99/5=2) pseudo=read geom=check gue
 ss=(read,tcheck) scf=(maxcycle=1)
 ----------------------------------------------------------------------
 -----
 title
 -----
 Structure from the checkpoint file:  "BDE49_expt_1750_mol1.chk"
 Charge =  0 Multiplicity = 1

                         Standard orientation:
 ---------------------------------------------------------------------
 Center     Atomic      Atomic             Coordinates (Angstroms)
 Number     Number       Type             X           Y           Z
 ---------------------------------------------------------------------
      1          6           0       -2.586268   -0.958365    0.224149
      2          7           0       -1.786220    0.181377   -0.076215
      3          6           0       -0.352609    0.145426    0.028932
      4          7           0       -2.466040    1.316176   -0.492735
      5          8           0       -1.772215    2.261698   -0.750489
      6          8           0       -2.058185   -1.985532    0.568443
      7          6           0        0.398159   -0.562755   -0.899419
      8          6           0        1.787548   -0.597707   -0.804313
      9          6           0        2.427838    0.092222    0.229552
     10          6           0        1.665564    0.809810    1.161743
     11          6           0        0.285756    0.832892    1.063123
     12          1           0       -0.301713    1.385380    1.785976
     13          1           0        2.181953    1.336457    1.954392
     14          1           0       -0.099970   -1.097517   -1.698522
     15          1           0        2.351905   -1.161961   -1.533620
     16          6           0       -4.082078   -0.790363    0.082986
     17          1           0       -4.453048    0.002060    0.734820
     18          1           0       -4.539401   -1.741154    0.350038
     19          1           0       -4.352714   -0.515760   -0.937648
     20          8           0        3.773338    0.128675    0.416972
     21          6           0        4.608051   -0.581125   -0.489877
     22          1           0        4.394113   -1.655250   -0.474012
     23          1           0        5.627278   -0.412122   -0.147366
     24          1           0        4.502153   -0.201946   -1.512075
 ---------------------------------------------------------------------

 SCF Done:  E(RHF) =  -683.171883051     A.U. after    2 cycles

 The electronic state is 1-A.
 Alpha  occ. eigenvalues --  -21.11876 -21.08171 -21.05748 -15.90568 -15.79958
 Alpha  occ. eigenvalues --  -11.55198 -11.53656 -11.47646 -11.45739 -11.44472
 Alpha  occ. eigenvalues --  -11.42131 -11.41349 -11.40264 -11.37901  -1.89172
 Alpha  occ. eigenvalues --   -1.79618  -1.73599  -1.47392  -1.31173  -1.13127
 Alpha  occ. eigenvalues --   -1.11318  -1.09006  -1.01473  -0.96112  -0.89626
 Alpha  occ. eigenvalues --   -0.86301  -0.78341  -0.70104  -0.68248  -0.67087
 Alpha  occ. eigenvalues --   -0.66452  -0.63444  -0.63024  -0.61713  -0.59424
 Alpha  occ. eigenvalues --   -0.58621  -0.56983  -0.56271  -0.53678  -0.52937
 Alpha  occ. eigenvalues --   -0.50613  -0.49118  -0.47887  -0.45890  -0.42098
 Alpha  occ. eigenvalues --   -0.39973  -0.34665  -0.33122  -0.32512  -0.28751
 Alpha  occ. eigenvalues --   -0.26760
 Alpha virt. eigenvalues --    0.03178   0.04761   0.04844   0.05395   0.05961
 Alpha virt. eigenvalues --    0.06250   0.06574   0.06672   0.06934   0.08084
 Alpha virt. eigenvalues --    0.09348   0.10575   0.11077   0.11526   0.11864

 Mulliken charges:
               1
     1  C    3.923210
     2  N   -3.318454
     3  C    4.596352
     4  N    1.205989
     5  O   -2.220810
     6  O   -3.222613
     7  C   -0.753605
     8  C   -1.517136
     9  C    3.888684
    10  C   -2.675631
    11  C   -2.675764
    12  H    1.977261
    13  H    1.952343
    14  H    1.946349
    15  H    1.868123
    16  C   -4.383579
    17  H    1.296775
    18  H    1.152464
    19  H    1.294655
    20  O   -4.717262
    21  C   -3.844480
    22  H    1.406150
    23  H    1.407137
    24  H    1.413841
 Sum of Mulliken charges =  -0.00000

 Dipole moment (field-independent basis, Debye):
    X=              2.2660    Y=             -0.2437    Z=             -0.3052  Tot=              2.2994

 Test job not archived.
 1\1\GINC-SE334\SP\RHF\Aug-CC-pVDZ\C9H10N2O3\OHZDE\08-Apr-2025\0\\#t hf
  aug-cc-pvdz iop(5/13=1,5/36=2,99/5=2) pseudo=read geom=check guess=(r
 ead,tcheck) scf=(maxcycle=1)\\title\\0,1\C,0,-2.586268,-0.958365,0.224
 149\N,0,-1.78622,0.181377,-0.076215\C,0,-0.352609,0.145426,0.028932\N,
 0,-2.46604,1.316176,-0.492735\O,0,-1.772215,2.261698,-0.750489\O,0,-2.
 058185,-1.985532,0.568443\C,0,0.398159,-0.562755,-0.899419\C,0,1.78754
 8,-0.597707,-0.804313\C,0,2.427838,0.092222,0.229552\C,0,1.665564,0.80
 981,1.161743\C,0,0.285756,0.832892,1.063123\H,0,-0.301713,1.38538,1.78

 Normal termination of Gaussian 16 at Tue Apr  8 22:59:19 2025.
