 Gaussian 16, Revision C.01,

 ----------------------------------------------------------------------
 #t hf aug-cc-pvdz symm=none int=(grid=ultrafine) guess=(read,tcheck) s
 table=(opt,rrhf)
 ----------------------------------------------------------------------
 -----
 title
 -----
 Symbolic Z-matrix:
 Charge =  0 Multiplicity = 1

 SCF Done:  E(RHF) =  -1116.51323573     A.U. after   14 cycles
 Normal termination of Gaussian 16 at Tue Apr  8 23:44:45 2025.
 Gaussian 16:  ES64L-G16RevC.01  3-Jul-2019

 ----------------------------------------------------------------------
 #t hf aug-cc-pvdz iop(5/13=1,5/36=2,99/5=2) pseudo=read geom=check gue
 ss=(read,tcheck) scf=(maxcycle=1)
 ----------------------------------------------------------------------
 -----
 title
 -----
 Structure from the checkpoint file:  "BDE49_nonexpt_1719_mol1.chk"
 Charge =  0 Multiplicity = 1

                         Standard orientation:
 ---------------------------------------------------------------------
 Center     Atomic      Atomic             Coordinates (Angstroms)
 Number     Number       Type             X           Y           Z
 ---------------------------------------------------------------------
      1          6           0       -3.172026   -0.316479    0.170287
      2          6           0       -1.770646    0.200931   -0.032466
      3          1           0       -3.882177    0.431872   -0.181238
      4          1           0       -3.328895   -0.477161    1.241288
      5          1           0       -3.330736   -1.267720   -0.339277
      6         16           0       -0.536092   -1.110829   -0.145272
      7          8           0       -1.515943    1.385169   -0.106644
      8         15           0        1.324584   -0.010444   -0.056241
      9          8           0        2.398421   -0.868372   -0.544599
     10          8           0        1.031431    1.338561   -0.797134
     11          1           0        0.120276    1.666555   -0.590534
     12          8           0        1.448583    0.454768    1.472530
     13          1           0        1.886346   -0.211338    2.017571
 ---------------------------------------------------------------------

 SCF Done:  E(RHF) =  -1118.54385871     A.U. after    2 cycles

 The electronic state is 1-A.
 Alpha  occ. eigenvalues -- -105.33443 -75.72742 -21.13044 -21.11402 -21.10369
 Alpha  occ. eigenvalues --  -21.03942 -13.17117 -13.13423 -13.06224 -11.54690
 Alpha  occ. eigenvalues --  -11.42574  -8.07071  -2.95878  -2.02017  -1.92876
 Alpha  occ. eigenvalues --   -1.79326  -1.76864  -1.54126  -1.40761  -1.26457
 Alpha  occ. eigenvalues --   -1.19700  -1.07820  -0.78533  -0.71966  -0.64794
 Alpha  occ. eigenvalues --   -0.63426  -0.60672  -0.60276  -0.54869  -0.50019
 Alpha  occ. eigenvalues --   -0.49321  -0.44919  -0.42736  -0.36494  -0.35630
 Alpha  occ. eigenvalues --   -0.30911  -0.30002  -0.28216  -0.24140  -0.16174
 Alpha virt. eigenvalues --    0.02280   0.04455   0.05396   0.05660   0.07616
 Alpha virt. eigenvalues --    0.08780   0.09232   0.10527   0.11342   0.11857
 Alpha virt. eigenvalues --    0.12301   0.12858   0.13057   0.14105   0.15059

 Mulliken charges:
               1
     1  C   -4.405998
     2  C    3.021518
     3  H    1.250235
     4  H    1.283295
     5  H    1.335464
     6  S   -1.075693
     7  O   -3.132472
     8  P    7.786666
     9  O   -2.748139
    10  O   -3.135554
    11  H    1.521618
    12  O   -2.568875
    13  H    0.867934
 Sum of Mulliken charges =   0.00000

 Dipole moment (field-independent basis, Debye):
    X=             -1.7470    Y=              0.4150    Z=              1.7952  Tot=              2.5391

 Test job not archived.
 1\1\GINC-SE334\SP\RHF\Aug-CC-pVDZ\C2H5O4P1S1\OHZDE\08-Apr-2025\0\\#t h
 f aug-cc-pvdz iop(5/13=1,5/36=2,99/5=2) pseudo=read geom=check guess=(
 read,tcheck) scf=(maxcycle=1)\\title\\0,1\C,0,-3.172026,-0.316479,0.17
 0287\C,0,-1.770646,0.200931,-0.032466\H,0,-3.882177,0.431872,-0.181238
 \H,0,-3.328895,-0.477161,1.241288\H,0,-3.330736,-1.26772,-0.339277\S,0
 ,-0.536092,-1.110829,-0.145272\O,0,-1.515943,1.385169,-0.106644\P,0,1.
 324584,-0.010444,-0.056241\O,0,2.398421,-0.868372,-0.544599\O,0,1.0314
 31,1.338561,-0.797134\H,0,0.120276,1.666555,-0.590534\O,0,1.448583,0.4

 Normal termination of Gaussian 16 at Tue Apr  8 23:44:50 2025.
