 Gaussian 16, Revision C.01,

 ----------------------------------------------------------------------
 #t hf aug-cc-pvdz symm=none int=(grid=ultrafine) guess=(read,tcheck) s
 table=opt
 ----------------------------------------------------------------------
 -----
 title
 -----
 Symbolic Z-matrix:
 Charge =  0 Multiplicity = 2

 SCF Done:  E(UHF) =  -1387.05739720     A.U. after   19 cycles
 Normal termination of Gaussian 16 at Tue Apr  8 23:26:12 2025.
 Gaussian 16:  ES64L-G16RevC.01  3-Jul-2019

 ----------------------------------------------------------------------
 #t hf aug-cc-pvdz iop(5/13=1,5/36=2,99/5=2) pseudo=read geom=check gue
 ss=(read,tcheck) scf=(maxcycle=1)
 ----------------------------------------------------------------------
 -----
 title
 -----
 Structure from the checkpoint file:  "BDE49_nonexpt_1252_mol2.chk"
 Charge =  0 Multiplicity = 2

                         Standard orientation:
 ---------------------------------------------------------------------
 Center     Atomic      Atomic             Coordinates (Angstroms)
 Number     Number       Type             X           Y           Z
 ---------------------------------------------------------------------
      1         16           0        1.034099   -0.013106    0.158175
      2          8           0        2.004732   -1.052272   -0.152019
      3         15           0       -0.880778   -1.074788   -0.273881
      4          6           0        1.190079    1.291913   -1.071312
      5          1           0        2.155308    1.763362   -0.876356
      6          1           0        1.173876    0.844919   -2.064110
      7         17           0       -2.244292    0.439302    0.081108
      8          8           0        0.991322    0.614335    1.464427
      9          1           0        0.380964    2.007130   -0.932343
 ---------------------------------------------------------------------

 SCF Done:  E(UHF) =  -1388.54617107     A.U. after    2 cycles

 The electronic state is 2-A.
 Alpha  occ. eigenvalues -- -105.27735 -99.93114 -75.89502 -21.05921 -21.05819
 Alpha  occ. eigenvalues --  -13.51630 -13.38473 -13.31968 -11.43570 -10.50405
 Alpha  occ. eigenvalues --   -9.70153  -9.69667  -9.69561  -8.24534  -2.86106
 Alpha  occ. eigenvalues --   -1.83647  -1.65906  -1.55666  -1.55227  -1.51923
 Alpha  occ. eigenvalues --   -1.26218  -1.15700  -0.90861  -0.75321  -0.64429
 Alpha  occ. eigenvalues --   -0.63958  -0.58934  -0.57267  -0.56647  -0.51490
 Alpha  occ. eigenvalues --   -0.45539  -0.40864  -0.39263  -0.36684  -0.35679
 Alpha  occ. eigenvalues --   -0.12697  -0.00775
 Alpha virt. eigenvalues --    0.03428   0.05498   0.05837   0.06609   0.08274
 Alpha virt. eigenvalues --    0.09571   0.11240   0.12191   0.13199   0.13561
 Alpha virt. eigenvalues --    0.14298   0.14608   0.15196   0.15910   0.17484

  Beta  occ. eigenvalues -- -105.27071 -99.93024 -75.89539 -21.05906 -21.05854
  Beta  occ. eigenvalues --  -13.51651 -13.38555 -13.32098 -11.43570 -10.50310
  Beta  occ. eigenvalues --   -9.70195  -9.69526  -9.69185  -8.24581  -2.84115
  Beta  occ. eigenvalues --   -1.83646  -1.65909  -1.54189  -1.49984  -1.30412
  Beta  occ. eigenvalues --   -1.25454  -1.15672  -0.90679  -0.72035  -0.64394
  Beta  occ. eigenvalues --   -0.63493  -0.58797  -0.56514  -0.54674  -0.51487
  Beta  occ. eigenvalues --   -0.45564  -0.40890  -0.39137  -0.36450  -0.33533
  Beta  occ. eigenvalues --   -0.11475
  Beta virt. eigenvalues --    0.02896   0.05491   0.05751   0.06706   0.08082
  Beta virt. eigenvalues --    0.08685   0.09865   0.12251   0.12770   0.13274
  Beta virt. eigenvalues --    0.13689   0.14770   0.15094   0.15497   0.16276

 Mulliken charges and spin densities:
               1          2
     1  S    4.254303  -0.036165
     2  O   -2.419622   0.008075
     3  P    2.886010   1.057785
     4  C   -4.604083  -0.252061
     5  H    1.357393   0.000137
     6  H    1.102521   0.216216
     7  Cl  -1.282669  -0.025890
     8  O   -2.492481  -0.030322
     9  H    1.198628   0.062225
 Sum of Mulliken charges =   0.00000   1.00000

 Dipole moment (field-independent basis, Debye):
    X=             -3.1346    Y=             -6.9258    Z=             -0.5839  Tot=              7.6245
                          Isotropic Fermi Contact Couplings
        Atom                 a.u.       MegaHertz       Gauss      10(-4) cm-1
     1  S(33)             -0.04446     -15.26975      -5.44863      -5.09344
     2  O(17)             -0.00019       0.11714       0.04180       0.03908
     3  P(31)              0.22128     400.76212     143.00189     133.67985
     4  C(13)              0.02333      26.22176       9.35658       8.74664
     5  H(1)               0.00206       9.19699       3.28172       3.06779
     6  H(1)               0.00134       5.99159       2.13795       1.99858
     7  Cl(35)             0.03011      13.20343       4.71131       4.40419
     8  O(17)              0.01060      -6.42722      -2.29339      -2.14389

 Normal termination of Gaussian 16 at Tue Apr  8 23:26:16 2025.
