 Gaussian 16, Revision C.01,

 ----------------------------------------------------------------------
 #t hf aug-cc-pvdz symm=none int=(grid=ultrafine) guess=(read,tcheck) s
 table=(opt,rrhf)
 ----------------------------------------------------------------------
 -----
 title
 -----
 Symbolic Z-matrix:
 Charge =  0 Multiplicity = 1

 SCF Done:  E(RHF) =  -440.921700725     A.U. after   12 cycles

 1\1\GINC-SE105\Stability\RHF\Aug-CC-pVDZ\H4O2Si1\OHZDE\08-Apr-2025\0\\
 #t hf aug-cc-pvdz symm=none int=(grid=ultrafine) guess=(read,tcheck) s
 table=(opt,rrhf)\\title\\0,1\Si,0,0.989362,-0.117733,0.012707\O,0,-0.4
 88236,0.689585,-0.02978\O,0,-1.515942,-0.357106,-0.087412\H,0,-2.04921
 5,-0.103348,0.678322\H,0,1.955197,0.999741,0.005115\H,0,1.162655,-0.98
 4266,-1.170292\H,0,1.11373,-0.923697,1.246492\\Version=ES64L-G16RevC.0
 1\HF=-440.9217007\RMSD=9.374e-09\Dipole=0.0765255,-0.1633407,0.5253956
 \Quadrupole=2.1757229,-1.8672779,-0.3084451,-0.1088005,-2.4364099,-0.0

 Normal termination of Gaussian 16 at Tue Apr  8 23:58:20 2025.
 Gaussian 16:  ES64L-G16RevC.01  3-Jul-2019

 ----------------------------------------------------------------------
 #t hf aug-cc-pvdz iop(5/13=1,5/36=2,99/5=2) pseudo=read geom=check gue
 ss=(read,tcheck) scf=(maxcycle=1)
 ----------------------------------------------------------------------
 -----
 title
 -----
 Structure from the checkpoint file:  "BDE49_nonexpt_2042_mol1.chk"
 Charge =  0 Multiplicity = 1

                         Standard orientation:
 ---------------------------------------------------------------------
 Center     Atomic      Atomic             Coordinates (Angstroms)
 Number     Number       Type             X           Y           Z
 ---------------------------------------------------------------------
      1         14           0        0.989362   -0.117733    0.012707
      2          8           0       -0.488236    0.689585   -0.029780
      3          8           0       -1.515942   -0.357106   -0.087412
      4          1           0       -2.049215   -0.103348    0.678322
      5          1           0        1.955197    0.999741    0.005115
      6          1           0        1.162654   -0.984266   -1.170292
      7          1           0        1.113729   -0.923697    1.246492
 ---------------------------------------------------------------------

 SCF Done:  E(RHF) =  -441.695838592     A.U. after    2 cycles

 The electronic state is 1-A.
 Alpha  occ. eigenvalues --  -76.24709 -21.13276 -21.09264  -5.58244  -2.24280
 Alpha  occ. eigenvalues --   -2.20106  -2.19807  -1.90674  -1.40803  -0.76245
 Alpha  occ. eigenvalues --   -0.63343  -0.53411  -0.50322  -0.48644  -0.45086
 Alpha  occ. eigenvalues --   -0.36548  -0.30790
 Alpha virt. eigenvalues --    0.03902   0.05810   0.06357   0.06722   0.07376
 Alpha virt. eigenvalues --    0.09317   0.09449   0.14611   0.15161   0.17046
 Alpha virt. eigenvalues --    0.18761   0.18959   0.20526   0.21779   0.23427

 Mulliken charges:
               1
     1  Si   6.174682
     2  O   -1.234178
     3  O   -1.137386
     4  H    1.028029
     5  H   -1.571436
     6  H   -1.620964
     7  H   -1.638747
 Sum of Mulliken charges =  -0.00000

 Dipole moment (field-independent basis, Debye):
    X=             -0.6629    Y=             -0.0873    Z=              0.5876  Tot=              0.8901

 Test job not archived.
 1\1\GINC-SE105\SP\RHF\Aug-CC-pVDZ\H4O2Si1\OHZDE\08-Apr-2025\0\\#t hf a
 ug-cc-pvdz iop(5/13=1,5/36=2,99/5=2) pseudo=read geom=check guess=(rea
 d,tcheck) scf=(maxcycle=1)\\title\\0,1\Si,0,0.989362,-0.117733,0.01270
 7\O,0,-0.488236,0.689585,-0.02978\O,0,-1.515942,-0.357106,-0.087412\H,
 0,-2.049215,-0.103348,0.678322\H,0,1.955197,0.999741,0.005115\H,0,1.16
 2655,-0.984266,-1.170292\H,0,1.11373,-0.923697,1.246492\\Version=ES64L
 -G16RevC.01\State=1-A\HF=-441.6958386\RMSD=7.965e-02\Dipole=-0.2607891
 ,-0.0343561,0.2311771\Quadrupole=1.9775622,-1.4916272,-0.485935,0.0954

 Normal termination of Gaussian 16 at Tue Apr  8 23:58:22 2025.
