 Gaussian 16, Revision C.01,

 ----------------------------------------------------------------------
 #t hf aug-cc-pvdz symm=none int=(grid=ultrafine) guess=(read,tcheck) s
 table=(opt,rrhf)
 ----------------------------------------------------------------------
 -----
 title
 -----
 Symbolic Z-matrix:
 Charge =  0 Multiplicity = 1

 SCF Done:  E(RHF) =  -1796.84374251     A.U. after   14 cycles
 Normal termination of Gaussian 16 at Wed Apr  9 00:02:29 2025.
 Gaussian 16:  ES64L-G16RevC.01  3-Jul-2019

 ----------------------------------------------------------------------
 #t hf aug-cc-pvdz iop(5/13=1,5/36=2,99/5=2) pseudo=read geom=check gue
 ss=(read,tcheck) scf=(maxcycle=1)
 ----------------------------------------------------------------------
 -----
 title
 -----
 Structure from the checkpoint file:  "BDE49_nonexpt_2146_mol1.chk"
 Charge =  0 Multiplicity = 1

                         Standard orientation:
 ---------------------------------------------------------------------
 Center     Atomic      Atomic             Coordinates (Angstroms)
 Number     Number       Type             X           Y           Z
 ---------------------------------------------------------------------
      1         14           0       -0.061289    0.000000   -0.026840
      2          7           0        0.940621    0.000000   -1.629317
      3         17           0       -1.222339    1.682517   -0.127165
      4         17           0        1.104107   -0.000002    1.654092
      5         17           0       -1.222341   -1.682516   -0.127167
      6          8           0        2.132931    0.000000   -1.501866
 ---------------------------------------------------------------------

 SCF Done:  E(RHF) =  -1798.23497318     A.U. after    2 cycles

 The electronic state is 1-A.
 Alpha  occ. eigenvalues --  -99.92959 -99.92959 -99.92935 -76.37824 -21.16859
 Alpha  occ. eigenvalues --  -15.87652 -10.50465 -10.50444 -10.50355  -9.70262
 Alpha  occ. eigenvalues --   -9.70260  -9.70218  -9.69740  -9.69701  -9.69584
 Alpha  occ. eigenvalues --   -9.69508  -9.69507  -9.69454  -5.71561  -2.33637
 Alpha  occ. eigenvalues --   -2.33322  -2.33278  -1.88107  -1.36294  -1.32284
 Alpha  occ. eigenvalues --   -1.32246  -1.03726  -0.79997  -0.65907  -0.64757
 Alpha  occ. eigenvalues --   -0.64289  -0.59920  -0.59242  -0.57594  -0.56344
 Alpha  occ. eigenvalues --   -0.56187  -0.54991  -0.53983  -0.53350  -0.28432
 Alpha virt. eigenvalues --    0.02911   0.05549   0.05710   0.06097   0.06769
 Alpha virt. eigenvalues --    0.07360   0.09680   0.11026   0.11486   0.12731
 Alpha virt. eigenvalues --    0.13289   0.13549   0.13608   0.14863   0.15476

 Mulliken charges:
               1
     1  Si   2.819195
     2  N    0.828176
     3  Cl  -0.709064
     4  Cl  -0.677612
     5  Cl  -0.709064
     6  O   -1.551632
 Sum of Mulliken charges =  -0.00000

 Dipole moment (field-independent basis, Debye):
    X=              0.9939    Y=              0.0000    Z=              0.1679  Tot=              1.0080

 Test job not archived.
 1\1\GINC-SE094\SP\RHF\Aug-CC-pVDZ\Cl3N1O1Si1\OHZDE\09-Apr-2025\0\\#t h
 f aug-cc-pvdz iop(5/13=1,5/36=2,99/5=2) pseudo=read geom=check guess=(
 read,tcheck) scf=(maxcycle=1)\\title\\0,1\Si,0,-0.061289,0.,-0.02684\N
 ,0,0.940621,0.,-1.629317\Cl,0,-1.222339,1.682517,-0.127165\Cl,0,1.1041
 07,-0.000002,1.654092\Cl,0,-1.222341,-1.682516,-0.127167\O,0,2.132931,
 0.,-1.501866\\Version=ES64L-G16RevC.01\State=1-A\HF=-1798.2349732\RMSD
 =3.791e-02\Dipole=0.3910354,0.0000011,0.06604\Quadrupole=1.1822944,0.9
 734254,-2.1557198,-0.0000024,-0.162977,-0.0000002\PG=C01 [X(Cl3N1O1Si1

 Normal termination of Gaussian 16 at Wed Apr  9 00:02:31 2025.
