 Gaussian 16, Revision C.01,

 ----------------------------------------------------------------------
 #t hf aug-cc-pvdz symm=none int=(grid=ultrafine) guess=(read,tcheck) s
 table=(opt,rrhf)
 ----------------------------------------------------------------------
 -----
 title
 -----
 Symbolic Z-matrix:
 Charge =  0 Multiplicity = 1

 SCF Done:  E(RHF) =  -844.979989876     A.U. after   12 cycles
 Normal termination of Gaussian 16 at Wed Apr  9 00:15:11 2025.
 Gaussian 16:  ES64L-G16RevC.01  3-Jul-2019

 ----------------------------------------------------------------------
 #t hf aug-cc-pvdz iop(5/13=1,5/36=2,99/5=2) pseudo=read geom=check gue
 ss=(read,tcheck) scf=(maxcycle=1)
 ----------------------------------------------------------------------
 -----
 title
 -----
 Structure from the checkpoint file:  "BDE49_nonexpt_2468_mol1.chk"
 Charge =  0 Multiplicity = 1

                         Standard orientation:
 ---------------------------------------------------------------------
 Center     Atomic      Atomic             Coordinates (Angstroms)
 Number     Number       Type             X           Y           Z
 ---------------------------------------------------------------------
      1         14           0       -1.554037    0.884622    0.260027
      2          6           0        0.192216    0.987681   -0.427797
      3          6           0        1.220666    0.033525    0.206798
      4          1           0        0.517546    2.028220   -0.294738
      5          1           0        0.143632    0.826711   -1.511695
      6          6           0        2.635050    0.202254   -0.363849
      7          1           0        0.900159   -1.005015    0.064981
      8          1           0        1.250785    0.193545    1.291549
      9          6           0        3.656214   -0.747892    0.267746
     10          1           0        2.959253    1.239886   -0.218619
     11          1           0        2.605223    0.041605   -1.448220
     12          1           0        3.731686   -0.587014    1.347676
     13          1           0        4.652130   -0.603339   -0.159485
     14          1           0        3.375105   -1.793473    0.108558
     15         16           0       -2.318511   -1.105852   -0.167218
     16          1           0       -3.516365   -0.902214    0.409324
     17          1           0       -2.426138    1.900209   -0.376072
     18          1           0       -1.565208    1.116390    1.724475
 ---------------------------------------------------------------------

 SCF Done:  E(RHF) =  -846.199522329     A.U. after    2 cycles

 The electronic state is 1-A.
 Alpha  occ. eigenvalues --  -76.23333 -75.67896 -13.13800 -13.06472 -13.02146
 Alpha  occ. eigenvalues --  -11.42229 -11.39663 -11.36708 -11.34456  -8.01861
 Alpha  occ. eigenvalues --   -5.56847  -2.20718  -2.18935  -2.18740  -1.24130
 Alpha  occ. eigenvalues --   -1.10196  -1.07056  -0.92206  -0.83197  -0.72419
 Alpha  occ. eigenvalues --   -0.65317  -0.58711  -0.58154  -0.53442  -0.51718
 Alpha  occ. eigenvalues --   -0.50356  -0.48917  -0.46707  -0.45828  -0.45199
 Alpha  occ. eigenvalues --   -0.38066  -0.33754  -0.26687
 Alpha virt. eigenvalues --    0.03628   0.04222   0.04471   0.05075   0.05634
 Alpha virt. eigenvalues --    0.05767   0.06339   0.06517   0.08213   0.08510
 Alpha virt. eigenvalues --    0.08795   0.09417   0.10037   0.11003   0.11274

 Mulliken charges:
               1
     1  Si   5.965500
     2  C   -4.148497
     3  C   -2.517558
     4  H    1.508863
     5  H    1.475078
     6  C   -2.799683
     7  H    1.548606
     8  H    1.658486
     9  C   -4.031037
    10  H    1.427432
    11  H    1.402607
    12  H    1.287921
    13  H    1.106418
    14  H    1.328721
    15  S   -2.513415
    16  H    0.999695
    17  H   -1.834266
    18  H   -1.864870
 Sum of Mulliken charges =  -0.00000

 Dipole moment (field-independent basis, Debye):
    X=              1.5433    Y=             -1.0520    Z=             -0.9179  Tot=              2.0811

 Test job not archived.
 1\1\GINC-SE253\SP\RHF\Aug-CC-pVDZ\C4H12S1Si1\OHZDE\09-Apr-2025\0\\#t h
 f aug-cc-pvdz iop(5/13=1,5/36=2,99/5=2) pseudo=read geom=check guess=(
 read,tcheck) scf=(maxcycle=1)\\title\\0,1\Si,0,-1.554037,0.884622,0.26
 0027\C,0,0.192216,0.987681,-0.427797\C,0,1.220666,0.033525,0.206798\H,
 0,0.517546,2.02822,-0.294738\H,0,0.143632,0.826711,-1.511695\C,0,2.635
 05,0.202254,-0.363849\H,0,0.900159,-1.005015,0.064981\H,0,1.250785,0.1
 93545,1.291549\C,0,3.656214,-0.747892,0.267746\H,0,2.959253,1.239886,-
 0.218619\H,0,2.605223,0.041605,-1.44822\H,0,3.731686,-0.587014,1.34767

 Normal termination of Gaussian 16 at Wed Apr  9 00:15:18 2025.
