 Gaussian 16, Revision C.01,

 ----------------------------------------------------------------------
 #t hf aug-cc-pvdz symm=none int=(grid=ultrafine) guess=(read,tcheck) s
 table=(opt,rrhf)
 ----------------------------------------------------------------------
 -----
 title
 -----
 Symbolic Z-matrix:
 Charge =  0 Multiplicity = 1

 SCF Done:  E(RHF) =  -405.218689060     A.U. after   11 cycles
 Normal termination of Gaussian 16 at Wed Apr  9 00:06:27 2025.
 Gaussian 16:  ES64L-G16RevC.01  3-Jul-2019

 ----------------------------------------------------------------------
 #t hf aug-cc-pvdz iop(5/13=1,5/36=2,99/5=2) pseudo=read geom=check gue
 ss=(read,tcheck) scf=(maxcycle=1)
 ----------------------------------------------------------------------
 -----
 title
 -----
 Structure from the checkpoint file:  "BDE49_nonexpt_2234_mol1.chk"
 Charge =  0 Multiplicity = 1

                         Standard orientation:
 ---------------------------------------------------------------------
 Center     Atomic      Atomic             Coordinates (Angstroms)
 Number     Number       Type             X           Y           Z
 ---------------------------------------------------------------------
      1          6           0        1.517180   -0.399189    0.000000
      2         14           0       -0.113723    0.500983   -0.000001
      3          1           0        1.613023   -1.032605   -0.885678
      4          1           0        1.613026   -1.032598    0.885684
      5          1           0        2.347125    0.313972   -0.000004
      6          8           0       -1.301135   -0.655126   -0.000002
      7          1           0       -2.218808   -0.375739    0.000025
      8          1           0       -0.228119    1.374676   -1.197243
      9          1           0       -0.228124    1.374674    1.197242
 ---------------------------------------------------------------------

 SCF Done:  E(RHF) =  -405.912662808     A.U. after    2 cycles

 The electronic state is 1-A.
 Alpha  occ. eigenvalues --  -76.22339 -21.07075 -11.34539  -5.56186  -2.22692
 Alpha  occ. eigenvalues --   -2.19127  -2.17595  -1.65363  -1.03662  -0.72788
 Alpha  occ. eigenvalues --   -0.59644  -0.56303  -0.54097  -0.48008  -0.42695
 Alpha  occ. eigenvalues --   -0.39567  -0.37198
 Alpha virt. eigenvalues --    0.03641   0.04761   0.05935   0.06561   0.07370
 Alpha virt. eigenvalues --    0.07859   0.08179   0.09299   0.10261   0.13874
 Alpha virt. eigenvalues --    0.15249   0.16769   0.17172   0.18176   0.18589

 Mulliken charges:
               1
     1  C   -4.898446
     2  Si   6.021609
     3  H    1.291238
     4  H    1.291236
     5  H    1.256315
     6  O   -2.567319
     7  H    1.129214
     8  H   -1.761924
     9  H   -1.761922
 Sum of Mulliken charges =  -0.00000

 Dipole moment (field-independent basis, Debye):
    X=             -0.2321    Y=             -0.4564    Z=              0.0000  Tot=              0.5120

 Test job not archived.
 1\1\GINC-SE343\SP\RHF\Aug-CC-pVDZ\C1H6O1Si1\OHZDE\09-Apr-2025\0\\#t hf
  aug-cc-pvdz iop(5/13=1,5/36=2,99/5=2) pseudo=read geom=check guess=(r
 ead,tcheck) scf=(maxcycle=1)\\title\\0,1\C,0,1.51718,-0.399189,0.\Si,0
 ,-0.113723,0.500983,-0.000001\H,0,1.613023,-1.032605,-0.885678\H,0,1.6
 13026,-1.032598,0.885684\H,0,2.347125,0.313972,-0.000004\O,0,-1.301135
 ,-0.655126,-0.000002\H,0,-2.218808,-0.375739,0.000025\H,0,-0.228119,1.
 374676,-1.197243\H,0,-0.228124,1.374674,1.197242\\Version=ES64L-G16Rev
 C.01\State=1-A\HF=-405.9126628\RMSD=8.336e-02\Dipole=-0.0913081,-0.179

 Normal termination of Gaussian 16 at Wed Apr  9 00:06:29 2025.
