 Gaussian 16, Revision C.01,

 ----------------------------------------------------------------------
 #t hf aug-cc-pvdz symm=none int=(grid=ultrafine) guess=(read,tcheck) s
 table=(opt,rrhf)
 ----------------------------------------------------------------------
 -----
 title
 -----
 Symbolic Z-matrix:
 Charge =  0 Multiplicity = 1

 SCF Done:  E(RHF) =  -1617.21939827     A.U. after   16 cycles
 Normal termination of Gaussian 16 at Tue Apr  8 23:28:27 2025.
 Gaussian 16:  ES64L-G16RevC.01  3-Jul-2019

 ----------------------------------------------------------------------
 #t hf aug-cc-pvdz iop(5/13=1,5/36=2,99/5=2) pseudo=read geom=check gue
 ss=(read,tcheck) scf=(maxcycle=1)
 ----------------------------------------------------------------------
 -----
 title
 -----
 Structure from the checkpoint file:  "BDE49_nonexpt_1236_mol1.chk"
 Charge =  0 Multiplicity = 1

                         Standard orientation:
 ---------------------------------------------------------------------
 Center     Atomic      Atomic             Coordinates (Angstroms)
 Number     Number       Type             X           Y           Z
 ---------------------------------------------------------------------
      1         17           0       -1.953916    2.198810   -0.143478
      2         16           0       -1.199624   -1.055205    0.363233
      3          8           0       -1.382708   -2.302498   -0.366318
      4          8           0       -1.569151   -0.917824    1.758260
      5         15           0       -2.510282    0.300521   -0.827110
      6          6           0        0.498161   -0.537370    0.183248
      7          6           0        1.048647    0.340108    1.115433
      8          6           0        2.375053    0.732189    0.968880
      9          6           0        3.157834    0.259217   -0.090049
     10          6           0        2.577425   -0.625835   -1.008981
     11          6           0        1.254282   -1.027941   -0.881536
     12          6           0        4.603736    0.664964   -0.225453
     13          1           0        0.449198    0.693066    1.944211
     14          1           0        2.809172    1.414373    1.691625
     15          1           0        3.172485   -1.009290   -1.830959
     16          1           0        0.813104   -1.727456   -1.580329
     17          1           0        4.807776    1.598531    0.301888
     18          1           0        4.884141    0.794830   -1.273232
     19          1           0        5.261239   -0.103228    0.195504
     20          1           0       -1.608298    0.265452   -1.919445
 ---------------------------------------------------------------------

 SCF Done:  E(RHF) =  -1619.84187424     A.U. after    2 cycles

 The electronic state is 1-A.
 Alpha  occ. eigenvalues -- -105.27423 -99.91370 -75.89192 -21.05335 -21.05195
 Alpha  occ. eigenvalues --  -13.51698 -13.39592 -13.35976 -11.53886 -11.46792
 Alpha  occ. eigenvalues --  -11.46740 -11.45705 -11.43370 -11.40860 -11.38935
 Alpha  occ. eigenvalues --  -10.48610  -9.68479  -9.67898  -9.67744  -8.24182
 Alpha  occ. eigenvalues --   -2.84244  -1.83144  -1.65699  -1.53597  -1.52245
 Alpha  occ. eigenvalues --   -1.50375  -1.38123  -1.24671  -1.18773  -1.12126
 Alpha  occ. eigenvalues --   -1.05119  -0.95095  -0.89876  -0.84168  -0.77327
 Alpha  occ. eigenvalues --   -0.70321  -0.66093  -0.63697  -0.60688  -0.59798
 Alpha  occ. eigenvalues --   -0.58248  -0.56161  -0.55024  -0.54967  -0.54101
 Alpha  occ. eigenvalues --   -0.50412  -0.47429  -0.47283  -0.44974  -0.40820
 Alpha  occ. eigenvalues --   -0.40405  -0.38350  -0.36109  -0.35592  -0.35223
 Alpha  occ. eigenvalues --   -0.21133  -0.08120
 Alpha virt. eigenvalues --    0.02825   0.04254   0.04950   0.05077   0.05835
 Alpha virt. eigenvalues --    0.06316   0.07177   0.07404   0.07906   0.08738
 Alpha virt. eigenvalues --    0.09055   0.10084   0.10443   0.11486   0.12138

 Mulliken charges:
               1
     1  Cl  -1.298704
     2  S    5.053964
     3  O   -2.850994
     4  O   -2.900724
     5  P    2.933143
     6  C    2.622910
     7  C   -4.576092
     8  C    0.216938
     9  C    2.220400
    10  C   -0.351980
    11  C   -5.665032
    12  C   -5.620848
    13  H    1.899272
    14  H    1.861777
    15  H    1.857831
    16  H    1.976374
    17  H    1.174574
    18  H    1.089501
    19  H    1.144834
    20  H   -0.787143
 Sum of Mulliken charges =   0.00000

 Dipole moment (field-independent basis, Debye):
    X=             -4.0900    Y=              0.0631    Z=             -2.5222  Tot=              4.8055

 Test job not archived.
 1\1\GINC-SE165\SP\RHF\Aug-CC-pVDZ\C7H8Cl1O2P1S1\OHZDE\08-Apr-2025\0\\#
 t hf aug-cc-pvdz iop(5/13=1,5/36=2,99/5=2) pseudo=read geom=check gues
 s=(read,tcheck) scf=(maxcycle=1)\\title\\0,1\Cl,0,-1.953916,2.19881,-0
 .143478\S,0,-1.199624,-1.055205,0.363233\O,0,-1.382708,-2.302498,-0.36
 6318\O,0,-1.569151,-0.917824,1.75826\P,0,-2.510282,0.300521,-0.82711\C
 ,0,0.498161,-0.53737,0.183248\C,0,1.048647,0.340108,1.115433\C,0,2.375
 053,0.732189,0.96888\C,0,3.157834,0.259217,-0.090049\C,0,2.577425,-0.6
 25835,-1.008981\C,0,1.254282,-1.027941,-0.881536\C,0,4.603736,0.664964

 Normal termination of Gaussian 16 at Tue Apr  8 23:28:44 2025.
