 Gaussian 16, Revision C.01,

 ----------------------------------------------------------------------
 #t hf aug-cc-pvdz symm=none int=(grid=ultrafine) guess=(read,tcheck) s
 table=(opt,rrhf)
 ----------------------------------------------------------------------
 -----
 title
 -----
 Symbolic Z-matrix:
 Charge =  0 Multiplicity = 1

 SCF Done:  E(RHF) =  -366.185486702     A.U. after   14 cycles
 Normal termination of Gaussian 16 at Wed Apr  9 00:39:49 2025.
 Gaussian 16:  ES64L-G16RevC.01  3-Jul-2019

 ----------------------------------------------------------------------
 #t hf aug-cc-pvdz iop(5/13=1,5/36=2,99/5=2) pseudo=read geom=check gue
 ss=(read,tcheck) scf=(maxcycle=1)
 ----------------------------------------------------------------------
 -----
 title
 -----
 Structure from the checkpoint file:  "BDE49_nonexpt_594_mol1.chk"
 Charge =  0 Multiplicity = 1

                         Standard orientation:
 ---------------------------------------------------------------------
 Center     Atomic      Atomic             Coordinates (Angstroms)
 Number     Number       Type             X           Y           Z
 ---------------------------------------------------------------------
      1          5           0        0.000000    0.000000   -1.751026
      2          6           0        0.000000    0.000000   -0.170872
      3          6           0        0.003388    1.198957    0.560670
      4          6           0       -0.003388   -1.198957    0.560670
      5          6           0        0.000000   -1.204246    1.953825
      6          6           0       -0.000000   -0.000000    2.655122
      7          6           0       -0.000000    1.204246    1.953825
      8          1           0       -0.000000   -0.000000    3.739767
      9          1           0       -0.005368    2.145819    2.492801
     10          1           0       -0.009193    2.145357    0.028357
     11          1           0        0.009193   -2.145357    0.028357
     12          1           0        0.005368   -2.145819    2.492801
     13          7           0       -0.730290   -0.998683   -2.446676
     14          7           0        0.730290    0.998683   -2.446676
     15          1           0        1.383716    1.601003   -1.975598
     16          1           0        0.777420    1.060904   -3.450863
     17          1           0       -1.383716   -1.601003   -1.975598
     18          1           0       -0.777420   -1.060904   -3.450863
 ---------------------------------------------------------------------

 SCF Done:  E(RHF) =  -367.930327885     A.U. after    2 cycles

 The electronic state is 1-A.
 Alpha  occ. eigenvalues --  -15.70695 -15.70648 -11.50313 -11.41737 -11.41264
 Alpha  occ. eigenvalues --  -11.39266 -11.39216 -11.34594  -7.61507  -1.39016
 Alpha  occ. eigenvalues --   -1.30611  -1.22911  -1.08370  -1.07822  -0.86841
 Alpha  occ. eigenvalues --   -0.85122  -0.76815  -0.70796  -0.66813  -0.65573
 Alpha  occ. eigenvalues --   -0.62280  -0.57011  -0.55990  -0.51622  -0.51496
 Alpha  occ. eigenvalues --   -0.49170  -0.44400  -0.42832  -0.38991  -0.34272
 Alpha  occ. eigenvalues --   -0.31938  -0.31760
 Alpha virt. eigenvalues --    0.03315   0.04085   0.04396   0.05229   0.05765
 Alpha virt. eigenvalues --    0.05992   0.07013   0.08299   0.08353   0.08677
 Alpha virt. eigenvalues --    0.09447   0.09924   0.10669   0.12059   0.12338

 Mulliken charges:
               1
     1  B    3.522192
     2  C   -4.001107
     3  C    0.201911
     4  C    0.201911
     5  C   -1.089122
     6  C   -1.947433
     7  C   -1.089122
     8  H    1.526046
     9  H    1.525422
    10  H    1.778650
    11  H    1.778650
    12  H    1.525422
    13  N   -3.483660
    14  N   -3.483660
    15  H    0.774134
    16  H    0.742816
    17  H    0.774134
    18  H    0.742816
 Sum of Mulliken charges =  -0.00000

 Dipole moment (field-independent basis, Debye):
    X=              0.0000    Y=             -0.0000    Z=             -0.9510  Tot=              0.9510

 Test job not archived.
 1\1\GINC-SE284\SP\RHF\Aug-CC-pVDZ\C6H9B1N2\OHZDE\09-Apr-2025\0\\#t hf
 aug-cc-pvdz iop(5/13=1,5/36=2,99/5=2) pseudo=read geom=check guess=(re
 ad,tcheck) scf=(maxcycle=1)\\title\\0,1\B,0,0.,0.,-1.751026\C,0,0.,0.,
 -0.170872\C,0,-0.003388,-1.198957,0.56067\C,0,0.003388,1.198957,0.5606
 7\C,0,0.,1.204246,1.953825\C,0,0.,0.,2.655122\C,0,0.,-1.204246,1.95382
 5\H,0,0.,0.,3.739767\H,0,0.005368,-2.145819,2.492801\H,0,0.009193,-2.1
 45357,0.028357\H,0,-0.009193,2.145357,0.028357\H,0,-0.005368,2.145819,
 2.492801\N,0,0.73029,0.998683,-2.446676\N,0,-0.73029,-0.998683,-2.4466

 Normal termination of Gaussian 16 at Wed Apr  9 00:39:55 2025.
