 Gaussian 16, Revision C.01,

 ----------------------------------------------------------------------
 #t hf aug-cc-pvdz symm=none int=(grid=ultrafine) guess=(read,tcheck) s
 table=(opt,rrhf)
 ----------------------------------------------------------------------
 -----
 title
 -----
 Symbolic Z-matrix:
 Charge =  0 Multiplicity = 1

 SCF Done:  E(RHF) =  -270.067144605     A.U. after   12 cycles

 1\1\GINC-SE128\Stability\RHF\Aug-CC-pVDZ\C5H10O1\OHZDE\08-Apr-2025\0\\
 #t hf aug-cc-pvdz symm=none int=(grid=ultrafine) guess=(read,tcheck) s
 table=(opt,rrhf)\\title\\0,1\C,0,-2.554854,0.130707,0.000008\C,0,-1.29
 6107,-0.731758,-0.000007\H,0,-3.451475,-0.493777,0.000006\H,0,-2.58505
 2,0.778056,-0.878556\H,0,-2.585044,0.778037,0.878586\C,0,0.,0.071565,-
 0.000009\H,0,-1.275797,-1.399857,-0.870719\H,0,-1.275787,-1.399875,0.8
 7069\O,0,0.,1.282258,-0.000004\C,0,1.296107,-0.731758,0.000007\C,0,2.5
 54854,0.130706,0.000001\H,0,1.275796,-1.399879,-0.870688\H,0,1.275788,

 Normal termination of Gaussian 16 at Tue Apr  8 23:03:03 2025.
 Gaussian 16:  ES64L-G16RevC.01  3-Jul-2019

 ----------------------------------------------------------------------
 #t hf aug-cc-pvdz iop(5/13=1,5/36=2,99/5=2) pseudo=read geom=check gue
 ss=(read,tcheck) scf=(maxcycle=1)
 ----------------------------------------------------------------------
 -----
 title
 -----
 Structure from the checkpoint file:  "BDE49_expt_225_mol1.chk"
 Charge =  0 Multiplicity = 1

                         Standard orientation:
 ---------------------------------------------------------------------
 Center     Atomic      Atomic             Coordinates (Angstroms)
 Number     Number       Type             X           Y           Z
 ---------------------------------------------------------------------
      1          6           0       -2.554854    0.130707    0.000008
      2          6           0       -1.296107   -0.731758   -0.000007
      3          1           0       -3.451475   -0.493778    0.000006
      4          1           0       -2.585052    0.778056   -0.878556
      5          1           0       -2.585044    0.778037    0.878586
      6          6           0       -0.000000    0.071565   -0.000009
      7          1           0       -1.275797   -1.399857   -0.870719
      8          1           0       -1.275787   -1.399875    0.870690
      9          8           0       -0.000000    1.282258   -0.000004
     10          6           0        1.296107   -0.731758    0.000007
     11          6           0        2.554854    0.130706    0.000001
     12          1           0        1.275796   -1.399879   -0.870688
     13          1           0        1.275788   -1.399854    0.870721
     14          1           0        2.585053    0.778033   -0.878579
     15          1           0        3.451475   -0.493777    0.000015
     16          1           0        2.585043    0.778059    0.878562
 ---------------------------------------------------------------------

 SCF Done:  E(RHF) =  -271.366899344     A.U. after    2 cycles

 The electronic state is 1-A.
 Alpha  occ. eigenvalues --  -21.04443 -11.48806 -11.42623 -11.40374 -11.36934
 Alpha  occ. eigenvalues --  -11.35863  -1.70381  -1.21158  -1.14197  -0.97034
 Alpha  occ. eigenvalues --   -0.89180  -0.72511  -0.65128  -0.64693  -0.60605
 Alpha  occ. eigenvalues --   -0.55496  -0.54387  -0.50992  -0.50177  -0.48012
 Alpha  occ. eigenvalues --   -0.45682  -0.45165  -0.40755  -0.27883
 Alpha virt. eigenvalues --    0.03437   0.04799   0.05206   0.05334   0.05986
 Alpha virt. eigenvalues --    0.06244   0.06593   0.07256   0.08385   0.09466
 Alpha virt. eigenvalues --    0.09790   0.12990   0.14025   0.14248   0.14273

 Mulliken charges:
               1
     1  C   -3.941262
     2  C   -3.923688
     3  H    1.042663
     4  H    1.330943
     5  H    1.330943
     6  C    5.843217
     7  H    1.486801
     8  H    1.486805
     9  O   -3.469629
    10  C   -3.923687
    11  C   -3.941262
    12  H    1.486809
    13  H    1.486797
    14  H    1.330939
    15  H    1.042664
    16  H    1.330947
 Sum of Mulliken charges =  -0.00000

 Dipole moment (field-independent basis, Debye):
    X=              0.0000    Y=             -1.2079    Z=              0.0000  Tot=              1.2079

 Test job not archived.
 1\1\GINC-SE128\SP\RHF\Aug-CC-pVDZ\C5H10O1\OHZDE\08-Apr-2025\0\\#t hf a
 ug-cc-pvdz iop(5/13=1,5/36=2,99/5=2) pseudo=read geom=check guess=(rea
 d,tcheck) scf=(maxcycle=1)\\title\\0,1\C,0,-2.554854,0.130707,0.000008
 \C,0,-1.296107,-0.731758,-0.000007\H,0,-3.451475,-0.493777,0.000006\H,
 0,-2.585052,0.778056,-0.878556\H,0,-2.585044,0.778037,0.878586\C,0,0.,
 0.071565,-0.000009\H,0,-1.275797,-1.399857,-0.870719\H,0,-1.275787,-1.
 399875,0.87069\O,0,0.,1.282258,-0.000004\C,0,1.296107,-0.731758,0.0000
 07\C,0,2.554854,0.130706,0.000001\H,0,1.275796,-1.399879,-0.870688\H,0

 Normal termination of Gaussian 16 at Tue Apr  8 23:03:08 2025.
