 Gaussian 16, Revision C.01,

 ----------------------------------------------------------------------
 #t hf aug-cc-pvdz symm=none int=(grid=ultrafine) guess=(read,tcheck) s
 table=(opt,rrhf)
 ----------------------------------------------------------------------
 -----
 title
 -----
 Symbolic Z-matrix:
 Charge =  0 Multiplicity = 1

 SCF Done:  E(RHF) =  -967.660779728     A.U. after   17 cycles
 Normal termination of Gaussian 16 at Tue Apr  8 23:26:30 2025.
 Gaussian 16:  ES64L-G16RevC.01  3-Jul-2019

 ----------------------------------------------------------------------
 #t hf aug-cc-pvdz iop(5/13=1,5/36=2,99/5=2) pseudo=read geom=check gue
 ss=(read,tcheck) scf=(maxcycle=1)
 ----------------------------------------------------------------------
 -----
 title
 -----
 Structure from the checkpoint file:  "BDE49_nonexpt_1198_mol1.chk"
 Charge =  0 Multiplicity = 1

                         Standard orientation:
 ---------------------------------------------------------------------
 Center     Atomic      Atomic             Coordinates (Angstroms)
 Number     Number       Type             X           Y           Z
 ---------------------------------------------------------------------
      1          6           0       -3.248670    0.084729    0.434097
      2          8           0       -4.431291    0.099273    0.218213
      3         16           0       -2.274437   -0.781222   -0.815277
      4          8           0       -0.659522   -0.756877   -0.248285
      5          6           0        0.109673    0.369482   -0.475072
      6          8           0       -0.346725    1.415247   -0.847771
      7          6           0       -2.546844    0.706364    1.608785
      8          1           0       -3.298499    1.009078    2.337524
      9          1           0       -1.987715    1.581317    1.267850
     10          1           0       -1.838776    0.007537    2.057696
     11          6           0        1.540488    0.112165   -0.163633
     12          6           0        2.012569   -1.144595    0.233793
     13          6           0        3.365185   -1.319732    0.506448
     14          6           0        4.248462   -0.248082    0.384063
     15          6           0        3.780181    1.004598   -0.012856
     16          6           0        2.430391    1.186353   -0.286167
     17          1           0        1.321300   -1.971340    0.324673
     18          1           0        3.731018   -2.292731    0.812962
     19          1           0        5.302199   -0.389086    0.596820
     20          1           0        4.467713    1.836755   -0.109277
     21          1           0        2.045445    2.149171   -0.597817
 ---------------------------------------------------------------------

 SCF Done:  E(RHF) =  -970.426263686     A.U. after    2 cycles

 The electronic state is 1-A.
 Alpha  occ. eigenvalues --  -75.75587 -21.11984 -21.07752 -21.07096 -13.23552
 Alpha  occ. eigenvalues --  -13.17199 -13.11197 -11.56117 -11.53842 -11.52105
 Alpha  occ. eigenvalues --  -11.45713 -11.45425 -11.43589 -11.42842 -11.40761
 Alpha  occ. eigenvalues --  -11.38779  -8.09302  -1.85579  -1.73638  -1.68851
 Alpha  occ. eigenvalues --   -1.36199  -1.17619  -1.13531  -1.11416  -1.07722
 Alpha  occ. eigenvalues --   -0.92923  -0.88480  -0.81001  -0.75585  -0.72628
 Alpha  occ. eigenvalues --   -0.67469  -0.64326  -0.63302  -0.61284  -0.61148
 Alpha  occ. eigenvalues --   -0.60273  -0.58328  -0.57338  -0.53389  -0.51326
 Alpha  occ. eigenvalues --   -0.49513  -0.48220  -0.46889  -0.46386  -0.42316
 Alpha  occ. eigenvalues --   -0.38210  -0.35067  -0.34034  -0.31826  -0.27514
 Alpha  occ. eigenvalues --   -0.25508
 Alpha virt. eigenvalues --    0.02582   0.04479   0.04720   0.04816   0.06291
 Alpha virt. eigenvalues --    0.06505   0.06795   0.07241   0.07978   0.08262
 Alpha virt. eigenvalues --    0.08993   0.09915   0.10468   0.10900   0.11606

 Mulliken charges:
               1
     1  C    2.677889
     2  O   -3.045812
     3  S    1.308626
     4  O   -2.888850
     5  C    4.496837
     6  O   -3.612266
     7  C   -4.784298
     8  H    1.159044
     9  H    1.402527
    10  H    1.555063
    11  C    3.213000
    12  C   -0.987921
    13  C   -1.222976
    14  C   -3.191660
    15  C   -1.211794
    16  C   -3.127313
    17  H    2.005563
    18  H    1.505748
    19  H    1.528113
    20  H    1.475899
    21  H    1.744578
 Sum of Mulliken charges =   0.00000

 Dipole moment (field-independent basis, Debye):
    X=              2.5438    Y=             -0.8078    Z=              0.1284  Tot=              2.6720

 Test job not archived.
 1\1\GINC-SE174\SP\RHF\Aug-CC-pVDZ\C9H8O3S1\OHZDE\08-Apr-2025\0\\#t hf
 aug-cc-pvdz iop(5/13=1,5/36=2,99/5=2) pseudo=read geom=check guess=(re
 ad,tcheck) scf=(maxcycle=1)\\title\\0,1\C,0,-3.24867,0.084729,0.434097
 \O,0,-4.431291,0.099273,0.218213\S,0,-2.274437,-0.781222,-0.815277\O,0
 ,-0.659522,-0.756877,-0.248285\C,0,0.109673,0.369482,-0.475072\O,0,-0.
 346725,1.415247,-0.847771\C,0,-2.546844,0.706364,1.608785\H,0,-3.29849
 9,1.009078,2.337524\H,0,-1.987715,1.581317,1.26785\H,0,-1.838776,0.007
 537,2.057696\C,0,1.540488,0.112165,-0.163633\C,0,2.012569,-1.144595,0.

 Normal termination of Gaussian 16 at Tue Apr  8 23:26:46 2025.
