 Gaussian 16, Revision C.01,

 ----------------------------------------------------------------------
 #t hf aug-cc-pvdz symm=none int=(grid=ultrafine) guess=(read,tcheck) s
 table=(opt,rrhf)
 ----------------------------------------------------------------------
 -----
 title
 -----
 Symbolic Z-matrix:
 Charge =  0 Multiplicity = 1

 SCF Done:  E(RHF) =  -720.582746792     A.U. after   12 cycles
 Normal termination of Gaussian 16 at Wed Apr  9 00:14:15 2025.
 Gaussian 16:  ES64L-G16RevC.01  3-Jul-2019

 ----------------------------------------------------------------------
 #t hf aug-cc-pvdz iop(5/13=1,5/36=2,99/5=2) pseudo=read geom=check gue
 ss=(read,tcheck) scf=(maxcycle=1)
 ----------------------------------------------------------------------
 -----
 title
 -----
 Structure from the checkpoint file:  "BDE49_nonexpt_2456_mol1.chk"
 Charge =  0 Multiplicity = 1

                         Standard orientation:
 ---------------------------------------------------------------------
 Center     Atomic      Atomic             Coordinates (Angstroms)
 Number     Number       Type             X           Y           Z
 ---------------------------------------------------------------------
      1         14           0        2.193436    0.356122   -0.394149
      2         14           0        0.370974   -0.669241    0.704572
      3          5           0       -1.430710   -0.025397   -0.031972
      4          1           0        0.509790   -0.387987    2.158627
      5          1           0        0.515023   -2.143865    0.522619
      6          1           0        2.150716    0.063732   -1.849032
      7          1           0        3.490528   -0.128530    0.138350
      8          8           0       -2.172112   -0.846631   -0.825482
      9          6           0       -1.999845    1.407323    0.262255
     10          1           0        2.139290    1.829160   -0.220576
     11          1           0       -1.788890   -1.718603   -0.962209
     12          1           0       -1.290453    2.186192   -0.042170
     13          1           0       -2.145104    1.549497    1.340183
     14          1           0       -2.953135    1.590157   -0.241534
 ---------------------------------------------------------------------

 SCF Done:  E(RHF) =  -721.541424086     A.U. after    2 cycles

 The electronic state is 1-A.
 Alpha  occ. eigenvalues --  -76.21555 -76.20017 -21.07151 -11.33374  -7.62356
 Alpha  occ. eigenvalues --   -5.54923  -5.53710  -2.16989  -2.16949  -2.16768
 Alpha  occ. eigenvalues --   -2.16241  -2.15709  -2.14816  -1.74319  -1.06423
 Alpha  occ. eigenvalues --   -0.82163  -0.74017  -0.69487  -0.57509  -0.55233
 Alpha  occ. eigenvalues --   -0.52957  -0.48503  -0.47146  -0.46719  -0.45082
 Alpha  occ. eigenvalues --   -0.42900  -0.36832  -0.30723
 Alpha virt. eigenvalues --    0.03529   0.03882   0.04398   0.04733   0.06736
 Alpha virt. eigenvalues --    0.07415   0.07624   0.08000   0.08185   0.08400
 Alpha virt. eigenvalues --    0.08786   0.09622   0.09702   0.09990   0.10235

 Mulliken charges:
               1
     1  Si   5.195584
     2  Si   3.667686
     3  B    4.587936
     4  H   -1.773910
     5  H   -1.789955
     6  H   -1.585695
     7  H   -1.644732
     8  O   -4.172125
     9  C   -5.895368
    10  H   -1.576132
    11  H    1.467318
    12  H    1.125146
    13  H    1.019661
    14  H    1.374585
 Sum of Mulliken charges =  -0.00000

 Dipole moment (field-independent basis, Debye):
    X=             -0.7099    Y=             -0.4893    Z=             -0.2537  Tot=              0.8987

 Test job not archived.
 1\1\GINC-SE162\SP\RHF\Aug-CC-pVDZ\C1H9B1O1Si2\OHZDE\09-Apr-2025\0\\#t
 hf aug-cc-pvdz iop(5/13=1,5/36=2,99/5=2) pseudo=read geom=check guess=
 (read,tcheck) scf=(maxcycle=1)\\title\\0,1\Si,0,2.193436,0.356122,-0.3
 94149\Si,0,0.370974,-0.669241,0.704572\B,0,-1.43071,-0.025397,-0.03197
 2\H,0,0.50979,-0.387987,2.158627\H,0,0.515023,-2.143865,0.522619\H,0,2
 .150716,0.063732,-1.849032\H,0,3.490528,-0.12853,0.13835\O,0,-2.172112
 ,-0.846631,-0.825482\C,0,-1.999845,1.407323,0.262255\H,0,2.13929,1.829
 16,-0.220576\H,0,-1.78889,-1.718603,-0.962209\H,0,-1.290453,2.186192,-

 Normal termination of Gaussian 16 at Wed Apr  9 00:14:19 2025.
