 Gaussian 16, Revision C.01,

 ----------------------------------------------------------------------
 #t hf aug-cc-pvdz symm=none int=(grid=ultrafine) guess=(read,tcheck) s
 table=(opt,rrhf)
 ----------------------------------------------------------------------
 -----
 title
 -----
 Symbolic Z-matrix:
 Charge =  0 Multiplicity = 1

 SCF Done:  E(RHF) =  -385.366238743     A.U. after   11 cycles
 Normal termination of Gaussian 16 at Wed Apr  9 00:01:25 2025.
 Gaussian 16:  ES64L-G16RevC.01  3-Jul-2019

 ----------------------------------------------------------------------
 #t hf aug-cc-pvdz iop(5/13=1,5/36=2,99/5=2) pseudo=read geom=check gue
 ss=(read,tcheck) scf=(maxcycle=1)
 ----------------------------------------------------------------------
 -----
 title
 -----
 Structure from the checkpoint file:  "BDE49_nonexpt_2135_mol1.chk"
 Charge =  0 Multiplicity = 1

                         Standard orientation:
 ---------------------------------------------------------------------
 Center     Atomic      Atomic             Coordinates (Angstroms)
 Number     Number       Type             X           Y           Z
 ---------------------------------------------------------------------
      1          7           0        1.409263   -0.559259   -0.061248
      2         14           0        0.064039    0.522658    0.029229
      3          1           0        1.505036   -1.307160    0.611518
      4          1           0        2.317379   -0.200127   -0.319335
      5          6           0       -1.532533   -0.455449   -0.039768
      6          1           0       -1.606796   -1.018978   -0.973136
      7          1           0       -2.396372    0.212269    0.031124
      8          1           0       -1.597265   -1.164850    0.791361
      9          1           0        0.191988    1.432669   -1.134927
     10          1           0        0.019847    1.376474    1.251532
 ---------------------------------------------------------------------

 SCF Done:  E(RHF) =  -386.016122434     A.U. after    2 cycles

 The electronic state is 1-A.
 Alpha  occ. eigenvalues --  -76.20763 -15.72342 -11.34114  -5.54622  -2.19644
 Alpha  occ. eigenvalues --   -2.17490  -2.16245  -1.24771  -1.02968  -0.72603
 Alpha  occ. eigenvalues --   -0.64268  -0.56153  -0.55400  -0.49527  -0.45820
 Alpha  occ. eigenvalues --   -0.41763  -0.36934
 Alpha virt. eigenvalues --    0.03557   0.04795   0.05550   0.06146   0.07301
 Alpha virt. eigenvalues --    0.07517   0.08258   0.08495   0.09454   0.10832
 Alpha virt. eigenvalues --    0.13803   0.16161   0.16707   0.17345   0.18432

 Mulliken charges:
               1
     1  N   -2.236745
     2  Si   5.472326
     3  H    0.662828
     4  H    0.682626
     5  C   -4.875971
     6  H    1.262962
     7  H    1.291527
     8  H    1.285672
     9  H   -1.759957
    10  H   -1.785267
 Sum of Mulliken charges =   0.00000

 Dipole moment (field-independent basis, Debye):
    X=              0.5326    Y=             -0.8761    Z=              0.4441  Tot=              1.1173

 Test job not archived.
 1\1\GINC-SE070\SP\RHF\Aug-CC-pVDZ\C1H7N1Si1\OHZDE\09-Apr-2025\0\\#t hf
  aug-cc-pvdz iop(5/13=1,5/36=2,99/5=2) pseudo=read geom=check guess=(r
 ead,tcheck) scf=(maxcycle=1)\\title\\0,1\N,0,1.409263,-0.559259,-0.061
 248\Si,0,0.064039,0.522658,0.029229\H,0,1.505036,-1.30716,0.611518\H,0
 ,2.317379,-0.200127,-0.319335\C,0,-1.532533,-0.455449,-0.039768\H,0,-1
 .606796,-1.018978,-0.973136\H,0,-2.396372,0.212269,0.031124\H,0,-1.597
 265,-1.16485,0.791361\H,0,0.191988,1.432669,-1.134927\H,0,0.019847,1.3
 76474,1.251532\\Version=ES64L-G16RevC.01\State=1-A\HF=-386.0161224\RMS

 Normal termination of Gaussian 16 at Wed Apr  9 00:01:27 2025.
