 Gaussian 16, Revision C.01,

 ----------------------------------------------------------------------
 #t hf aug-cc-pvdz symm=none int=(grid=ultrafine) guess=(read,tcheck) s
 table=(opt,rrhf)
 ----------------------------------------------------------------------
 -----
 title
 -----
 Symbolic Z-matrix:
 Charge =  0 Multiplicity = 1

 SCF Done:  E(RHF) =  -1021.26641380     A.U. after   13 cycles
 Normal termination of Gaussian 16 at Tue Apr  8 23:55:21 2025.
 Gaussian 16:  ES64L-G16RevC.01  3-Jul-2019

 ----------------------------------------------------------------------
 #t hf aug-cc-pvdz iop(5/13=1,5/36=2,99/5=2) pseudo=read geom=check gue
 ss=(read,tcheck) scf=(maxcycle=1)
 ----------------------------------------------------------------------
 -----
 title
 -----
 Structure from the checkpoint file:  "BDE49_nonexpt_196_mol1.chk"
 Charge =  0 Multiplicity = 1

                         Standard orientation:
 ---------------------------------------------------------------------
 Center     Atomic      Atomic             Coordinates (Angstroms)
 Number     Number       Type             X           Y           Z
 ---------------------------------------------------------------------
      1         17           0       -1.780704   -0.641314   -0.000349
      2         17           0        0.233041    1.617796   -0.000241
      3          5           0       -0.090516   -0.121628    0.001188
      4          6           0        1.032540   -1.171760    0.000477
      5          6           0        2.339068   -0.874742    0.000153
      6          1           0        0.741114   -2.219743    0.000245
      7          1           0        2.688919    0.152567    0.000363
      8          1           0        3.103177   -1.645871   -0.000304
 ---------------------------------------------------------------------

 SCF Done:  E(RHF) =  -1022.23642095     A.U. after    2 cycles

 The electronic state is 1-A.
 Alpha  occ. eigenvalues --  -99.89613 -99.89579 -11.44295 -11.37517 -10.47034
 Alpha  occ. eigenvalues --  -10.46783  -9.66986  -9.66714  -9.66397  -9.66329
 Alpha  occ. eigenvalues --   -9.66221  -9.66151  -7.71261  -1.39890  -1.29284
 Alpha  occ. eigenvalues --   -1.16906  -0.89188  -0.76913  -0.67797  -0.63536
 Alpha  occ. eigenvalues --   -0.58179  -0.57505  -0.52881  -0.52165  -0.49971
 Alpha  occ. eigenvalues --   -0.45686  -0.39617
 Alpha virt. eigenvalues --    0.02835   0.03800   0.04354   0.04684   0.04763
 Alpha virt. eigenvalues --    0.06261   0.08019   0.08975   0.12009   0.12240
 Alpha virt. eigenvalues --    0.13308   0.15162   0.15495   0.15895   0.16024

 Mulliken charges:
               1
     1  Cl  -1.274595
     2  Cl  -1.133393
     3  B    3.011933
     4  C   -2.649059
     5  C   -2.189963
     6  H    1.527109
     7  H    1.309828
     8  H    1.398140
 Sum of Mulliken charges =  -0.00000

 Dipole moment (field-independent basis, Debye):
    X=              2.2110    Y=             -1.0613    Z=              0.0014  Tot=              2.4526

 Test job not archived.
 1\1\GINC-SE344\SP\RHF\Aug-CC-pVDZ\C2H3B1Cl2\OHZDE\08-Apr-2025\0\\#t hf
  aug-cc-pvdz iop(5/13=1,5/36=2,99/5=2) pseudo=read geom=check guess=(r
 ead,tcheck) scf=(maxcycle=1)\\title\\0,1\Cl,0,1.780704,-0.641314,0.000
 349\Cl,0,-0.233041,1.617796,0.000241\B,0,0.090516,-0.121628,-0.001188\
 C,0,-1.03254,-1.17176,-0.000477\C,0,-2.339068,-0.874742,-0.000153\H,0,
 -0.741115,-2.219743,-0.000245\H,0,-2.688919,0.152567,-0.000363\H,0,-3.
 103177,-1.64587,0.000304\\Version=ES64L-G16RevC.01\State=1-A\HF=-1022.
 2364209\RMSD=4.210e-01\Dipole=-0.8698902,-0.4175572,-0.000546\Quadrupo

 Normal termination of Gaussian 16 at Tue Apr  8 23:55:24 2025.
