 Gaussian 16, Revision C.01,

 ----------------------------------------------------------------------
 #t hf aug-cc-pvdz symm=none int=(grid=ultrafine) guess=(read,tcheck) s
 table=(opt,rrhf)
 ----------------------------------------------------------------------
 -----
 title
 -----
 Symbolic Z-matrix:
 Charge =  0 Multiplicity = 1

 SCF Done:  E(RHF) =  -575.606579107     A.U. after   14 cycles
 Normal termination of Gaussian 16 at Wed Apr  9 00:21:38 2025.
 Gaussian 16:  ES64L-G16RevC.01  3-Jul-2019

 ----------------------------------------------------------------------
 #t hf aug-cc-pvdz iop(5/13=1,5/36=2,99/5=2) pseudo=read geom=check gue
 ss=(read,tcheck) scf=(maxcycle=1)
 ----------------------------------------------------------------------
 -----
 title
 -----
 Structure from the checkpoint file:  "BDE49_nonexpt_2636_mol1.chk"
 Charge =  0 Multiplicity = 1

                         Standard orientation:
 ---------------------------------------------------------------------
 Center     Atomic      Atomic             Coordinates (Angstroms)
 Number     Number       Type             X           Y           Z
 ---------------------------------------------------------------------
      1          9           0       -1.248521    1.007020    0.178317
      2         16           0       -0.806792   -0.564798   -0.212841
      3          6           0        0.874544   -0.526911    0.444106
      4          6           0        1.797399    0.476778   -0.241399
      5          1           0        0.819011   -0.360927    1.522529
      6          1           0        1.908810    0.247412   -1.302909
      7          1           0        2.786589    0.464033    0.225531
      8          1           0        1.390601    1.485162   -0.151111
      9          1           0        1.208695   -1.561298    0.290322
 ---------------------------------------------------------------------

 SCF Done:  E(RHF) =  -576.580993951     A.U. after    2 cycles

 The electronic state is 1-A.
 Alpha  occ. eigenvalues --  -75.74946 -29.26028 -13.18029 -13.14954 -13.07199
 Alpha  occ. eigenvalues --  -11.43116 -11.37818  -8.08874  -1.27297  -1.09183
 Alpha  occ. eigenvalues --   -0.90139  -0.67829  -0.62031  -0.59725  -0.53301
 Alpha  occ. eigenvalues --   -0.51530  -0.44903  -0.39016  -0.32790  -0.27283
 Alpha  occ. eigenvalues --   -0.17032
 Alpha virt. eigenvalues --    0.03292   0.04931   0.05309   0.06531   0.07373
 Alpha virt. eigenvalues --    0.07926   0.11789   0.12493   0.13140   0.14247
 Alpha virt. eigenvalues --    0.15380   0.17100   0.17417   0.18607   0.19121

 Mulliken charges:
               1
     1  F   -0.294401
     2  S    0.937408
     3  C   -4.110972
     4  C   -3.222215
     5  H    1.451764
     6  H    1.220730
     7  H    1.206927
     8  H    1.260557
     9  H    1.550203
 Sum of Mulliken charges =  -0.00000

 Dipole moment (field-independent basis, Debye):
    X=             -0.7005    Y=              1.7303    Z=              0.4417  Tot=              1.9182

 Test job not archived.
 1\1\GINC-SE455\SP\RHF\Aug-CC-pVDZ\C2H5F1S1\OHZDE\09-Apr-2025\0\\#t hf
 aug-cc-pvdz iop(5/13=1,5/36=2,99/5=2) pseudo=read geom=check guess=(re
 ad,tcheck) scf=(maxcycle=1)\\title\\0,1\F,0,-1.248521,1.00702,0.178317
 \S,0,-0.806792,-0.564798,-0.212841\C,0,0.874544,-0.526911,0.444106\C,0
 ,1.797399,0.476778,-0.241399\H,0,0.819011,-0.360927,1.522529\H,0,1.908
 81,0.247412,-1.302909\H,0,2.786589,0.464033,0.225531\H,0,1.390601,1.48
 5162,-0.151111\H,0,1.208695,-1.561298,0.290322\\Version=ES64L-G16RevC.
 01\State=1-A\HF=-576.580994\RMSD=1.502e-01\Dipole=-0.2755867,0.6807433

 Normal termination of Gaussian 16 at Wed Apr  9 00:21:40 2025.
