 Gaussian 16, Revision C.01,

 ----------------------------------------------------------------------
 #t hf aug-cc-pvdz symm=none int=(grid=ultrafine) guess=(read,tcheck) s
 table=opt
 ----------------------------------------------------------------------
 -----
 title
 -----
 Symbolic Z-matrix:
 Charge =  0 Multiplicity = 2

 SCF Done:  E(UHF) =  -563.921239611     A.U. after   16 cycles
 Normal termination of Gaussian 16 at Tue Apr  8 23:09:30 2025.
 Gaussian 16:  ES64L-G16RevC.01  3-Jul-2019

 ----------------------------------------------------------------------
 #t hf aug-cc-pvdz iop(5/13=1,5/36=2,99/5=2) pseudo=read geom=check gue
 ss=(read,tcheck) scf=(maxcycle=1)
 ----------------------------------------------------------------------
 -----
 title
 -----
 Structure from the checkpoint file:  "BDE49_expt_397_mol2.chk"
 Charge =  0 Multiplicity = 2

                         Standard orientation:
 ---------------------------------------------------------------------
 Center     Atomic      Atomic             Coordinates (Angstroms)
 Number     Number       Type             X           Y           Z
 ---------------------------------------------------------------------
      1          6           0       -1.161714   -0.000000   -0.080179
      2         14           0        0.783228   -0.000000    0.014080
      3          6           0        1.467562    1.536963   -0.837343
      4          1           0        1.172834    1.577724   -1.889422
      5          1           0        2.561679    1.535177   -0.799291
      6          1           0        1.125875    2.457875   -0.356015
      7          6           0        1.357493   -0.000001    1.815143
      8          1           0        1.008899    0.884150    2.356386
      9          1           0        2.451838    0.000000    1.859016
     10          1           0        1.008901   -0.884152    2.356385
     11          6           0        1.467562   -1.536962   -0.837344
     12          1           0        1.172835   -1.577722   -1.889424
     13          1           0        1.125874   -2.457874   -0.356018
     14          1           0        2.561680   -1.535177   -0.799291
     15          6           0       -1.710514    1.263345    0.621209
     16          1           0       -1.413877    1.303402    1.673286
     17          1           0       -2.805750    1.268260    0.584671
     18          1           0       -1.362347    2.180537    0.138122
     19          6           0       -1.514577   -0.000000   -1.521607
     20          1           0       -1.581726    0.927120   -2.079065
     21          1           0       -1.581726   -0.927120   -2.079065
     22          6           0       -1.710514   -1.263345    0.621209
     23          1           0       -1.413877   -1.303402    1.673286
     24          1           0       -1.362347   -2.180537    0.138122
     25          1           0       -2.805750   -1.268260    0.584671
 ---------------------------------------------------------------------

 SCF Done:  E(UHF) =  -565.526232999     A.U. after    2 cycles

 The electronic state is 2-A.
 Alpha  occ. eigenvalues --  -76.17876 -11.40476 -11.38883 -11.38603 -11.34594
 Alpha  occ. eigenvalues --  -11.34334 -11.34234 -11.33872  -5.52036  -2.16264
 Alpha  occ. eigenvalues --   -2.15786  -2.15666  -1.24969  -1.06358  -1.00836
 Alpha  occ. eigenvalues --   -1.00642  -0.99611  -0.98784  -0.78686  -0.66015
 Alpha  occ. eigenvalues --   -0.61164  -0.59864  -0.58579  -0.56396  -0.56111
 Alpha  occ. eigenvalues --   -0.54878  -0.54138  -0.53549  -0.53507  -0.52342
 Alpha  occ. eigenvalues --   -0.50666  -0.46551  -0.43833  -0.40561  -0.38343
 Alpha  occ. eigenvalues --   -0.38221  -0.26201
 Alpha virt. eigenvalues --    0.03346   0.05384   0.05426   0.05536   0.05704
 Alpha virt. eigenvalues --    0.05882   0.06119   0.06123   0.06386   0.07584
 Alpha virt. eigenvalues --    0.07636   0.08069   0.08099   0.08338   0.08860

  Beta  occ. eigenvalues --  -76.17812 -11.40249 -11.38793 -11.37318 -11.34340
  Beta  occ. eigenvalues --  -11.34239 -11.34176 -11.33770  -5.51930  -2.15898
  Beta  occ. eigenvalues --   -2.15697  -2.15611  -1.23498  -1.06221  -1.00787
  Beta  occ. eigenvalues --   -1.00410  -0.99511  -0.93626  -0.76820  -0.65125
  Beta  occ. eigenvalues --   -0.60347  -0.59587  -0.58376  -0.56354  -0.55942
  Beta  occ. eigenvalues --   -0.54800  -0.54013  -0.53472  -0.53355  -0.52332
  Beta  occ. eigenvalues --   -0.50430  -0.45139  -0.43643  -0.38223  -0.38128
  Beta  occ. eigenvalues --   -0.35266
  Beta virt. eigenvalues --    0.03336   0.05274   0.05434   0.05463   0.05711
  Beta virt. eigenvalues --    0.05858   0.05975   0.06130   0.06333   0.07589
  Beta virt. eigenvalues --    0.07634   0.08077   0.08087   0.08343   0.08703

 Mulliken charges and spin densities:
               1          2
     1  C    0.394398  -0.554985
     2  Si  13.408870  -0.038090
     3  C   -6.325167  -0.003744
     4  H    0.967494   0.003388
     5  H    1.083069  -0.004993
     6  H    0.985990   0.002152
     7  C   -6.301473   0.015753
     8  H    0.994447  -0.003637
     9  H    1.059957   0.003191
    10  H    0.994451  -0.003637
    11  C   -6.325167  -0.003744
    12  H    0.967494   0.003388
    13  H    0.985990   0.002152
    14  H    1.083068  -0.004993
    15  C   -5.007278   0.050822
    16  H    1.327999   0.000208
    17  H    1.165075  -0.014295
    18  H    1.241859  -0.008957
    19  C   -4.285139   1.642212
    20  H    1.428203  -0.054983
    21  H    1.428203  -0.054983
    22  C   -5.007277   0.050822
    23  H    1.328000   0.000208
    24  H    1.241859  -0.008957
    25  H    1.165075  -0.014295
 Sum of Mulliken charges =  -0.00000   1.00000

 Dipole moment (field-independent basis, Debye):
    X=              0.3514    Y=             -0.0000    Z=              0.1113  Tot=              0.3687
                          Isotropic Fermi Contact Couplings
        Atom                 a.u.       MegaHertz       Gauss      10(-4) cm-1
     1  C(13)             -0.03235     -36.36723     -12.97673     -12.13080
     2  Si(29)             0.07680     -68.25616     -24.35550     -22.76781
     3  C(13)             -0.00184      -2.06942      -0.73842      -0.69028
     4  H(1)               0.00006       0.28965       0.10335       0.09662
     5  H(1)              -0.00019      -0.86757      -0.30957      -0.28939
     6  H(1)               0.00016       0.71681       0.25578       0.23910
     7  C(13)              0.01050      11.79923       4.21026       3.93580
     8  H(1)              -0.00017      -0.77714      -0.27730      -0.25923

 Normal termination of Gaussian 16 at Tue Apr  8 23:09:45 2025.
