 Gaussian 16, Revision C.01,

 ----------------------------------------------------------------------
 #t hf aug-cc-pvdz symm=none int=(grid=ultrafine) guess=(read,tcheck) s
 table=(opt,rrhf)
 ----------------------------------------------------------------------
 -----
 title
 -----
 Symbolic Z-matrix:
 Charge =  0 Multiplicity = 1

 SCF Done:  E(RHF) =  -383.992538658     A.U. after   13 cycles

 1\1\GINC-SE143\Stability\RHF\Aug-CC-pVDZ\C6H12O2\OHZDE\08-Apr-2025\0\\
 #t hf aug-cc-pvdz symm=none int=(grid=ultrafine) guess=(read,tcheck) s
 table=(opt,rrhf)\\title\\0,1\O,0,-0.86245,-0.082083,-0.789166\C,0,-1.8
 13314,0.050089,0.164864\C,0,0.080227,-1.173618,-0.629725\O,0,-1.917517
 ,-0.678734,1.118871\C,0,-2.707439,1.227971,-0.135502\C,0,1.286767,-0.7
 63592,0.20576\H,0,-3.084108,1.165765,-1.158032\H,0,-2.133463,2.1544,-0
 .053637\H,0,-3.532786,1.24551,0.573066\C,0,2.104169,0.385053,-0.395808
 \H,0,1.923252,-1.65041,0.319151\H,0,0.943749,-0.500972,1.211922\C,0,3.

 Normal termination of Gaussian 16 at Tue Apr  8 22:44:48 2025.
 Gaussian 16:  ES64L-G16RevC.01  3-Jul-2019

 ----------------------------------------------------------------------
 #t hf aug-cc-pvdz iop(5/13=1,5/36=2,99/5=2) pseudo=read geom=check gue
 ss=(read,tcheck) scf=(maxcycle=1)
 ----------------------------------------------------------------------
 -----
 title
 -----
 Structure from the checkpoint file:  "BDE49_expt_1453_mol1.chk"
 Charge =  0 Multiplicity = 1

                         Standard orientation:
 ---------------------------------------------------------------------
 Center     Atomic      Atomic             Coordinates (Angstroms)
 Number     Number       Type             X           Y           Z
 ---------------------------------------------------------------------
      1          8           0       -0.862450   -0.082083   -0.789166
      2          6           0       -1.813314    0.050089    0.164864
      3          6           0        0.080227   -1.173618   -0.629725
      4          8           0       -1.917517   -0.678734    1.118871
      5          6           0       -2.707439    1.227971   -0.135502
      6          6           0        1.286767   -0.763592    0.205760
      7          1           0       -3.084108    1.165765   -1.158032
      8          1           0       -2.133463    2.154400   -0.053637
      9          1           0       -3.532786    1.245510    0.573066
     10          6           0        2.104169    0.385053   -0.395808
     11          1           0        1.923252   -1.650410    0.319151
     12          1           0        0.943749   -0.500972    1.211922
     13          6           0        3.294674    0.790204    0.477340
     14          1           0        1.449458    1.248177   -0.551170
     15          1           0        2.461801    0.090421   -1.390127
     16          1           0        2.964366    1.120225    1.467100
     17          1           0        3.858934    1.610163    0.025202
     18          1           0        3.984491   -0.047185    0.622472
     19          1           0        0.372354   -1.428345   -1.650105
     20          1           0       -0.438822   -2.017846   -0.175064
 ---------------------------------------------------------------------

 SCF Done:  E(RHF) =  -385.783925450     A.U. after    2 cycles

 The electronic state is 1-A.
 Alpha  occ. eigenvalues --  -21.08145 -21.04426 -11.51840 -11.45081 -11.41222
 Alpha  occ. eigenvalues --  -11.39193 -11.37953 -11.34888  -1.83359  -1.65775
 Alpha  occ. eigenvalues --   -1.22862  -1.11483  -1.05427  -0.92104  -0.83928
 Alpha  occ. eigenvalues --   -0.74414  -0.67660  -0.64941  -0.62033  -0.60317
 Alpha  occ. eigenvalues --   -0.58806  -0.56516  -0.54885  -0.52226  -0.49923
 Alpha  occ. eigenvalues --   -0.48782  -0.46726  -0.46189  -0.42836  -0.39784
 Alpha  occ. eigenvalues --   -0.31545  -0.29143
 Alpha virt. eigenvalues --    0.03714   0.04805   0.05003   0.05419   0.05746
 Alpha virt. eigenvalues --    0.05851   0.06295   0.07067   0.07435   0.08201
 Alpha virt. eigenvalues --    0.08581   0.09393   0.10304   0.12315   0.13064

 Mulliken charges:
               1
     1  O   -3.166452
     2  C    5.942894
     3  C   -2.086453
     4  O   -3.105046
     5  C   -4.624804
     6  C   -2.911088
     7  H    1.280820
     8  H    1.280572
     9  H    1.264690
    10  C   -2.841388
    11  H    1.374782
    12  H    1.675366
    13  C   -3.889209
    14  H    1.676860
    15  H    1.405259
    16  H    1.324479
    17  H    1.106898
    18  H    1.288222
    19  H    1.464840
    20  H    1.538759
 Sum of Mulliken charges =   0.00000

 Dipole moment (field-independent basis, Debye):
    X=              0.6745    Y=              0.4910    Z=             -1.1329  Tot=              1.4070

 Test job not archived.
 1\1\GINC-SE143\SP\RHF\Aug-CC-pVDZ\C6H12O2\OHZDE\08-Apr-2025\0\\#t hf a
 ug-cc-pvdz iop(5/13=1,5/36=2,99/5=2) pseudo=read geom=check guess=(rea
 d,tcheck) scf=(maxcycle=1)\\title\\0,1\O,0,-0.86245,-0.082083,-0.78916
 6\C,0,-1.813314,0.050089,0.164864\C,0,0.080227,-1.173618,-0.629725\O,0
 ,-1.917517,-0.678734,1.118871\C,0,-2.707439,1.227971,-0.135502\C,0,1.2
 86767,-0.763592,0.20576\H,0,-3.084108,1.165765,-1.158032\H,0,-2.133463
 ,2.1544,-0.053637\H,0,-3.532786,1.24551,0.573066\C,0,2.104169,0.385053
 ,-0.395808\H,0,1.923252,-1.65041,0.319151\H,0,0.943749,-0.500972,1.211

 Normal termination of Gaussian 16 at Tue Apr  8 22:44:57 2025.
