 Gaussian 16, Revision C.01,

 ----------------------------------------------------------------------
 #t hf aug-cc-pvdz symm=none int=(grid=ultrafine) guess=(read,tcheck) s
 table=(opt,rrhf)
 ----------------------------------------------------------------------
 -----
 title
 -----
 Symbolic Z-matrix:
 Charge =  0 Multiplicity = 1

 SCF Done:  E(RHF) =  -710.071590299     A.U. after   14 cycles
 Normal termination of Gaussian 16 at Wed Apr  9 00:39:50 2025.
 Gaussian 16:  ES64L-G16RevC.01  3-Jul-2019

 ----------------------------------------------------------------------
 #t hf aug-cc-pvdz iop(5/13=1,5/36=2,99/5=2) pseudo=read geom=check gue
 ss=(read,tcheck) scf=(maxcycle=1)
 ----------------------------------------------------------------------
 -----
 title
 -----
 Structure from the checkpoint file:  "BDE49_nonexpt_628_mol1.chk"
 Charge =  0 Multiplicity = 1

                         Standard orientation:
 ---------------------------------------------------------------------
 Center     Atomic      Atomic             Coordinates (Angstroms)
 Number     Number       Type             X           Y           Z
 ---------------------------------------------------------------------
      1         17           0        1.731980   -0.050842   -0.000005
      2          8           0        0.178145   -0.799127    0.000004
      3          5           0       -0.934193    0.063645    0.000006
      4          8           0       -0.886938    1.412412   -0.000002
      5          8           0       -2.132347   -0.574635    0.000006
      6          1           0       -2.049693   -1.532688    0.000008
      7          1           0        0.006108    1.769579   -0.000006
 ---------------------------------------------------------------------

 SCF Done:  E(RHF) =  -711.323765667     A.U. after    2 cycles

 The electronic state is 1-A.
 Alpha  occ. eigenvalues --  -99.96274 -21.10658 -21.07193 -21.06769 -10.53009
 Alpha  occ. eigenvalues --   -9.72907  -9.72149  -9.71905  -7.68163  -1.91236
 Alpha  occ. eigenvalues --   -1.72289  -1.68117  -1.26888  -0.79271  -0.69751
 Alpha  occ. eigenvalues --   -0.64860  -0.62349  -0.58487  -0.52124  -0.51443
 Alpha  occ. eigenvalues --   -0.47366  -0.39018  -0.37951  -0.36619
 Alpha virt. eigenvalues --   -0.00047   0.03494   0.05153   0.05421   0.06103
 Alpha virt. eigenvalues --    0.08974   0.10386   0.13344   0.14207   0.14296
 Alpha virt. eigenvalues --    0.15808   0.18446   0.20492   0.21573   0.21778

 Mulliken charges:
               1
     1  Cl   0.469398
     2  O   -2.982604
     3  B    7.546088
     4  O   -3.440978
     5  O   -3.470149
     6  H    0.984719
     7  H    0.893528
 Sum of Mulliken charges =  -0.00000

 Dipole moment (field-independent basis, Debye):
    X=             -0.7900    Y=             -0.8553    Z=              0.0000  Tot=              1.1643

 Test job not archived.
 1\1\GINC-SE071\SP\RHF\Aug-CC-pVDZ\B1Cl1H2O3\OHZDE\09-Apr-2025\0\\#t hf
  aug-cc-pvdz iop(5/13=1,5/36=2,99/5=2) pseudo=read geom=check guess=(r
 ead,tcheck) scf=(maxcycle=1)\\title\\0,1\Cl,0,1.73198,-0.050842,-0.000
 005\O,0,0.178145,-0.799127,0.000004\B,0,-0.934193,0.063645,0.000006\O,
 0,-0.886938,1.412412,-0.000002\O,0,-2.132347,-0.574635,0.000006\H,0,-2
 .049693,-1.532688,0.000008\H,0,0.006108,1.769579,-0.000006\\Version=ES
 64L-G16RevC.01\State=1-A\HF=-711.3237657\RMSD=1.114e-01\Dipole=-0.3108
 235,-0.336484,0.0000045\Quadrupole=-1.3133737,2.1526167,-0.839243,3.62

 Normal termination of Gaussian 16 at Wed Apr  9 00:39:52 2025.
