 Gaussian 16, Revision C.01,

 ----------------------------------------------------------------------
 #t hf aug-cc-pvdz symm=none int=(grid=ultrafine) guess=(read,tcheck) s
 table=(opt,rrhf)
 ----------------------------------------------------------------------
 -----
 title
 -----
 Symbolic Z-matrix:
 Charge =  0 Multiplicity = 1

 SCF Done:  E(RHF) =  -995.882911124     A.U. after   12 cycles

 1\1\GINC-SE105\Stability\RHF\Aug-CC-pVDZ\C2H2Cl2\OHZDE\08-Apr-2025\0\\
 #t hf aug-cc-pvdz symm=none int=(grid=ultrafine) guess=(read,tcheck) s
 table=(opt,rrhf)\\title\\0,1\C,0,-0.000008,1.751062,0.\C,0,0.000002,0.
 426792,0.\H,0,-0.000014,2.299046,-0.93207\H,0,-0.000014,2.299046,0.932
 07\Cl,0,0.000002,-0.519565,-1.461714\Cl,0,0.000002,-0.519565,1.461714\
 \Version=ES64L-G16RevC.01\HF=-995.8829111\RMSD=9.227e-09\Dipole=-0.000
 006,0.6705302,0.\Quadrupole=-1.9836889,2.1981181,-0.2144292,-0.0000309
 ,0.,0.\PG=Unknown\\@

 Normal termination of Gaussian 16 at Tue Apr  8 22:48:29 2025.
 Gaussian 16:  ES64L-G16RevC.01  3-Jul-2019

 ----------------------------------------------------------------------
 #t hf aug-cc-pvdz iop(5/13=1,5/36=2,99/5=2) pseudo=read geom=check gue
 ss=(read,tcheck) scf=(maxcycle=1)
 ----------------------------------------------------------------------
 -----
 title
 -----
 Structure from the checkpoint file:  "BDE49_expt_1625_mol1.chk"
 Charge =  0 Multiplicity = 1

                         Standard orientation:
 ---------------------------------------------------------------------
 Center     Atomic      Atomic             Coordinates (Angstroms)
 Number     Number       Type             X           Y           Z
 ---------------------------------------------------------------------
      1          6           0        0.000008    1.751062    0.000000
      2          6           0       -0.000002    0.426792    0.000000
      3          1           0        0.000014    2.299046    0.932070
      4          1           0        0.000014    2.299046   -0.932070
      5         17           0       -0.000002   -0.519565    1.461714
      6         17           0       -0.000002   -0.519565   -1.461714
 ---------------------------------------------------------------------

 SCF Done:  E(RHF) =  -996.741551510     A.U. after    2 cycles

 The electronic state is 1-A'.
 Alpha  occ. eigenvalues --  -99.91536 -99.91530 -11.49965 -11.41293 -10.49072
 Alpha  occ. eigenvalues --  -10.48779  -9.68885  -9.68671  -9.67972  -9.67885
 Alpha  occ. eigenvalues --   -9.67849  -9.67804  -1.42455  -1.30247  -1.11717
 Alpha  occ. eigenvalues --   -0.85409  -0.70710  -0.65975  -0.61351  -0.56220
 Alpha  occ. eigenvalues --   -0.53314  -0.53029  -0.50802  -0.38302
 Alpha virt. eigenvalues --    0.03169   0.04698   0.06107   0.07719   0.07771
 Alpha virt. eigenvalues --    0.07902   0.11901   0.13711   0.14328   0.14339
 Alpha virt. eigenvalues --    0.15401   0.16333   0.16854   0.18478   0.18931

 Mulliken charges:
               1
     1  C   -1.289783
     2  C   -1.252441
     3  H    1.495587
     4  H    1.495587
     5  Cl  -0.224475
     6  Cl  -0.224475
 Sum of Mulliken charges =   0.00000

 Dipole moment (field-independent basis, Debye):
    X=              0.0000    Y=              2.0671    Z=              0.0000  Tot=              2.0671

 Test job not archived.
 1\1\GINC-SE105\SP\RHF\Aug-CC-pVDZ\C2H2Cl2\OHZDE\08-Apr-2025\0\\#t hf a
 ug-cc-pvdz iop(5/13=1,5/36=2,99/5=2) pseudo=read geom=check guess=(rea
 d,tcheck) scf=(maxcycle=1)\\title\\0,1\C,0,-0.000008,1.751062,0.\C,0,0
 .000002,0.426792,0.\H,0,-0.000014,2.299046,-0.93207\H,0,-0.000014,2.29
 9046,0.93207\Cl,0,0.000002,-0.519565,-1.461714\Cl,0,0.000002,-0.519565
 ,1.461714\\Version=ES64L-G16RevC.01\State=1-A'\HF=-996.7415515\RMSD=2.
 547e-01\Dipole=-0.0000069,0.8132732,0.\Quadrupole=-2.8094931,2.5552799
 ,0.2542132,-0.0000353,0.,0.\PG=CS [SG(C2),X(H2Cl2)]\\@

 Normal termination of Gaussian 16 at Tue Apr  8 22:48:30 2025.
