 Gaussian 16, Revision C.01,

 ----------------------------------------------------------------------
 #t hf aug-cc-pvdz symm=none int=(grid=ultrafine) guess=(read,tcheck) s
 table=(opt,rrhf)
 ----------------------------------------------------------------------
 -----
 title
 -----
 Symbolic Z-matrix:
 Charge =  0 Multiplicity = 1

 SCF Done:  E(RHF) =  -1428.93333755     A.U. after   15 cycles
 Normal termination of Gaussian 16 at Tue Apr  8 23:56:18 2025.
 Gaussian 16:  ES64L-G16RevC.01  3-Jul-2019

 ----------------------------------------------------------------------
 #t hf aug-cc-pvdz iop(5/13=1,5/36=2,99/5=2) pseudo=read geom=check gue
 ss=(read,tcheck) scf=(maxcycle=1)
 ----------------------------------------------------------------------
 -----
 title
 -----
 Structure from the checkpoint file:  "BDE49_nonexpt_1945_mol1.chk"
 Charge =  0 Multiplicity = 1

                         Standard orientation:
 ---------------------------------------------------------------------
 Center     Atomic      Atomic             Coordinates (Angstroms)
 Number     Number       Type             X           Y           Z
 ---------------------------------------------------------------------
      1          6           0       -1.198547    1.595951    0.611703
      2         14           0        0.515537    1.858963   -0.155978
      3          6           0        1.622298    0.379969    0.388842
      4          1           0        1.124880    3.065937    0.443431
      5          1           0        0.455114    1.972963   -1.626423
      6          8           0        1.655602    0.055635    1.555006
      7         16           0        2.580747   -0.426588   -0.901570
      8          6           0        3.481828   -1.679865    0.067237
      9          1           0        3.225720   -2.672052   -0.301027
     10          1           0        3.166441   -1.568710    1.105951
     11          1           0        4.553056   -1.507567   -0.024648
     12          6           0       -2.027292    0.577389   -0.132714
     13          8           0       -2.554162    0.797818   -1.194918
     14         16           0       -2.118424   -1.012626    0.712630
     15          6           0       -3.096844   -1.967765   -0.489071
     16          1           0       -3.997444   -2.340543   -0.003535
     17          1           0       -2.501987   -2.797734   -0.867762
     18          1           0       -3.358316   -1.287742   -1.300748
     19          1           0       -1.726719    2.552934    0.564463
     20          1           0       -1.055603    1.322746    1.660347
 ---------------------------------------------------------------------

 SCF Done:  E(RHF) =  -1431.09787924     A.U. after    2 cycles

 The electronic state is 1-A.
 Alpha  occ. eigenvalues --  -76.24306 -75.69950 -75.69764 -21.07557 -21.06419
 Alpha  occ. eigenvalues --  -13.14555 -13.13994 -13.10608 -13.10352 -13.03989
 Alpha  occ. eigenvalues --  -13.02954 -11.51496 -11.47977 -11.40147 -11.39850
 Alpha  occ. eigenvalues --  -11.39768  -8.04171  -8.03974  -5.57965  -2.22289
 Alpha  occ. eigenvalues --   -2.21233  -2.20411  -1.72823  -1.72317  -1.22364
 Alpha  occ. eigenvalues --   -1.21141  -1.11561  -0.99160  -0.96515  -0.83915
 Alpha  occ. eigenvalues --   -0.75071  -0.69257  -0.65439  -0.62418  -0.60674
 Alpha  occ. eigenvalues --   -0.59561  -0.59296  -0.56175  -0.53764  -0.52592
 Alpha  occ. eigenvalues --   -0.52039  -0.49826  -0.48010  -0.47323  -0.41471
 Alpha  occ. eigenvalues --   -0.39630  -0.38926  -0.27412  -0.25495  -0.24988
 Alpha  occ. eigenvalues --   -0.24768
 Alpha virt. eigenvalues --    0.02971   0.03654   0.04085   0.05002   0.05530
 Alpha virt. eigenvalues --    0.06148   0.06576   0.06713   0.07590   0.07711
 Alpha virt. eigenvalues --    0.08230   0.09519   0.09826   0.10291   0.10615

 Mulliken charges:
               1
     1  C   -4.940408
     2  Si   6.069201
     3  C    0.912094
     4  H   -2.010807
     5  H   -1.887500
     6  O   -2.668954
     7  S    1.162768
     8  C   -4.705168
     9  H    1.456323
    10  H    1.340987
    11  H    1.430842
    12  C    3.805549
    13  O   -3.327996
    14  S    0.847288
    15  C   -4.784668
    16  H    1.412370
    17  H    1.455411
    18  H    1.333231
    19  H    1.322865
    20  H    1.776573
 Sum of Mulliken charges =  -0.00000

 Dipole moment (field-independent basis, Debye):
    X=              0.6410    Y=             -1.7076    Z=              0.2625  Tot=              1.8427

 Test job not archived.
 1\1\GINC-SE393\SP\RHF\Aug-CC-pVDZ\C5H10O2S2Si1\OHZDE\08-Apr-2025\0\\#t
  hf aug-cc-pvdz iop(5/13=1,5/36=2,99/5=2) pseudo=read geom=check guess
 =(read,tcheck) scf=(maxcycle=1)\\title\\0,1\C,0,-1.198547,1.595951,0.6
 11703\Si,0,0.515537,1.858963,-0.155978\C,0,1.622298,0.379969,0.388842\
 H,0,1.12488,3.065937,0.443431\H,0,0.455114,1.972963,-1.626423\O,0,1.65
 5602,0.055635,1.555006\S,0,2.580747,-0.426588,-0.90157\C,0,3.481828,-1
 .679865,0.067237\H,0,3.22572,-2.672052,-0.301027\H,0,3.166441,-1.56871
 ,1.105951\H,0,4.553056,-1.507568,-0.024648\C,0,-2.027292,0.577389,-0.1

 Normal termination of Gaussian 16 at Tue Apr  8 23:56:30 2025.
