 Gaussian 16, Revision C.01,

 ----------------------------------------------------------------------
 #t hf aug-cc-pvdz symm=none int=(grid=ultrafine) guess=(read,tcheck) s
 table=(opt,rrhf)
 ----------------------------------------------------------------------
 -----
 title
 -----
 Symbolic Z-matrix:
 Charge =  0 Multiplicity = 1

 SCF Done:  E(RHF) =  -513.437018124     A.U. after   12 cycles
 Normal termination of Gaussian 16 at Tue Apr  8 23:38:04 2025.
 Gaussian 16:  ES64L-G16RevC.01  3-Jul-2019

 ----------------------------------------------------------------------
 #t hf aug-cc-pvdz iop(5/13=1,5/36=2,99/5=2) pseudo=read geom=check gue
 ss=(read,tcheck) scf=(maxcycle=1)
 ----------------------------------------------------------------------
 -----
 title
 -----
 Structure from the checkpoint file:  "BDE49_nonexpt_1531_mol1.chk"
 Charge =  0 Multiplicity = 1

                         Standard orientation:
 ---------------------------------------------------------------------
 Center     Atomic      Atomic             Coordinates (Angstroms)
 Number     Number       Type             X           Y           Z
 ---------------------------------------------------------------------
      1          7           0       -2.141275    0.545170    0.122323
      2          6           0        0.642853    0.073042    0.518319
      3          6           0        1.605078    0.894412   -0.315576
      4          6           0        1.965283   -0.513710    0.057758
      5          1           0        1.940895   -1.265406   -0.723508
      6          1           0        2.731388   -0.672823    0.807063
      7          1           0        2.128068    1.707432    0.174132
      8          1           0        1.339896    1.089764   -1.349072
      9         15           0       -0.890347   -0.560162   -0.271230
     10          1           0        0.586288    0.333621    1.572337
     11          1           0       -1.182939   -1.530839    0.720252
     12          1           0       -2.325104    1.233188   -0.594105
     13          1           0       -2.153644    0.968835    1.042076
 ---------------------------------------------------------------------

 SCF Done:  E(RHF) =  -514.490942416     A.U. after    2 cycles

 The electronic state is 1-A.
 Alpha  occ. eigenvalues -- -105.17843 -15.73714 -11.41639 -11.40251 -11.35876
 Alpha  occ. eigenvalues --   -2.75956  -1.54849  -1.47340  -1.43910  -1.27554
 Alpha  occ. eigenvalues --   -1.16464  -0.86205  -0.83715  -0.71576  -0.65675
 Alpha  occ. eigenvalues --   -0.64152  -0.58199  -0.51018  -0.42204  -0.41932
 Alpha  occ. eigenvalues --   -0.39487  -0.27441  -0.22149  -0.01386
 Alpha virt. eigenvalues --    0.04626   0.05441   0.05782   0.05998   0.06686
 Alpha virt. eigenvalues --    0.06858   0.07443   0.08102   0.10792   0.11636
 Alpha virt. eigenvalues --    0.12537   0.13364   0.13854   0.14761   0.15297

 Mulliken charges:
               1
     1  N   -2.341622
     2  C   -1.817465
     3  C   -3.021649
     4  C   -2.357498
     5  H    1.093539
     6  H    1.124430
     7  H    1.050019
     8  H    1.164939
     9  P    3.822111
    10  H    0.934459
    11  H   -0.664548
    12  H    0.446638
    13  H    0.566647
 Sum of Mulliken charges =   0.00000

 Dipole moment (field-independent basis, Debye):
    X=             -0.4104    Y=              0.7577    Z=              1.2208  Tot=              1.4943

 Test job not archived.
 1\1\GINC-SE041\SP\RHF\Aug-CC-pVDZ\C3H8N1P1\OHZDE\08-Apr-2025\0\\#t hf
 aug-cc-pvdz iop(5/13=1,5/36=2,99/5=2) pseudo=read geom=check guess=(re
 ad,tcheck) scf=(maxcycle=1)\\title\\0,1\N,0,-2.141275,0.54517,0.122323
 \C,0,0.642853,0.073042,0.518319\C,0,1.605078,0.894412,-0.315576\C,0,1.
 965283,-0.51371,0.057758\H,0,1.940895,-1.265406,-0.723508\H,0,2.731388
 ,-0.672823,0.807063\H,0,2.128068,1.707432,0.174132\H,0,1.339896,1.0897
 64,-1.349072\P,0,-0.890347,-0.560162,-0.27123\H,0,0.586288,0.333621,1.
 572337\H,0,-1.182939,-1.530839,0.720252\H,0,-2.325104,1.233188,-0.5941

 Normal termination of Gaussian 16 at Tue Apr  8 23:38:09 2025.
