 Gaussian 16, Revision C.01,

 ----------------------------------------------------------------------
 #t hf aug-cc-pvdz symm=none int=(grid=ultrafine) guess=(read,tcheck) s
 table=(opt,rrhf)
 ----------------------------------------------------------------------
 -----
 title
 -----
 Symbolic Z-matrix:
 Charge =  0 Multiplicity = 1

 SCF Done:  E(RHF) =  -753.549710624     A.U. after   14 cycles
 Normal termination of Gaussian 16 at Tue Apr  8 23:51:36 2025.
 Gaussian 16:  ES64L-G16RevC.01  3-Jul-2019

 ----------------------------------------------------------------------
 #t hf aug-cc-pvdz iop(5/13=1,5/36=2,99/5=2) pseudo=read geom=check gue
 ss=(read,tcheck) scf=(maxcycle=1)
 ----------------------------------------------------------------------
 -----
 title
 -----
 Structure from the checkpoint file:  "BDE49_nonexpt_1876_mol1.chk"
 Charge =  0 Multiplicity = 1

                         Standard orientation:
 ---------------------------------------------------------------------
 Center     Atomic      Atomic             Coordinates (Angstroms)
 Number     Number       Type             X           Y           Z
 ---------------------------------------------------------------------
      1         14           0        0.480320    1.116025   -0.116595
      2          6           0       -1.060012    0.565668    0.844353
      3          6           0        1.803112   -0.252416    0.128225
      4          8           0        1.820261   -1.103086    0.950315
      5          1           0        1.040592    2.345682    0.478733
      6          1           0        0.219229    1.298748   -1.555286
      7          9           0        2.838925   -0.130501   -0.766172
      8          6           0       -2.031802   -0.189964    0.001104
      9          8           0       -3.150361    0.066293   -0.277472
     10          9           0       -1.433727   -1.318427   -0.505615
     11          1           0       -1.568513    1.418918    1.292685
     12          1           0       -0.689558   -0.092727    1.637452
 ---------------------------------------------------------------------

 SCF Done:  E(RHF) =  -755.499986791     A.U. after    2 cycles

 The electronic state is 1-A.
 Alpha  occ. eigenvalues --  -76.27583 -29.30992 -29.30786 -21.11275 -21.10142
 Alpha  occ. eigenvalues --  -11.57996 -11.53603 -11.42982  -5.61282  -2.25313
 Alpha  occ. eigenvalues --   -2.24342  -2.23593  -1.77789  -1.77398  -1.20715
 Alpha  occ. eigenvalues --   -1.05961  -0.97270  -0.82110  -0.70900  -0.67384
 Alpha  occ. eigenvalues --   -0.63690  -0.61403  -0.58233  -0.57267  -0.55970
 Alpha  occ. eigenvalues --   -0.51224  -0.46133  -0.44260  -0.43431  -0.32288
 Alpha  occ. eigenvalues --   -0.31225  -0.30807  -0.29471  -0.28521  -0.28356
 Alpha virt. eigenvalues --    0.03354   0.04565   0.05324   0.06023   0.06928
 Alpha virt. eigenvalues --    0.07543   0.09307   0.10091   0.10397   0.11245
 Alpha virt. eigenvalues --    0.12017   0.12444   0.13212   0.13507   0.14178

 Mulliken charges:
               1
     1  Si   5.835878
     2  C   -4.534990
     3  C    0.955344
     4  O   -2.502478
     5  H   -1.903121
     6  H   -1.854841
     7  F    0.540669
     8  C    2.944284
     9  O   -3.004255
    10  F    0.585134
    11  H    1.271512
    12  H    1.666866
 Sum of Mulliken charges =   0.00000

 Dipole moment (field-independent basis, Debye):
    X=              3.6282    Y=             -0.7248    Z=             -2.2060  Tot=              4.3076

 Test job not archived.
 1\1\GINC-SE108\SP\RHF\Aug-CC-pVDZ\C3H4F2O2Si1\OHZDE\08-Apr-2025\0\\#t
 hf aug-cc-pvdz iop(5/13=1,5/36=2,99/5=2) pseudo=read geom=check guess=
 (read,tcheck) scf=(maxcycle=1)\\title\\0,1\Si,0,0.48032,1.116025,-0.11
 6595\C,0,-1.060012,0.565668,0.844353\C,0,1.803112,-0.252416,0.128225\O
 ,0,1.820261,-1.103086,0.950315\H,0,1.040592,2.345682,0.478733\H,0,0.21
 9229,1.298748,-1.555286\F,0,2.838925,-0.130501,-0.766172\C,0,-2.031802
 ,-0.189964,0.001104\O,0,-3.150361,0.066293,-0.277472\F,0,-1.433727,-1.
 318427,-0.505615\H,0,-1.568513,1.418918,1.292685\H,0,-0.689558,-0.0927

 Normal termination of Gaussian 16 at Tue Apr  8 23:51:41 2025.
