 Gaussian 16, Revision C.01,

 ----------------------------------------------------------------------
 #t hf aug-cc-pvdz symm=none int=(grid=ultrafine) guess=(read,tcheck) s
 table=(opt,rrhf)
 ----------------------------------------------------------------------
 -----
 title
 -----
 Symbolic Z-matrix:
 Charge =  0 Multiplicity = 1

 SCF Done:  E(RHF) =  -887.806191007     A.U. after   15 cycles
 Normal termination of Gaussian 16 at Tue Apr  8 23:28:28 2025.
 Gaussian 16:  ES64L-G16RevC.01  3-Jul-2019

 ----------------------------------------------------------------------
 #t hf aug-cc-pvdz iop(5/13=1,5/36=2,99/5=2) pseudo=read geom=check gue
 ss=(read,tcheck) scf=(maxcycle=1)
 ----------------------------------------------------------------------
 -----
 title
 -----
 Structure from the checkpoint file:  "BDE49_nonexpt_1286_mol1.chk"
 Charge =  0 Multiplicity = 1

                         Standard orientation:
 ---------------------------------------------------------------------
 Center     Atomic      Atomic             Coordinates (Angstroms)
 Number     Number       Type             X           Y           Z
 ---------------------------------------------------------------------
      1          6           0        0.672999    0.936860    1.713954
      2          6           0        0.502202    0.607919    0.222282
      3          1           0        0.541815    0.053542    2.337535
      4          1           0       -0.079199    1.674709    1.996705
      5          1           0        1.664708    1.359467    1.890883
      6          6           0        0.729894    1.821155   -0.673875
      7          1           0        0.681208    1.549052   -1.727588
      8          1           0        1.703816    2.268261   -0.472941
      9          1           0       -0.051857    2.552878   -0.464914
     10         15           0       -1.204304   -0.069465   -0.070590
     11          7           0        1.540805   -0.488861   -0.113706
     12          8           0        1.360884   -1.603836    0.381914
     13          8           0        2.489276   -0.195675   -0.805546
     14          8           0       -2.263635    0.920349    0.128196
     15          8           0       -1.334291   -1.348756    0.862906
     16          8           0       -1.033377   -0.614614   -1.573084
     17          1           0       -1.853536   -0.579636   -2.080897
     18          1           0       -0.509443   -1.869616    0.846757
 ---------------------------------------------------------------------

 SCF Done:  E(RHF) =  -890.387875682     A.U. after    2 cycles

 The electronic state is 1-A.
 Alpha  occ. eigenvalues -- -105.32210 -21.13102 -21.12878 -21.11858 -21.11023
 Alpha  occ. eigenvalues --  -21.03711 -16.01342 -11.50959 -11.43747 -11.40513
 Alpha  occ. eigenvalues --   -2.94790  -2.02166  -1.99843  -1.93553  -1.81060
 Alpha  occ. eigenvalues --   -1.71718  -1.57409  -1.41194  -1.28801  -1.24996
 Alpha  occ. eigenvalues --   -1.05964  -1.03675  -0.80215  -0.75687  -0.71538
 Alpha  occ. eigenvalues --   -0.68268  -0.64932  -0.62079  -0.60878  -0.59025
 Alpha  occ. eigenvalues --   -0.57861  -0.56818  -0.54823  -0.50483  -0.47473
 Alpha  occ. eigenvalues --   -0.40742  -0.39292  -0.36531  -0.35465  -0.33970
 Alpha  occ. eigenvalues --   -0.33591  -0.29693  -0.27033  -0.16934
 Alpha virt. eigenvalues --    0.03557   0.05106   0.05459   0.05857   0.06379
 Alpha virt. eigenvalues --    0.06909   0.07159   0.08117   0.09677   0.10966
 Alpha virt. eigenvalues --    0.12187   0.12402   0.12886   0.13129   0.14129

 Mulliken charges:
               1
     1  C   -3.879576
     2  C   -0.925108
     3  H    1.334899
     4  H    1.130344
     5  H    1.258012
     6  C   -3.822153
     7  H    1.234636
     8  H    1.238733
     9  H    1.115898
    10  P   10.339428
    11  N    3.621977
    12  O   -2.847718
    13  O   -2.730803
    14  O   -2.981927
    15  O   -3.171072
    16  O   -2.948534
    17  H    0.914648
    18  H    1.118315
 Sum of Mulliken charges =   0.00000

 Dipole moment (field-independent basis, Debye):
    X=              1.0680    Y=             -0.4565    Z=             -0.5403  Tot=              1.2810

 Test job not archived.
 1\1\GINC-SE070\SP\RHF\Aug-CC-pVDZ\C3H8N1O5P1\OHZDE\08-Apr-2025\0\\#t h
 f aug-cc-pvdz iop(5/13=1,5/36=2,99/5=2) pseudo=read geom=check guess=(
 read,tcheck) scf=(maxcycle=1)\\title\\0,1\C,0,0.672999,0.93686,1.71395
 4\C,0,0.502202,0.607919,0.222282\H,0,0.541815,0.053542,2.337535\H,0,-0
 .079199,1.674709,1.996705\H,0,1.664708,1.359467,1.890883\C,0,0.729894,
 1.821155,-0.673875\H,0,0.681208,1.549052,-1.727588\H,0,1.703816,2.2682
 61,-0.472941\H,0,-0.051857,2.552878,-0.464914\P,0,-1.204304,-0.069465,
 -0.07059\N,0,1.540805,-0.488861,-0.113706\O,0,1.360884,-1.603836,0.381

 Normal termination of Gaussian 16 at Tue Apr  8 23:28:38 2025.
