 Gaussian 16, Revision C.01,

 ----------------------------------------------------------------------
 #t hf aug-cc-pvdz symm=none int=(grid=ultrafine) guess=(read,tcheck) s
 table=(opt,rrhf)
 ----------------------------------------------------------------------
 -----
 title
 -----
 Symbolic Z-matrix:
 Charge =  0 Multiplicity = 1

 SCF Done:  E(RHF) =  -748.389626363     A.U. after   17 cycles
 Normal termination of Gaussian 16 at Wed Apr  9 00:11:59 2025.
 Gaussian 16:  ES64L-G16RevC.01  3-Jul-2019

 ----------------------------------------------------------------------
 #t hf aug-cc-pvdz iop(5/13=1,5/36=2,99/5=2) pseudo=read geom=check gue
 ss=(read,tcheck) scf=(maxcycle=1)
 ----------------------------------------------------------------------
 -----
 title
 -----
 Structure from the checkpoint file:  "BDE49_nonexpt_2271_mol1.chk"
 Charge =  0 Multiplicity = 1

                         Standard orientation:
 ---------------------------------------------------------------------
 Center     Atomic      Atomic             Coordinates (Angstroms)
 Number     Number       Type             X           Y           Z
 ---------------------------------------------------------------------
      1          6           0        1.108452    1.546154   -0.000005
      2          6           0        0.068692    2.503828   -0.000000
      3          6           0       -1.246090    2.114244    0.000003
      4          6           0       -1.584532    0.734956    0.000001
      5          6           0       -0.544229   -0.245533   -0.000004
      6          6           0        0.811554    0.201766   -0.000006
      7          6           0       -2.931926    0.289273    0.000004
      8          6           0       -3.234469   -1.050715    0.000002
      9          6           0       -2.200936   -2.014601   -0.000003
     10          6           0       -0.883978   -1.621235   -0.000005
     11          1           0       -2.451464   -3.069416   -0.000004
     12          1           0       -0.085740   -2.351602   -0.000009
     13          1           0       -3.723901    1.030815    0.000007
     14          1           0       -4.269498   -1.373897    0.000004
     15          1           0        0.326931    3.556674    0.000001
     16          1           0       -2.041185    2.851450    0.000006
     17          1           0        2.140384    1.879304   -0.000007
     18          8           0        1.772260   -0.772084   -0.000011
     19         14           0        3.430816   -0.654845    0.000009
     20          1           0        3.905460   -2.049312    0.000010
     21          1           0        3.907127    0.060825    1.205138
     22          1           0        3.907157    0.060831   -1.205105
 ---------------------------------------------------------------------

 SCF Done:  E(RHF) =  -750.685554521     A.U. after    2 cycles

 The electronic state is 1-A.
 Alpha  occ. eigenvalues --  -76.24941 -21.07190 -11.53765 -11.50288 -11.46951
 Alpha  occ. eigenvalues --  -11.44651 -11.43240 -11.41785 -11.41440 -11.41301
 Alpha  occ. eigenvalues --  -11.39357 -11.36522  -5.58429  -2.25169  -2.20514
 Alpha  occ. eigenvalues --   -2.19942  -1.74499  -1.37795  -1.23318  -1.12769
 Alpha  occ. eigenvalues --   -1.08326  -1.03624  -0.89675  -0.88113  -0.84372
 Alpha  occ. eigenvalues --   -0.76439  -0.72193  -0.69479  -0.67575  -0.61139
 Alpha  occ. eigenvalues --   -0.59704  -0.56830  -0.56608  -0.55310  -0.53643
 Alpha  occ. eigenvalues --   -0.50908  -0.49312  -0.49109  -0.46253  -0.43688
 Alpha  occ. eigenvalues --   -0.42400  -0.42379  -0.37663  -0.34781  -0.31725
 Alpha  occ. eigenvalues --   -0.25759
 Alpha virt. eigenvalues --    0.03315   0.04325   0.04993   0.05478   0.06156
 Alpha virt. eigenvalues --    0.06374   0.06436   0.06808   0.07587   0.08911
 Alpha virt. eigenvalues --    0.08921   0.09413   0.09522   0.10557   0.10951

 Mulliken charges:
               1
     1  C   -7.008674
     2  C   -2.917548
     3  C   -3.033497
     4  C    7.837313
     5  C    2.925102
     6  C    6.375910
     7  C   -2.144401
     8  C   -4.691179
     9  C   -3.255221
    10  C   -1.788845
    11  H    1.476617
    12  H    2.193164
    13  H    1.681336
    14  H    1.507169
    15  H    1.462821
    16  H    1.783569
    17  H    1.970389
    18  O   -5.392589
    19  Si   6.297404
    20  H   -1.838367
    21  H   -1.720239
    22  H   -1.720234
 Sum of Mulliken charges =  -0.00000

 Dipole moment (field-independent basis, Debye):
    X=             -0.1726    Y=             -0.2396    Z=             -0.0000  Tot=              0.2953

 Test job not archived.
 1\1\GINC-SE212\SP\RHF\Aug-CC-pVDZ\C10H10O1Si1\OHZDE\09-Apr-2025\0\\#t
 hf aug-cc-pvdz iop(5/13=1,5/36=2,99/5=2) pseudo=read geom=check guess=
 (read,tcheck) scf=(maxcycle=1)\\title\\0,1\C,0,1.108452,1.546154,-0.00
 0005\C,0,0.068692,2.503828,0.\C,0,-1.24609,2.114244,0.000003\C,0,-1.58
 4532,0.734956,0.000001\C,0,-0.544229,-0.245533,-0.000004\C,0,0.811554,
 0.201766,-0.000006\C,0,-2.931926,0.289273,0.000004\C,0,-3.234469,-1.05
 0715,0.000002\C,0,-2.200936,-2.014601,-0.000003\C,0,-0.883978,-1.62123
 5,-0.000005\H,0,-2.451464,-3.069416,-0.000004\H,0,-0.08574,-2.351602,-

 Normal termination of Gaussian 16 at Wed Apr  9 00:12:16 2025.
