 Gaussian 16, Revision C.01,

 ----------------------------------------------------------------------
 #t hf aug-cc-pvdz symm=none int=(grid=ultrafine) guess=(read,tcheck) s
 table=opt
 ----------------------------------------------------------------------
 -----
 title
 -----
 Symbolic Z-matrix:
 Charge =  0 Multiplicity = 2

 SCF Done:  E(UHF) =  -572.203596135     A.U. after   19 cycles

 1\1\GINC-SE096\Stability\UHF\Aug-CC-pVDZ\C1Cl1O1\OHZDE\08-Apr-2025\0\\
 #t hf aug-cc-pvdz symm=none int=(grid=ultrafine) guess=(read,tcheck) s
 table=opt\\title\\0,2\C,0,0.,0.860358,0.\O,0,1.057992,1.317933,0.\Cl,0
 ,-0.497879,-0.923859,0.\\Version=ES64L-G16RevC.01\HF=-572.2035961\S2=0
 .785449\S2-1=0.\S2A=0.750707\RMSD=6.209e-09\Dipole=-0.2921036,0.012909
 3,0.\Quadrupole=-1.0184956,0.3285257,0.6899699,-1.0029747,0.,0.\PG=Unk
 nown\\@
 The archive entry for this job was punched.

 Normal termination of Gaussian 16 at Tue Apr  8 22:36:21 2025.
 Gaussian 16:  ES64L-G16RevC.01  3-Jul-2019

 ----------------------------------------------------------------------
 #t hf aug-cc-pvdz iop(5/13=1,5/36=2,99/5=2) pseudo=read geom=check gue
 ss=(read,tcheck) scf=(maxcycle=1)
 ----------------------------------------------------------------------
 -----
 title
 -----
 Structure from the checkpoint file:  "BDE49_expt_1076_mol3.chk"
 Charge =  0 Multiplicity = 2

                         Standard orientation:
 ---------------------------------------------------------------------
 Center     Atomic      Atomic             Coordinates (Angstroms)
 Number     Number       Type             X           Y           Z
 ---------------------------------------------------------------------
      1          6           0        0.000000    0.860358    0.000000
      2          8           0        1.057992    1.317933    0.000000
      3         17           0       -0.497879   -0.923859    0.000000
 ---------------------------------------------------------------------

 SCF Done:  E(UHF) =  -572.890164553     A.U. after    2 cycles

 The electronic state is 2-A'.
 Alpha  occ. eigenvalues --  -99.93638 -21.17127 -11.56745 -10.50753  -9.71341
 Alpha  occ. eigenvalues --   -9.69703  -9.69676  -1.80782  -1.35354  -0.85623
 Alpha  occ. eigenvalues --   -0.65775  -0.62358  -0.60146  -0.52162  -0.49800
 Alpha  occ. eigenvalues --   -0.37235
 Alpha virt. eigenvalues --    0.06215   0.07285   0.09547   0.10362   0.11354
 Alpha virt. eigenvalues --    0.12049   0.14775   0.15646   0.19341   0.21216
 Alpha virt. eigenvalues --    0.24160   0.25654   0.26971   0.30659   0.31007

  Beta  occ. eigenvalues --  -99.93060 -21.16607 -11.54787 -10.50133  -9.69478
  Beta  occ. eigenvalues --   -9.69332  -9.68799  -1.79532  -1.30488  -0.79323
  Beta  occ. eigenvalues --   -0.60909  -0.58785  -0.57222  -0.49192  -0.46779
  Beta virt. eigenvalues --   -0.00261   0.07366   0.08769   0.10094   0.10732
  Beta virt. eigenvalues --    0.12459   0.12722   0.15375   0.16008   0.21050
  Beta virt. eigenvalues --    0.22842   0.24646   0.25513   0.27562   0.30914

 Mulliken charges and spin densities:
               1          2
     1  C    0.922402   0.599832
     2  O   -1.185638   0.010333
     3  Cl   0.263236   0.389834
 Sum of Mulliken charges =   0.00000   1.00000

 Dipole moment (field-independent basis, Debye):
    X=              1.3022    Y=              1.4732    Z=              0.0000  Tot=              1.9662
                          Isotropic Fermi Contact Couplings
        Atom                 a.u.       MegaHertz       Gauss      10(-4) cm-1
     1  C(13)              0.33959     381.76897     136.22466     127.34442
     2  O(17)              0.05839     -35.39337     -12.62924     -11.80596
     3  Cl(35)             0.29883     131.02375      46.75253      43.70482
 --------------------------------------------------------
       Center         ----  Spin Dipole Couplings  ----
                      3XX-RR        3YY-RR        3ZZ-RR
 --------------------------------------------------------
     1   Atom        0.405562     -0.320545     -0.085017

 Normal termination of Gaussian 16 at Tue Apr  8 22:36:23 2025.
