 Gaussian 16, Revision C.01,

 ----------------------------------------------------------------------
 #t hf aug-cc-pvdz symm=none int=(grid=ultrafine) guess=(read,tcheck) s
 table=opt
 ----------------------------------------------------------------------
 -----
 title
 -----
 Symbolic Z-matrix:
 Charge =  0 Multiplicity = 2

 SCF Done:  E(UHF) =  -153.482432489     A.U. after   22 cycles
 Normal termination of Gaussian 16 at Tue Apr  8 22:41:39 2025.
 Gaussian 16:  ES64L-G16RevC.01  3-Jul-2019

 ----------------------------------------------------------------------
 #t hf aug-cc-pvdz iop(5/13=1,5/36=2,99/5=2) pseudo=read geom=check gue
 ss=(read,tcheck) scf=(maxcycle=1)
 ----------------------------------------------------------------------
 -----
 title
 -----
 Structure from the checkpoint file:  "BDE49_expt_1364_mol2.chk"
 Charge =  0 Multiplicity = 2

                         Standard orientation:
 ---------------------------------------------------------------------
 Center     Atomic      Atomic             Coordinates (Angstroms)
 Number     Number       Type             X           Y           Z
 ---------------------------------------------------------------------
      1          6           0        0.181169    0.478537   -0.000011
      2          8           0        1.255267   -0.365230   -0.000013
      3          6           0       -1.188986   -0.194599   -0.000001
      4          1           0        0.301375    1.160988   -0.865718
      5          1           0        0.301455    1.160721    0.865910
      6          1           0       -1.302770   -0.825673   -0.884614
      7          1           0       -1.992626    0.548031    0.000113
      8          1           0       -1.302669   -0.825862    0.884489
 ---------------------------------------------------------------------

 SCF Done:  E(UHF) =  -154.145033366     A.U. after    2 cycles

 The electronic state is 2-A.
 Alpha  occ. eigenvalues --  -21.10837 -11.42673 -11.36733  -1.71711  -1.10889
 Alpha  occ. eigenvalues --   -0.87212  -0.66253  -0.60734  -0.54084  -0.52588
 Alpha  occ. eigenvalues --   -0.47559  -0.39463  -0.33625
 Alpha virt. eigenvalues --    0.03710   0.05607   0.06090   0.06130   0.06799
 Alpha virt. eigenvalues --    0.11427   0.12116   0.13947   0.14033   0.15203
 Alpha virt. eigenvalues --    0.17468   0.18511   0.19059   0.22069   0.27600

  Beta  occ. eigenvalues --  -21.07114 -11.42925 -11.36783  -1.60122  -1.09676
  Beta  occ. eigenvalues --   -0.85679  -0.62913  -0.60097  -0.53731  -0.50260
  Beta  occ. eigenvalues --   -0.45522  -0.30543
  Beta virt. eigenvalues --    0.03748   0.05625   0.06078   0.06132   0.06574
  Beta virt. eigenvalues --    0.11466   0.11526   0.12154   0.14055   0.15224
  Beta virt. eigenvalues --    0.16471   0.17562   0.18607   0.19118   0.22159

 Mulliken charges and spin densities:
               1          2
     1  C   -1.069371  -0.285329
     2  O   -1.769840   1.124357
     3  C   -3.490367   0.013508
     4  H    1.348473   0.074652
     5  H    1.348491   0.074773
     6  H    1.202214  -0.000482
     7  H    1.228208  -0.000980
     8  H    1.202192  -0.000498
 Sum of Mulliken charges =  -0.00000   1.00000

 Dipole moment (field-independent basis, Debye):
    X=             -0.6926    Y=              0.6675    Z=              0.0001  Tot=              0.9619
                          Isotropic Fermi Contact Couplings
        Atom                 a.u.       MegaHertz       Gauss      10(-4) cm-1
     1  C(13)             -0.03136     -35.25291     -12.57911     -11.75910
     2  O(17)              0.18934    -114.77863     -40.95587     -38.28603
     3  C(13)             -0.00384      -4.31861      -1.54099      -1.44053
     4  H(1)               0.02128      95.13568      33.94678      31.73385
     5  H(1)               0.02132      95.29648      34.00415      31.78748
     6  H(1)              -0.00040      -1.79906      -0.64195      -0.60010
     7  H(1)              -0.00075      -3.33055      -1.18842      -1.11095
     8  H(1)              -0.00040      -1.79750      -0.64139      -0.59958

 Normal termination of Gaussian 16 at Tue Apr  8 22:41:41 2025.
