 Gaussian 16, Revision C.01,

 ----------------------------------------------------------------------
 #t hf aug-cc-pvdz symm=none int=(grid=ultrafine) guess=(read,tcheck) s
 table=opt
 ----------------------------------------------------------------------
 -----
 title
 -----
 Symbolic Z-matrix:
 Charge =  0 Multiplicity = 2

 SCF Done:  E(UHF) =  -606.415558447     A.U. after   21 cycles
 Normal termination of Gaussian 16 at Tue Apr  8 23:32:18 2025.
 Gaussian 16:  ES64L-G16RevC.01  3-Jul-2019

 ----------------------------------------------------------------------
 #t hf aug-cc-pvdz iop(5/13=1,5/36=2,99/5=2) pseudo=read geom=check gue
 ss=(read,tcheck) scf=(maxcycle=1)
 ----------------------------------------------------------------------
 -----
 title
 -----
 Structure from the checkpoint file:  "BDE49_nonexpt_1400_mol2.chk"
 Charge =  0 Multiplicity = 2

                         Standard orientation:
 ---------------------------------------------------------------------
 Center     Atomic      Atomic             Coordinates (Angstroms)
 Number     Number       Type             X           Y           Z
 ---------------------------------------------------------------------
      1         15           0        0.137695    1.355337   -0.099785
      2          6           0       -0.984259   -0.142944    0.011191
      3          8           0       -0.278076   -1.312465    0.059792
      4          6           0        1.130945   -1.166757   -0.183657
      5          6           0        1.582869    0.241080    0.232133
      6          1           0        1.314071   -1.334426   -1.249177
      7          1           0        1.625054   -1.953728    0.385784
      8          8           0       -2.180605   -0.120802    0.065463
      9          1           0        2.479809    0.556863   -0.304395
     10          1           0        1.807754    0.279112    1.304519
 ---------------------------------------------------------------------

 SCF Done:  E(UHF) =  -607.721695365     A.U. after    2 cycles

 The electronic state is 2-A.
 Alpha  occ. eigenvalues -- -105.20345 -21.09690 -21.06716 -11.49980 -11.46741
 Alpha  occ. eigenvalues --  -11.40321  -2.79133  -1.84403  -1.68331  -1.51413
 Alpha  occ. eigenvalues --   -1.49093  -1.48319  -1.13030  -0.93711  -0.77575
 Alpha  occ. eigenvalues --   -0.69795  -0.67165  -0.62997  -0.57187  -0.52845
 Alpha  occ. eigenvalues --   -0.51662  -0.45914  -0.40127  -0.33115  -0.18170
 Alpha  occ. eigenvalues --   -0.07664  -0.00034
 Alpha virt. eigenvalues --    0.03470   0.05209   0.05420   0.05725   0.07923
 Alpha virt. eigenvalues --    0.09353   0.10676   0.11227   0.11900   0.13159
 Alpha virt. eigenvalues --    0.13771   0.14170   0.14630   0.15026   0.16191

  Beta  occ. eigenvalues -- -105.19715 -21.09753 -21.06063 -11.50373 -11.46744
  Beta  occ. eigenvalues --  -11.40426  -2.77198  -1.84347  -1.67249  -1.49957
  Beta  occ. eigenvalues --   -1.46869  -1.24575  -1.12841  -0.93324  -0.76454
  Beta  occ. eigenvalues --   -0.68990  -0.67075  -0.62229  -0.56641  -0.52265
  Beta  occ. eigenvalues --   -0.51259  -0.45223  -0.39882  -0.31499  -0.18788
  Beta  occ. eigenvalues --   -0.05995
  Beta virt. eigenvalues --    0.03278   0.05157   0.05420   0.05628   0.07893
  Beta virt. eigenvalues --    0.08426   0.09527   0.11154   0.11574   0.13344
  Beta virt. eigenvalues --    0.13546   0.14246   0.14677   0.14783   0.15744

 Mulliken charges and spin densities:
               1          2
     1  P    3.707955   1.304369
     2  C    2.693394  -0.409230
     3  O   -2.739247  -0.047892
     4  C   -1.427435   0.338679
     5  C   -4.390158  -0.610996
     6  H    1.431109   0.053854
     7  H    1.248846   0.157700
     8  O   -2.850538   0.196434
     9  H    1.173089   0.043059
    10  H    1.152986  -0.025977
 Sum of Mulliken charges =  -0.00000   1.00000

 Dipole moment (field-independent basis, Debye):
    X=              2.0091    Y=              3.5348    Z=              0.5253  Tot=              4.0997
                          Isotropic Fermi Contact Couplings
        Atom                 a.u.       MegaHertz       Gauss      10(-4) cm-1
     1  P(31)              0.27057     490.02736     174.85395     163.45553
     2  C(13)             -0.01766     -19.85176      -7.08360      -6.62183
     3  O(17)             -0.00394       2.38763       0.85197       0.79643
     4  C(13)              0.01507      16.94442       6.04619       5.65205
     5  C(13)             -0.00132      -1.48102      -0.52846      -0.49402
     6  H(1)              -0.00061      -2.71766      -0.96973      -0.90651
     7  H(1)              -0.00029      -1.30664      -0.46624      -0.43585
     8  O(17)              0.03758     -22.78038      -8.12861      -7.59872

 Normal termination of Gaussian 16 at Tue Apr  8 23:32:22 2025.
