 Gaussian 16, Revision C.01,

 ----------------------------------------------------------------------
 #t hf aug-cc-pvdz symm=none int=(grid=ultrafine) guess=(read,tcheck) s
 table=opt
 ----------------------------------------------------------------------
 -----
 title
 -----
 Symbolic Z-matrix:
 Charge =  0 Multiplicity = 2

 SCF Done:  E(UHF) =  -479.331048319     A.U. after   21 cycles
 Normal termination of Gaussian 16 at Tue Apr  8 23:58:30 2025.
 Gaussian 16:  ES64L-G16RevC.01  3-Jul-2019

 ----------------------------------------------------------------------
 #t hf aug-cc-pvdz iop(5/13=1,5/36=2,99/5=2) pseudo=read geom=check gue
 ss=(read,tcheck) scf=(maxcycle=1)
 ----------------------------------------------------------------------
 -----
 title
 -----
 Structure from the checkpoint file:  "BDE49_nonexpt_2043_mol2.chk"
 Charge =  0 Multiplicity = 2

                         Standard orientation:
 ---------------------------------------------------------------------
 Center     Atomic      Atomic             Coordinates (Angstroms)
 Number     Number       Type             X           Y           Z
 ---------------------------------------------------------------------
      1         14           0        1.560496    0.076495    0.222143
      2          8           0        0.095701   -0.531762   -0.359658
      3          8           0       -0.919556    0.517735   -0.276579
      4          6           0       -2.080208   -0.104177    0.248863
      5          1           0       -2.832923    0.687657    0.247347
      6          1           0       -1.915087   -0.462085    1.270055
      7          1           0       -2.403614   -0.928287   -0.393027
      8          1           0        2.496996   -1.000401   -0.193417
      9          1           0        1.879772    1.369462   -0.444233
 ---------------------------------------------------------------------

 SCF Done:  E(UHF) =  -480.278632767     A.U. after    2 cycles

 The electronic state is 2-A.
 Alpha  occ. eigenvalues --  -76.25599 -21.10302 -21.08635 -11.41041  -5.58947
 Alpha  occ. eigenvalues --   -2.24346  -2.20569  -2.19492  -1.92500  -1.43792
 Alpha  occ. eigenvalues --   -0.96855  -0.75027  -0.62941  -0.62266  -0.56810
 Alpha  occ. eigenvalues --   -0.49784  -0.48428  -0.43976  -0.36044  -0.31884
 Alpha  occ. eigenvalues --   -0.25630
 Alpha virt. eigenvalues --    0.03921   0.05227   0.06027   0.06328   0.06826
 Alpha virt. eigenvalues --    0.07546   0.07821   0.09755   0.12239   0.13772
 Alpha virt. eigenvalues --    0.15345   0.15746   0.16368   0.17366   0.18147

  Beta  occ. eigenvalues --  -76.25067 -21.10394 -21.08200 -11.41036  -5.58087
  Beta  occ. eigenvalues --   -2.23720  -2.19996  -2.16221  -1.92190  -1.43278
  Beta  occ. eigenvalues --   -0.96839  -0.71111  -0.62813  -0.61646  -0.56523
  Beta  occ. eigenvalues --   -0.48090  -0.46953  -0.43466  -0.35671  -0.28930
  Beta virt. eigenvalues --    0.03563   0.04356   0.05635   0.06144   0.06380
  Beta virt. eigenvalues --    0.06926   0.07869   0.09745   0.10431   0.12476
  Beta virt. eigenvalues --    0.15034   0.15595   0.16063   0.16804   0.17887

 Mulliken charges and spin densities:
               1          2
     1  Si   4.254253   0.895254
     2  O   -1.323591   0.018435
     3  O   -1.474767  -0.016784
     4  C   -2.511890   0.024886
     5  H    1.283689  -0.002637
     6  H    1.294846   0.002186
     7  H    1.348198   0.003925
     8  H   -1.441706   0.028830
     9  H   -1.429033   0.045904
 Sum of Mulliken charges =  -0.00000   1.00000

 Dipole moment (field-independent basis, Debye):
    X=             -1.1472    Y=             -0.0399    Z=              0.6442  Tot=              1.3163
                          Isotropic Fermi Contact Couplings
        Atom                 a.u.       MegaHertz       Gauss      10(-4) cm-1
     1  Si(29)             0.54315    -482.71104    -172.24330    -161.01507
     2  O(17)              0.02870     -17.39814      -6.20809      -5.80340
     3  O(17)              0.00413      -2.50480      -0.89377      -0.83551
     4  C(13)              0.00001       0.01253       0.00447       0.00418
     5  H(1)              -0.00043      -1.92519      -0.68696      -0.64218
     6  H(1)              -0.00007      -0.33098      -0.11810      -0.11040
     7  H(1)              -0.00011      -0.49718      -0.17741      -0.16584
     8  H(1)               0.01249      55.82328      19.91914      18.62064

 Normal termination of Gaussian 16 at Tue Apr  8 23:58:33 2025.
