 Gaussian 16, Revision C.01,

 ----------------------------------------------------------------------
 #t hf aug-cc-pvdz symm=none int=(grid=ultrafine) guess=(read,tcheck) s
 table=opt
 ----------------------------------------------------------------------
 -----
 title
 -----
 Symbolic Z-matrix:
 Charge =  0 Multiplicity = 2

 SCF Done:  E(UHF) =  -227.197846545     a.u. after   13 cycles
 Normal termination of Gaussian 16 at Tue Apr  8 22:44:37 2025.
 Gaussian 16:  ES64L-G16RevC.01  3-Jul-2019

 ----------------------------------------------------------------------
 #t hf aug-cc-pvdz iop(5/13=1,5/36=2,99/5=2) pseudo=read geom=check gue
 ss=(read,tcheck) scf=(maxcycle=1)
 ----------------------------------------------------------------------
 -----
 title
 -----
 Structure from the checkpoint file:  "BDE49_expt_1454_mol3.chk"
 Charge =  0 Multiplicity = 2

                         Standard orientation:
 ---------------------------------------------------------------------
 Center     Atomic      Atomic             Coordinates (Angstroms)
 Number     Number       Type             X           Y           Z
 ---------------------------------------------------------------------
      1          8           0        0.809489   -1.041122    0.001702
      2          6           0        0.106104    0.000011   -0.008169
      3          8           0        0.809551    1.041090    0.001702
      4          6           0       -1.387291    0.000036   -0.002805
      5          1           0       -1.764073   -0.895868   -0.498458
      6          1           0       -1.764071    0.897176   -0.496208
      7          1           0       -1.737054   -0.001324    1.033275
 ---------------------------------------------------------------------

 SCF Done:  E(UHF) =  -228.113222995     A.U. after    2 cycles

 The electronic state is 2-A.
 Alpha  occ. eigenvalues --  -21.19758 -21.04733 -11.53203 -11.42448  -1.88287
 Alpha  occ. eigenvalues --   -1.62629  -1.14017  -0.78505  -0.66358  -0.64870
 Alpha  occ. eigenvalues --   -0.63697  -0.54086  -0.52869  -0.43370  -0.33768
 Alpha  occ. eigenvalues --   -0.30882
 Alpha virt. eigenvalues --    0.02806   0.05517   0.06042   0.09045   0.11706
 Alpha virt. eigenvalues --    0.11973   0.12452   0.12880   0.14240   0.15685
 Alpha virt. eigenvalues --    0.17411   0.19130   0.22506   0.23952   0.24956

  Beta  occ. eigenvalues --  -21.15908 -21.04254 -11.53473 -11.42383  -1.80671
  Beta  occ. eigenvalues --   -1.56993  -1.13280  -0.76757  -0.64618  -0.63305
  Beta  occ. eigenvalues --   -0.59113  -0.52835  -0.49096  -0.31842  -0.30357
  Beta virt. eigenvalues --    0.02647   0.05488   0.06050   0.09077   0.09334
  Beta virt. eigenvalues --    0.11774   0.12011   0.12912   0.13538   0.15700
  Beta virt. eigenvalues --    0.15931   0.17445   0.19243   0.22821   0.24310

 Mulliken charges and spin densities:
               1          2
     1  O   -2.206012   1.127690
     2  C    4.903720  -0.312388
     3  O   -2.581073   0.066911
     4  C   -3.810814   0.099157
     5  H    1.243608   0.020787
     6  H    1.229972  -0.004278
     7  H    1.220600   0.002121
 Sum of Mulliken charges =   0.00000   1.00000

 Dipole moment (field-independent basis, Debye):
    X=             -2.0129    Y=             -1.1020    Z=              0.0100  Tot=              2.2949
                          Isotropic Fermi Contact Couplings
        Atom                 a.u.       MegaHertz       Gauss      10(-4) cm-1
     1  O(17)              0.19723    -119.56054     -42.66217     -39.88110
     2  C(13)             -0.03223     -36.23027     -12.92786     -12.08512
     3  O(17)              0.03302     -20.01757      -7.14277      -6.67714
     4  C(13)              0.00696       7.81936       2.79014       2.60826
     5  H(1)               0.00012       0.54941       0.19604       0.18326
     6  H(1)               0.00153       6.82344       2.43477       2.27605
     7  H(1)              -0.00063      -2.82245      -1.00712      -0.94147
 --------------------------------------------------------

 Normal termination of Gaussian 16 at Tue Apr  8 22:44:39 2025.
