 Gaussian 16, Revision C.01,

 ----------------------------------------------------------------------
 #t hf aug-cc-pvdz symm=none int=(grid=ultrafine) guess=(read,tcheck) s
 table=opt
 ----------------------------------------------------------------------
 -----
 title
 -----
 Symbolic Z-matrix:
 Charge =  0 Multiplicity = 2

 SCF Done:  E(UHF) =  -446.806979883     A.U. after   15 cycles
 Normal termination of Gaussian 16 at Tue Apr  8 23:45:48 2025.
 Gaussian 16:  ES64L-G16RevC.01  3-Jul-2019

 ----------------------------------------------------------------------
 #t hf aug-cc-pvdz iop(5/13=1,5/36=2,99/5=2) pseudo=read geom=check gue
 ss=(read,tcheck) scf=(maxcycle=1)
 ----------------------------------------------------------------------
 -----
 title
 -----
 Structure from the checkpoint file:  "BDE49_nonexpt_1748_mol2.chk"
 Charge =  0 Multiplicity = 2

                         Standard orientation:
 ---------------------------------------------------------------------
 Center     Atomic      Atomic             Coordinates (Angstroms)
 Number     Number       Type             X           Y           Z
 ---------------------------------------------------------------------
      1         14           0        0.475116   -0.001757   -0.403419
      2          6           0       -1.114974   -0.764397    0.302972
      3          6           0       -2.423703   -0.051165   -0.074803
      4          1           0       -1.004707   -0.787640    1.397327
      5          1           0       -1.155515   -1.812930   -0.013568
      6          1           0       -2.428837    0.988353    0.265466
      7          1           0       -3.292276   -0.543639    0.372660
      8          1           0       -2.572654   -0.040596   -1.158300
      9          6           0        1.968785   -1.042556    0.109791
     10          1           0        2.070652   -1.060683    1.202293
     11          1           0        2.895690   -0.637061   -0.304554
     12          1           0        1.871824   -2.075684   -0.234341
     13          6           0        0.692998    1.781638    0.189882
     14          1           0        0.752971    1.818295    1.285173
     15          1           0       -0.139829    2.416933   -0.121867
     16          1           0        1.612427    2.218140   -0.209480
 ---------------------------------------------------------------------

 SCF Done:  E(UHF) =  -447.784717163     A.U. after    2 cycles

 The electronic state is 2-A.
 Alpha  occ. eigenvalues --  -76.19541 -11.38923 -11.34386 -11.34286 -11.33992
 Alpha  occ. eigenvalues --   -5.53350  -2.17224  -2.16903  -2.15110  -1.14756
 Alpha  occ. eigenvalues --   -1.04794  -1.00552  -0.88257  -0.65480  -0.60586
 Alpha  occ. eigenvalues --   -0.56783  -0.56088  -0.55411  -0.54336  -0.53698
 Alpha  occ. eigenvalues --   -0.48970  -0.48265  -0.39095  -0.37100  -0.24511
 Alpha virt. eigenvalues --    0.03701   0.04774   0.05467   0.06062   0.06365
 Alpha virt. eigenvalues --    0.06441   0.06574   0.06821   0.07046   0.08106
 Alpha virt. eigenvalues --    0.08481   0.09073   0.09592   0.10038   0.13251

  Beta  occ. eigenvalues --  -76.19031 -11.38898 -11.34316 -11.34220 -11.33933
  Beta  occ. eigenvalues --   -5.52548  -2.16663  -2.16333  -2.11713  -1.14373
  Beta  occ. eigenvalues --   -1.04095  -1.00249  -0.87926  -0.62050  -0.60199
  Beta  occ. eigenvalues --   -0.56467  -0.55497  -0.54766  -0.53827  -0.53470
  Beta  occ. eigenvalues --   -0.48828  -0.48031  -0.38351  -0.36313
  Beta virt. eigenvalues --    0.02540   0.04883   0.05580   0.06122   0.06193
  Beta virt. eigenvalues --    0.06422   0.06594   0.06821   0.07062   0.08164
  Beta virt. eigenvalues --    0.08437   0.08863   0.09201   0.09763   0.10307

 Mulliken charges and spin densities:
               1          2
     1  Si   4.819801   1.397253
     2  C   -4.105195  -0.214806
     3  C   -3.883481   0.087764
     4  H    1.355163  -0.005472
     5  H    1.441534  -0.027364
     6  H    1.325877   0.005770
     7  H    1.117112  -0.001236
     8  H    1.298613  -0.017750
     9  C   -5.532331  -0.078639
    10  H    1.218422  -0.006061
    11  H    1.290810  -0.031925
    12  H    1.297124  -0.017867
    13  C   -5.444794  -0.044756
    14  H    1.194807   0.003685
    15  H    1.320766  -0.034692
    16  H    1.285773  -0.013904
 Sum of Mulliken charges =  -0.00000   1.00000

 Dipole moment (field-independent basis, Debye):
    X=              0.0043    Y=             -0.0809    Z=              0.4741  Tot=              0.4810
                          Isotropic Fermi Contact Couplings
        Atom                 a.u.       MegaHertz       Gauss      10(-4) cm-1
     1  Si(29)             0.39661    -352.47995    -125.77361    -117.57466
     2  C(13)              0.02038      22.90897       8.17449       7.64161
     3  C(13)              0.00171       1.92678       0.68752       0.64270
     4  H(1)               0.00527      23.55350       8.40448       7.85660
     5  H(1)              -0.00009      -0.39311      -0.14027      -0.13113
     6  H(1)              -0.00006      -0.28954      -0.10332      -0.09658
     7  H(1)              -0.00029      -1.27834      -0.45614      -0.42641
     8  H(1)              -0.00023      -1.03833      -0.37050      -0.34635

 Normal termination of Gaussian 16 at Tue Apr  8 23:45:53 2025.
