 Gaussian 16, Revision C.01,

 ----------------------------------------------------------------------
 #t hf aug-cc-pvdz symm=none int=(grid=ultrafine) guess=(read,tcheck) s
 table=(opt,rrhf)
 ----------------------------------------------------------------------
 -----
 title
 -----
 Symbolic Z-matrix:
 Charge =  0 Multiplicity = 1

 SCF Done:  E(RHF) =  -1531.12962773     A.U. after   14 cycles
 Normal termination of Gaussian 16 at Wed Apr  9 00:27:25 2025.
 Gaussian 16:  ES64L-G16RevC.01  3-Jul-2019

 ----------------------------------------------------------------------
 #t hf aug-cc-pvdz iop(5/13=1,5/36=2,99/5=2) pseudo=read geom=check gue
 ss=(read,tcheck) scf=(maxcycle=1)
 ----------------------------------------------------------------------
 -----
 title
 -----
 Structure from the checkpoint file:  "BDE49_nonexpt_2746_mol1.chk"
 Charge =  0 Multiplicity = 1

                         Standard orientation:
 ---------------------------------------------------------------------
 Center     Atomic      Atomic             Coordinates (Angstroms)
 Number     Number       Type             X           Y           Z
 ---------------------------------------------------------------------
      1         16           0        0.697409   -1.287481   -0.588893
      2         16           0        2.379577   -0.859716    0.533611
      3          6           0        2.953482    0.639361   -0.268684
      4          6           0       -0.511547   -0.216819    0.224209
      5          8           0       -1.702730   -0.486726   -0.414820
      6          8           0       -0.338338    0.556653    1.102461
      7          8           0        2.482869    1.260076   -1.148849
      8          9           0        4.102638    0.977796    0.355295
      9          6           0       -2.847691    0.203949   -0.036083
     10          9           0       -3.158078   -0.028174    1.237231
     11          9           0       -3.825280   -0.246453   -0.811788
     12          9           0       -2.711685    1.514185   -0.218789
 ---------------------------------------------------------------------

 SCF Done:  E(RHF) =  -1534.28405436     A.U. after    2 cycles

 The electronic state is 1-A.
 Alpha  occ. eigenvalues --  -75.78021 -75.77834 -29.34612 -29.34398 -29.34347
 Alpha  occ. eigenvalues --  -29.34166 -21.16836 -21.12286 -21.12096 -13.23908
 Alpha  occ. eigenvalues --  -13.20204 -13.18854 -13.16438 -13.11634 -13.10921
 Alpha  occ. eigenvalues --  -11.64759 -11.59095 -11.58958  -8.12040  -8.11905
 Alpha  occ. eigenvalues --   -1.95005  -1.79638  -1.76050  -1.38999  -1.30789
 Alpha  occ. eigenvalues --   -1.16042  -1.00839  -0.96598  -0.95627  -0.88291
 Alpha  occ. eigenvalues --   -0.70734  -0.68886  -0.66131  -0.62759  -0.61561
 Alpha  occ. eigenvalues --   -0.60436  -0.53805  -0.50630  -0.47610  -0.46908
 Alpha  occ. eigenvalues --   -0.46532  -0.43850  -0.43055  -0.40624  -0.36722
 Alpha  occ. eigenvalues --   -0.36142  -0.34216  -0.33444  -0.32352  -0.30573
 Alpha  occ. eigenvalues --   -0.29674  -0.29106  -0.28060  -0.27487  -0.24331
 Alpha virt. eigenvalues --    0.04635   0.05561   0.07769   0.08981   0.10090
 Alpha virt. eigenvalues --    0.10585   0.11420   0.11727   0.12128   0.12844
 Alpha virt. eigenvalues --    0.13296   0.13630   0.13816   0.14197   0.14753

 Mulliken charges:
               1
     1  S    0.236209
     2  S    0.280920
     3  C    1.310378
     4  C    1.862120
     5  O   -2.691865
     6  O   -2.265995
     7  O   -2.439561
     8  F    0.891543
     9  C    1.304824
    10  F    0.435376
    11  F    0.619140
    12  F    0.456911
 Sum of Mulliken charges =  -0.00000

 Dipole moment (field-independent basis, Debye):
    X=              1.1487    Y=             -0.0449    Z=              2.1381  Tot=              2.4275

 Test job not archived.
 1\1\GINC-SE284\SP\RHF\Aug-CC-pVDZ\C3F4O3S2\OHZDE\09-Apr-2025\0\\#t hf
 aug-cc-pvdz iop(5/13=1,5/36=2,99/5=2) pseudo=read geom=check guess=(re
 ad,tcheck) scf=(maxcycle=1)\\title\\0,1\S,0,0.697409,-1.287481,-0.5888
 93\S,0,2.379577,-0.859716,0.533611\C,0,2.953482,0.639361,-0.268684\C,0
 ,-0.511547,-0.216819,0.224209\O,0,-1.70273,-0.486726,-0.41482\O,0,-0.3
 38338,0.556653,1.102461\O,0,2.482869,1.260076,-1.148849\F,0,4.102638,0
 .977796,0.355295\C,0,-2.847691,0.203949,-0.036083\F,0,-3.158078,-0.028
 174,1.237231\F,0,-3.82528,-0.246453,-0.811788\F,0,-2.711685,1.514185,-

 Normal termination of Gaussian 16 at Wed Apr  9 00:27:34 2025.
