 Gaussian 16, Revision C.01,

 ----------------------------------------------------------------------
 #t hf aug-cc-pvdz symm=none int=(grid=ultrafine) guess=(read,tcheck) s
 table=opt
 ----------------------------------------------------------------------
 -----
 title
 -----
 Symbolic Z-matrix:
 Charge =  0 Multiplicity = 2

 SCF Done:  E(UHF) =  -524.864655777     A.U. after   15 cycles
 Normal termination of Gaussian 16 at Tue Apr  8 23:47:04 2025.
 Gaussian 16:  ES64L-G16RevC.01  3-Jul-2019

 ----------------------------------------------------------------------
 #t hf aug-cc-pvdz iop(5/13=1,5/36=2,99/5=2) pseudo=read geom=check gue
 ss=(read,tcheck) scf=(maxcycle=1)
 ----------------------------------------------------------------------
 -----
 title
 -----
 Structure from the checkpoint file:  "BDE49_nonexpt_1731_mol2.chk"
 Charge =  0 Multiplicity = 2

                         Standard orientation:
 ---------------------------------------------------------------------
 Center     Atomic      Atomic             Coordinates (Angstroms)
 Number     Number       Type             X           Y           Z
 ---------------------------------------------------------------------
      1         14           0        3.703169   -0.243640    0.000001
      2          6           0        2.056344    0.689496   -0.000001
      3          6           0        0.810157   -0.221890    0.000000
      4          1           0        2.036252    1.348364   -0.875944
      5          1           0        2.036252    1.348366    0.875941
      6          6           0       -0.510144    0.562556   -0.000001
      7          1           0        0.837064   -0.880433    0.876122
      8          1           0        0.837064   -0.880435   -0.876120
      9          6           0       -1.752848   -0.334878    0.000000
     10          1           0       -0.536488    1.221433   -0.877217
     11          1           0       -0.536488    1.221435    0.877214
     12          6           0       -3.072982    0.444917   -0.000001
     13          1           0       -1.723880   -0.994583    0.876888
     14          1           0       -1.723880   -0.994585   -0.876886
     15          6           0       -4.309418   -0.458562    0.000000
     16          1           0       -3.102205    1.103836   -0.876229
     17          1           0       -3.102205    1.103838    0.876226
     18          1           0       -4.326727   -1.105282   -0.882827
     19          1           0       -5.232577    0.127384   -0.000001
     20          1           0       -4.326727   -1.105280    0.882829
     21          1           0        3.846760   -1.096465   -1.211369
     22          1           0        3.846760   -1.096460    1.211374
 ---------------------------------------------------------------------

 SCF Done:  E(UHF) =  -526.245253691     A.U. after    2 cycles

 The electronic state is 2-A.
 Alpha  occ. eigenvalues --  -76.21659 -11.42377 -11.41760 -11.39328 -11.37020
 Alpha  occ. eigenvalues --  -11.35705 -11.33893  -5.55038  -2.18876  -2.17063
 Alpha  occ. eigenvalues --   -2.16577  -1.26979  -1.16011  -1.04130  -0.93222
 Alpha  occ. eigenvalues --   -0.84740  -0.82011  -0.73066  -0.66326  -0.61864
 Alpha  occ. eigenvalues --   -0.58560  -0.56140  -0.55554  -0.52592  -0.50574
 Alpha  occ. eigenvalues --   -0.47740  -0.46639  -0.45972  -0.45033  -0.44449
 Alpha  occ. eigenvalues --   -0.43815  -0.37667  -0.25814
 Alpha virt. eigenvalues --    0.04070   0.04756   0.04992   0.05068   0.05797
 Alpha virt. eigenvalues --    0.05848   0.06007   0.06423   0.06728   0.07616
 Alpha virt. eigenvalues --    0.07897   0.08803   0.08869   0.09588   0.10564

  Beta  occ. eigenvalues --  -76.21114 -11.42318 -11.41750 -11.39303 -11.37004
  Beta  occ. eigenvalues --  -11.35675 -11.33868  -5.54186  -2.18117  -2.16422
  Beta  occ. eigenvalues --   -2.13171  -1.26863  -1.15815  -1.03917  -0.92956
  Beta  occ. eigenvalues --   -0.84469  -0.81986  -0.69016  -0.66293  -0.61812
  Beta  occ. eigenvalues --   -0.58496  -0.56085  -0.55237  -0.52210  -0.50504
  Beta  occ. eigenvalues --   -0.47550  -0.46476  -0.45468  -0.45019  -0.44409
  Beta  occ. eigenvalues --   -0.43577  -0.36425
  Beta virt. eigenvalues --    0.03720   0.04381   0.04977   0.05012   0.05217
  Beta virt. eigenvalues --    0.05860   0.05897   0.06431   0.06526   0.07219
  Beta virt. eigenvalues --    0.07721   0.08776   0.08881   0.09389   0.10401

 Mulliken charges and spin densities:
               1          2
     1  Si   3.799983   1.189591
     2  C   -4.233749  -0.080466
     3  C   -3.082976   0.018103
     4  H    1.462267  -0.021936
     5  H    1.462266  -0.021936
     6  C   -2.095094   0.017084
     7  H    1.672859  -0.023468
     8  H    1.672860  -0.023468
     9  C   -2.274110  -0.029550
    10  H    1.509494  -0.000432
    11  H    1.509493  -0.000432
    12  C   -3.270638  -0.002423
    13  H    1.530326   0.001457
    14  H    1.530327   0.001457
    15  C   -4.601418   0.001457
    16  H    1.460024   0.000039
    17  H    1.460024   0.000039
    18  H    1.339616  -0.000145
    19  H    1.082938  -0.000018
    20  H    1.339615  -0.000145
    21  H   -1.637054  -0.012404
    22  H   -1.637055  -0.012404
 Sum of Mulliken charges =  -0.00000   1.00000

 Dipole moment (field-independent basis, Debye):
    X=             -0.9837    Y=              0.7864    Z=             -0.0000  Tot=              1.2595
                          Isotropic Fermi Contact Couplings
        Atom                 a.u.       MegaHertz       Gauss      10(-4) cm-1
     1  Si(29)             0.44448    -395.02468    -140.95463    -131.76605
     2  C(13)              0.01460      16.41557       5.85748       5.47564
     3  C(13)              0.01855      20.85805       7.44267       6.95749
     4  H(1)               0.00032       1.43143       0.51077       0.47747
     5  H(1)               0.00032       1.43142       0.51077       0.47747
     6  C(13)              0.00491       5.52276       1.97066       1.84219
     7  H(1)              -0.00016      -0.70944      -0.25315      -0.23665
     8  H(1)              -0.00016      -0.70945      -0.25315      -0.23665

 Normal termination of Gaussian 16 at Tue Apr  8 23:47:15 2025.
