 Gaussian 16, Revision C.01,

 ----------------------------------------------------------------------
 #t hf aug-cc-pvdz symm=none int=(grid=ultrafine) guess=(read,tcheck) s
 table=opt
 ----------------------------------------------------------------------
 -----
 title
 -----
 Symbolic Z-matrix:
 Charge =  0 Multiplicity = 2

 SCF Done:  E(UHF) =  -557.471831553     A.U. after   16 cycles
 Normal termination of Gaussian 16 at Wed Apr  9 00:00:04 2025.
 Gaussian 16:  ES64L-G16RevC.01  3-Jul-2019

 ----------------------------------------------------------------------
 #t hf aug-cc-pvdz iop(5/13=1,5/36=2,99/5=2) pseudo=read geom=check gue
 ss=(read,tcheck) scf=(maxcycle=1)
 ----------------------------------------------------------------------
 -----
 title
 -----
 Structure from the checkpoint file:  "BDE49_nonexpt_2071_mol2.chk"
 Charge =  0 Multiplicity = 2

                         Standard orientation:
 ---------------------------------------------------------------------
 Center     Atomic      Atomic             Coordinates (Angstroms)
 Number     Number       Type             X           Y           Z
 ---------------------------------------------------------------------
      1         14           0       -1.810595   -0.557854   -0.026151
      2          6           0       -0.049097    0.231262    0.064839
      3          8           0        0.814041   -0.889697   -0.084831
      4          8           0        0.156189    0.874345    1.321359
      5          6           0        2.218305   -0.621497   -0.115329
      6          1           0        2.528270   -0.190394   -1.073315
      7          1           0        2.712106   -1.584329    0.013480
      8          1           0        2.510346    0.048347    0.698033
      9          6           0        0.166998    1.315222   -0.989193
     10          1           0        0.127558    0.887382   -1.992852
     11          1           0        1.137259    1.799203   -0.843101
     12          1           0       -0.601467    2.084845   -0.900879
     13          1           0        0.008809    0.216901    2.011738
     14          1           0       -2.000487   -1.378655   -1.248989
     15          1           0       -2.853143    0.499541    0.047872
 ---------------------------------------------------------------------

 SCF Done:  E(UHF) =  -558.831555678     A.U. after    2 cycles

 The electronic state is 2-A.
 Alpha  occ. eigenvalues --  -76.22449 -21.07612 -21.04949 -11.46740 -11.40349
 Alpha  occ. eigenvalues --  -11.37059  -5.55870  -2.20176  -2.18248  -2.17545
 Alpha  occ. eigenvalues --   -1.79768  -1.66744  -1.10838  -1.00045  -0.83472
 Alpha  occ. eigenvalues --   -0.75365  -0.64576  -0.62863  -0.61740  -0.56949
 Alpha  occ. eigenvalues --   -0.55839  -0.50961  -0.49584  -0.46604  -0.46283
 Alpha  occ. eigenvalues --   -0.35384  -0.32282  -0.29473  -0.27401
 Alpha virt. eigenvalues --    0.03569   0.04881   0.05524   0.05659   0.05872
 Alpha virt. eigenvalues --    0.06443   0.06532   0.06644   0.08772   0.09550
 Alpha virt. eigenvalues --    0.10019   0.10967   0.12579   0.13145   0.13817

  Beta  occ. eigenvalues --  -76.21899 -21.07624 -21.04957 -11.46704 -11.40354
  Beta  occ. eigenvalues --  -11.37022  -5.55011  -2.19499  -2.17602  -2.14023
  Beta  occ. eigenvalues --   -1.79747  -1.66752  -1.10559  -1.00001  -0.82321
  Beta  occ. eigenvalues --   -0.72667  -0.64517  -0.61856  -0.61595  -0.56604
  Beta  occ. eigenvalues --   -0.55719  -0.50848  -0.49329  -0.46222  -0.45865
  Beta  occ. eigenvalues --   -0.35234  -0.31606  -0.29384
  Beta virt. eigenvalues --    0.03367   0.03730   0.05082   0.05645   0.05875
  Beta virt. eigenvalues --    0.05965   0.06503   0.06664   0.08100   0.08921
  Beta virt. eigenvalues --    0.09711   0.10468   0.11220   0.13115   0.13561

 Mulliken charges and spin densities:
               1          2
     1  Si   3.644716   1.113824
     2  C    3.858223   0.110504
     3  O   -3.218908  -0.091945
     4  O   -3.134765  -0.023233
     5  C   -3.047127  -0.022790
     6  H    1.477995  -0.000279
     7  H    1.321326  -0.000588
     8  H    1.288477  -0.003224
     9  C   -3.656485  -0.039605
    10  H    1.354061  -0.005465
    11  H    1.295265   0.005593
    12  H    1.320928  -0.007452
    13  H    0.716028  -0.008899
    14  H   -1.621376  -0.017635
    15  H   -1.598357  -0.008805
 Sum of Mulliken charges =  -0.00000   1.00000

 Dipole moment (field-independent basis, Debye):
    X=              0.8820    Y=              0.0235    Z=              0.2338  Tot=              0.9127
                          Isotropic Fermi Contact Couplings
        Atom                 a.u.       MegaHertz       Gauss      10(-4) cm-1
     1  Si(29)             0.45500    -404.37348    -144.29051    -134.88447
     2  C(13)              0.00578       6.49673       2.31820       2.16708
     3  O(17)             -0.00525       3.18055       1.13490       1.06092
     4  O(17)              0.00052      -0.31349      -0.11186      -0.10457
     5  C(13)             -0.00141      -1.59008      -0.56738      -0.53039
     6  H(1)               0.00008       0.36756       0.13115       0.12260
     7  H(1)               0.00005       0.21706       0.07745       0.07240
     8  H(1)               0.00003       0.12597       0.04495       0.04202

 Normal termination of Gaussian 16 at Wed Apr  9 00:00:10 2025.
