 Gaussian 16, Revision C.01,

 ----------------------------------------------------------------------
 #t hf aug-cc-pvdz symm=none int=(grid=ultrafine) guess=(read,tcheck) s
 table=(opt,rrhf)
 ----------------------------------------------------------------------
 -----
 title
 -----
 Symbolic Z-matrix:
 Charge =  0 Multiplicity = 1

 SCF Done:  E(RHF) =  -1484.22156947     A.U. after   15 cycles
 Normal termination of Gaussian 16 at Tue Apr  8 22:50:58 2025.
 Gaussian 16:  ES64L-G16RevC.01  3-Jul-2019

 ----------------------------------------------------------------------
 #t hf aug-cc-pvdz iop(5/13=1,5/36=2,99/5=2) pseudo=read geom=check gue
 ss=(read,tcheck) scf=(maxcycle=1)
 ----------------------------------------------------------------------
 -----
 title
 -----
 Structure from the checkpoint file:  "BDE49_expt_1681_mol1.chk"
 Charge =  0 Multiplicity = 1

                         Standard orientation:
 ---------------------------------------------------------------------
 Center     Atomic      Atomic             Coordinates (Angstroms)
 Number     Number       Type             X           Y           Z
 ---------------------------------------------------------------------
      1          6           0        0.586822    2.007072    0.000004
      2          6           0        1.879120    1.495766    0.000000
      3          6           0        2.063254    0.118358   -0.000003
      4          6           0        0.976026   -0.746198   -0.000003
      5          6           0       -0.322923   -0.237797    0.000000
      6          6           0       -0.510478    1.150907    0.000003
      7          1           0        0.423836    3.076679    0.000006
      8          1           0        2.732014    2.161642    0.000001
      9         17           0       -2.103966    1.866347    0.000007
     10          1           0        1.133055   -1.814875   -0.000006
     11         17           0        3.683968   -0.540836   -0.000007
     12          6           0       -1.483933   -1.208910    0.000000
     13          9           0       -1.054722   -2.489073   -0.000004
     14          9           0       -2.265766   -1.057257   -1.086336
     15          9           0       -2.265763   -1.057262    1.086338
 ---------------------------------------------------------------------

 SCF Done:  E(RHF) =  -1486.96635703     A.U. after    2 cycles

 The electronic state is 1-A.
 Alpha  occ. eigenvalues --  -99.91561 -99.91534 -29.31725 -29.31263 -29.31233
 Alpha  occ. eigenvalues --  -11.63090 -11.56537 -11.50846 -11.49571 -11.48333
 Alpha  occ. eigenvalues --  -11.46879 -11.41972 -10.48937 -10.48907  -9.68989
 Alpha  occ. eigenvalues --   -9.68919  -9.68155  -9.68039  -9.67878  -9.67858
 Alpha  occ. eigenvalues --   -1.49170  -1.39862  -1.36508  -1.26847  -1.14524
 Alpha  occ. eigenvalues --   -1.10019  -0.94937  -0.92532  -0.89146  -0.86094
 Alpha  occ. eigenvalues --   -0.78421  -0.73222  -0.66630  -0.65899  -0.63374
 Alpha  occ. eigenvalues --   -0.61128  -0.58156  -0.57454  -0.53055  -0.51099
 Alpha  occ. eigenvalues --   -0.50734  -0.50396  -0.47511  -0.43966  -0.43824
 Alpha  occ. eigenvalues --   -0.40555  -0.36811  -0.36053  -0.34435  -0.31165
 Alpha  occ. eigenvalues --   -0.25698  -0.25456  -0.21885
 Alpha virt. eigenvalues --    0.02992   0.05031   0.06009   0.06753   0.07401
 Alpha virt. eigenvalues --    0.07745   0.08863   0.09089   0.10336   0.10692
 Alpha virt. eigenvalues --    0.10760   0.11634   0.12256   0.12820   0.13270

 Mulliken charges:
               1
     1  C   -0.675273
     2  C   -1.782995
     3  C   -1.885915
     4  C   -1.824399
     5  C    6.443142
     6  C   -5.169087
     7  H    1.802421
     8  H    1.783424
     9  Cl  -0.855684
    10  H    1.882927
    11  Cl  -0.838466
    12  C    0.165704
    13  F    0.576098
    14  F    0.189052
    15  F    0.189052
 Sum of Mulliken charges =  -0.00000

 Dipole moment (field-independent basis, Debye):
    X=             -1.2605    Y=             -0.7131    Z=             -0.0000  Tot=              1.4482

 Test job not archived.
 1\1\GINC-SE454\SP\RHF\Aug-CC-pVDZ\C7H3Cl2F3\OHZDE\08-Apr-2025\0\\#t hf
  aug-cc-pvdz iop(5/13=1,5/36=2,99/5=2) pseudo=read geom=check guess=(r
 ead,tcheck) scf=(maxcycle=1)\\title\\0,1\C,0,0.586822,2.007072,0.00000
 4\C,0,1.87912,1.495766,0.\C,0,2.063254,0.118358,-0.000003\C,0,0.976026
 ,-0.746198,-0.000003\C,0,-0.322923,-0.237797,0.\C,0,-0.510478,1.150907
 ,0.000003\H,0,0.423836,3.076679,0.000006\H,0,2.732014,2.161642,0.00000
 1\Cl,0,-2.103966,1.866347,0.000007\H,0,1.133055,-1.814875,-0.000006\Cl
 ,0,3.683968,-0.540836,-0.000007\C,0,-1.483933,-1.20891,0.\F,0,-1.05472

 Normal termination of Gaussian 16 at Tue Apr  8 22:51:07 2025.
