 Gaussian 16, Revision C.01,

 ----------------------------------------------------------------------
 #t hf aug-cc-pvdz symm=none int=(grid=ultrafine) guess=(read,tcheck) s
 table=(opt,rrhf)
 ----------------------------------------------------------------------
 -----
 title
 -----
 Symbolic Z-matrix:
 Charge =  0 Multiplicity = 1

 SCF Done:  E(RHF) =  -741.015729217     A.U. after   16 cycles
 Normal termination of Gaussian 16 at Tue Apr  8 23:15:35 2025.
 Gaussian 16:  ES64L-G16RevC.01  3-Jul-2019

 ----------------------------------------------------------------------
 #t hf aug-cc-pvdz iop(5/13=1,5/36=2,99/5=2) pseudo=read geom=check gue
 ss=(read,tcheck) scf=(maxcycle=1)
 ----------------------------------------------------------------------
 -----
 title
 -----
 Structure from the checkpoint file:  "BDE49_expt_839_mol1.chk"
 Charge =  0 Multiplicity = 1

                         Standard orientation:
 ---------------------------------------------------------------------
 Center     Atomic      Atomic             Coordinates (Angstroms)
 Number     Number       Type             X           Y           Z
 ---------------------------------------------------------------------
      1          6           0        1.079213    1.239700   -0.000031
      2          6           0        2.439661    0.960266    0.000015
      3          6           0        2.880214   -0.363246    0.000032
      4          6           0        1.956178   -1.406674    0.000004
      5          6           0        0.592970   -1.130003   -0.000041
      6          6           0        0.145146    0.195312   -0.000061
      7          1           0        0.714949    2.259208   -0.000045
      8          1           0        3.157649    1.772228    0.000037
      9          1           0        3.942196   -0.581452    0.000068
     10          1           0        2.297049   -2.435338    0.000018
     11          1           0       -0.115338   -1.950041   -0.000062
     12          6           0       -1.298990    0.571677   -0.000113
     13         16           0       -2.480653   -0.821797    0.000056
     14          1           0       -3.537591    0.005331    0.000142
     15          8           0       -1.691853    1.709578    0.000014
 ---------------------------------------------------------------------

 SCF Done:  E(RHF) =  -742.810236032     A.U. after    2 cycles

 The electronic state is 1-A.
 Alpha  occ. eigenvalues --  -75.70948 -21.06773 -13.16230 -13.13625 -13.02438
 Alpha  occ. eigenvalues --  -11.53427 -11.52438 -11.45312 -11.44658 -11.43028
 Alpha  occ. eigenvalues --  -11.42346 -11.38371  -8.04983  -1.73143  -1.36197
 Alpha  occ. eigenvalues --   -1.17412  -1.11394  -1.10556  -0.92209  -0.88194
 Alpha  occ. eigenvalues --   -0.78976  -0.71855  -0.64995  -0.61150  -0.59971
 Alpha  occ. eigenvalues --   -0.58679  -0.55063  -0.52308  -0.48412  -0.48079
 Alpha  occ. eigenvalues --   -0.46887  -0.44880  -0.34733  -0.33609  -0.26878
 Alpha  occ. eigenvalues --   -0.26333
 Alpha virt. eigenvalues --    0.02751   0.04414   0.04922   0.05538   0.06534
 Alpha virt. eigenvalues --    0.07033   0.07705   0.08300   0.10871   0.11056
 Alpha virt. eigenvalues --    0.11279   0.12799   0.12947   0.13356   0.13892

 Mulliken charges:
               1
     1  C   -3.325070
     2  C   -1.192038
     3  C   -3.076245
     4  C   -1.989383
     5  C    0.426678
     6  C    3.225319
     7  H    1.726493
     8  H    1.462585
     9  H    1.509657
    10  H    1.493133
    11  H    2.076108
    12  C    1.311836
    13  S   -0.932379
    14  H    1.029011
    15  O   -3.745706
 Sum of Mulliken charges =   0.00000

 Dipole moment (field-independent basis, Debye):
    X=              1.7158    Y=             -1.9286    Z=              0.0003  Tot=              2.5814

 Test job not archived.
 1\1\GINC-SE365\SP\RHF\Aug-CC-pVDZ\C7H6O1S1\OHZDE\08-Apr-2025\0\\#t hf
 aug-cc-pvdz iop(5/13=1,5/36=2,99/5=2) pseudo=read geom=check guess=(re
 ad,tcheck) scf=(maxcycle=1)\\title\\0,1\C,0,-1.079213,1.2397,0.000031\
 C,0,-2.439661,0.960266,-0.000015\C,0,-2.880214,-0.363246,-0.000032\C,0
 ,-1.956178,-1.406674,-0.000004\C,0,-0.59297,-1.130003,0.000041\C,0,-0.
 145146,0.195312,0.000061\H,0,-0.714949,2.259208,0.000045\H,0,-3.157649
 ,1.772228,-0.000037\H,0,-3.942196,-0.581452,-0.000068\H,0,-2.297049,-2
 .435338,-0.000018\H,0,0.115338,-1.950041,0.000062\C,0,1.29899,0.571677

 Normal termination of Gaussian 16 at Tue Apr  8 23:15:41 2025.
