 Gaussian 16, Revision C.01,

 ----------------------------------------------------------------------
 #t hf aug-cc-pvdz symm=none int=(grid=ultrafine) guess=(read,tcheck) s
 table=(opt,rrhf)
 ----------------------------------------------------------------------
 -----
 title
 -----
 Symbolic Z-matrix:
 Charge =  0 Multiplicity = 1

 SCF Done:  E(RHF) =  -626.101669813     A.U. after   14 cycles
 Normal termination of Gaussian 16 at Tue Apr  8 23:53:08 2025.
 Gaussian 16:  ES64L-G16RevC.01  3-Jul-2019

 ----------------------------------------------------------------------
 #t hf aug-cc-pvdz iop(5/13=1,5/36=2,99/5=2) pseudo=read geom=check gue
 ss=(read,tcheck) scf=(maxcycle=1)
 ----------------------------------------------------------------------
 -----
 title
 -----
 Structure from the checkpoint file:  "BDE49_nonexpt_1911_mol1.chk"
 Charge =  0 Multiplicity = 1

                         Standard orientation:
 ---------------------------------------------------------------------
 Center     Atomic      Atomic             Coordinates (Angstroms)
 Number     Number       Type             X           Y           Z
 ---------------------------------------------------------------------
      1         14           0       -0.195885   -0.803577    0.000011
      2          6           0        0.511086    0.963940   -0.000019
      3          7           0        1.981940    1.003974   -0.000057
      4          7           0        2.465786   -0.135199   -0.000110
      5          7           0       -1.999625   -0.743347    0.000032
      6          1           0        0.127580   -1.573379    1.217923
      7          1           0        0.127551   -1.573402   -1.217895
      8          7           0       -2.510385    0.389930    0.000019
      9          6           0        3.928485   -0.160116    0.000038
     10          1           0        4.257319   -0.717579   -0.881127
     11          1           0        4.257153   -0.717762    0.881150
     12          1           0        4.347733    0.849338    0.000182
     13          6           0       -3.981780    0.376718    0.000037
     14          1           0       -4.320253    0.930317   -0.880932
     15          1           0       -4.320231    0.930348    0.880995
     16          1           0       -4.374956   -0.643978    0.000060
     17          1           0        0.164883    1.537718    0.866508
     18          1           0        0.164853    1.537705   -0.866542
 ---------------------------------------------------------------------

 SCF Done:  E(RHF) =  -627.846963804     A.U. after    2 cycles

 The electronic state is 1-A.
 Alpha  occ. eigenvalues --  -76.21911 -15.79437 -15.79083 -15.78769 -15.75142
 Alpha  occ. eigenvalues --  -11.39408 -11.38279 -11.37342  -5.55706  -2.20876
 Alpha  occ. eigenvalues --   -2.18829  -2.17699  -1.55460  -1.50811  -1.17547
 Alpha  occ. eigenvalues --   -1.09879  -0.98644  -0.85650  -0.80467  -0.70876
 Alpha  occ. eigenvalues --   -0.66755  -0.63848  -0.61556  -0.60432  -0.59464
 Alpha  occ. eigenvalues --   -0.58130  -0.55502  -0.52368  -0.49150  -0.47590
 Alpha  occ. eigenvalues --   -0.44022  -0.43283  -0.43127  -0.33402  -0.29654
 Alpha virt. eigenvalues --    0.03937   0.04430   0.05849   0.05873   0.05970
 Alpha virt. eigenvalues --    0.06399   0.06684   0.07467   0.07579   0.08158
 Alpha virt. eigenvalues --    0.08263   0.09723   0.11244   0.12132   0.12525

 Mulliken charges:
               1
     1  Si   6.080260
     2  C   -2.684052
     3  N   -1.148230
     4  N   -0.976167
     5  N   -1.285713
     6  H   -1.982521
     7  H   -1.982468
     8  N   -0.819456
     9  C   -3.132192
    10  H    1.380064
    11  H    1.380051
    12  H    1.347923
    13  C   -3.206899
    14  H    1.390090
    15  H    1.390090
    16  H    1.338849
    17  H    1.455175
    18  H    1.455195
 Sum of Mulliken charges =  -0.00000

 Dipole moment (field-independent basis, Debye):
    X=              0.8541    Y=              0.8243    Z=              0.0001  Tot=              1.1870

 Test job not archived.
 1\1\GINC-SE342\SP\RHF\Aug-CC-pVDZ\C3H10N4Si1\OHZDE\08-Apr-2025\0\\#t h
 f aug-cc-pvdz iop(5/13=1,5/36=2,99/5=2) pseudo=read geom=check guess=(
 read,tcheck) scf=(maxcycle=1)\\title\\0,1\Si,0,0.195885,-0.803577,-0.0
 00011\C,0,-0.511086,0.96394,0.000019\N,0,-1.98194,1.003974,0.000057\N,
 0,-2.465786,-0.135199,0.00011\N,0,1.999625,-0.743347,-0.000032\H,0,-0.
 12758,-1.573379,-1.217923\H,0,-0.127551,-1.573402,1.217895\N,0,2.51038
 5,0.38993,-0.000019\C,0,-3.928485,-0.160116,-0.000038\H,0,-4.257319,-0
 .717579,0.881127\H,0,-4.257153,-0.717762,-0.88115\H,0,-4.347733,0.8493

 Normal termination of Gaussian 16 at Tue Apr  8 23:53:15 2025.
