 Gaussian 16, Revision C.01,

 ----------------------------------------------------------------------
 #t hf aug-cc-pvdz symm=none int=(grid=ultrafine) guess=(read,tcheck) s
 table=(opt,rrhf)
 ----------------------------------------------------------------------
 -----
 title
 -----
 Symbolic Z-matrix:
 Charge =  0 Multiplicity = 1

 SCF Done:  E(RHF) =  -734.310345662     A.U. after   13 cycles
 Normal termination of Gaussian 16 at Tue Apr  8 23:30:02 2025.
 Gaussian 16:  ES64L-G16RevC.01  3-Jul-2019

 ----------------------------------------------------------------------
 #t hf aug-cc-pvdz iop(5/13=1,5/36=2,99/5=2) pseudo=read geom=check gue
 ss=(read,tcheck) scf=(maxcycle=1)
 ----------------------------------------------------------------------
 -----
 title
 -----
 Structure from the checkpoint file:  "BDE49_nonexpt_133_mol1.chk"
 Charge =  0 Multiplicity = 1

                         Standard orientation:
 ---------------------------------------------------------------------
 Center     Atomic      Atomic             Coordinates (Angstroms)
 Number     Number       Type             X           Y           Z
 ---------------------------------------------------------------------
      1          5           0        0.751191    0.916278   -0.329258
      2          5           0       -0.751192    0.916283    0.329249
      3         15           0       -2.064738   -0.396198    0.008496
      4          1           0       -1.952832   -0.686376   -1.367665
      5          1           0       -3.265575    0.344153   -0.016842
      6         15           0        2.064739   -0.396200   -0.008500
      7          1           0        1.952799   -0.686412    1.367652
      8          1           0        3.265571    0.344158    0.016888
      9          1           0       -1.037272    1.703791    1.181961
     10          1           0        1.037307    1.703846   -1.181902
 ---------------------------------------------------------------------

 SCF Done:  E(RHF) =  -734.928658018     A.U. after    2 cycles

 The electronic state is 1-A.
 Alpha  occ. eigenvalues -- -105.17290-105.17151  -7.61073  -7.60420  -2.74580
 Alpha  occ. eigenvalues --   -2.74504  -1.50883  -1.49599  -1.45168  -1.44684
 Alpha  occ. eigenvalues --   -1.41532  -1.41032  -0.90890  -0.78420  -0.67963
 Alpha  occ. eigenvalues --   -0.59846  -0.44805  -0.26004  -0.26001  -0.17124
 Alpha  occ. eigenvalues --   -0.16134  -0.08074  -0.01401
 Alpha virt. eigenvalues --    0.03255   0.03585   0.04264   0.05859   0.07904
 Alpha virt. eigenvalues --    0.08668   0.08834   0.09103   0.09936   0.10131
 Alpha virt. eigenvalues --    0.10244   0.10716   0.11092   0.11559   0.12313

 Mulliken charges:
               1
     1  B    0.729851
     2  B    0.729846
     3  P    1.935247
     4  H   -0.534886
     5  H   -0.614377
     6  P    1.935270
     7  H   -0.534880
     8  H   -0.614388
     9  H   -1.515813
    10  H   -1.515870
 Sum of Mulliken charges =  -0.00000

 Dipole moment (field-independent basis, Debye):
    X=              0.0002    Y=            -10.2137    Z=              0.0002  Tot=             10.2137

 Test job not archived.
 1\1\GINC-SE143\SP\RHF\Aug-CC-pVDZ\B2H6P2\OHZDE\08-Apr-2025\0\\#t hf au
 g-cc-pvdz iop(5/13=1,5/36=2,99/5=2) pseudo=read geom=check guess=(read
 ,tcheck) scf=(maxcycle=1)\\title\\0,1\B,0,-0.751191,0.916278,0.329258\
 B,0,0.751192,0.916283,-0.329249\P,0,2.064738,-0.396198,-0.008496\H,0,1
 .952832,-0.686376,1.367665\H,0,3.265575,0.344153,0.016842\P,0,-2.06473
 9,-0.3962,0.0085\H,0,-1.952799,-0.686412,-1.367652\H,0,-3.265571,0.344
 158,-0.016888\H,0,1.037272,1.703791,-1.181961\H,0,-1.037307,1.703846,1
 .181902\\Version=ES64L-G16RevC.01\State=1-A\HF=-734.928658\RMSD=4.166e

 Normal termination of Gaussian 16 at Tue Apr  8 23:30:05 2025.
