 Gaussian 16, Revision C.01,

 ----------------------------------------------------------------------
 #t hf aug-cc-pvdz symm=none int=(grid=ultrafine) guess=(read,tcheck) s
 table=(opt,rrhf)
 ----------------------------------------------------------------------
 -----
 title
 -----
 Symbolic Z-matrix:
 Charge =  0 Multiplicity = 1

 SCF Done:  E(RHF) =  -747.450964322     A.U. after   16 cycles
 Normal termination of Gaussian 16 at Wed Apr  9 00:07:22 2025.
 Gaussian 16:  ES64L-G16RevC.01  3-Jul-2019

 ----------------------------------------------------------------------
 #t hf aug-cc-pvdz iop(5/13=1,5/36=2,99/5=2) pseudo=read geom=check gue
 ss=(read,tcheck) scf=(maxcycle=1)
 ----------------------------------------------------------------------
 -----
 title
 -----
 Structure from the checkpoint file:  "BDE49_nonexpt_2200_mol1.chk"
 Charge =  0 Multiplicity = 1

                         Standard orientation:
 ---------------------------------------------------------------------
 Center     Atomic      Atomic             Coordinates (Angstroms)
 Number     Number       Type             X           Y           Z
 ---------------------------------------------------------------------
      1          6           0       -2.584131   -1.397755   -0.000030
      2          6           0       -1.233469   -1.714711    0.000077
      3          6           0       -0.249428   -0.719240    0.000130
      4          6           0       -2.967252   -0.057407   -0.000095
      5          6           0       -2.014422    0.957970   -0.000062
      6          6           0       -0.655101    0.631306    0.000043
      7          1           0       -4.018717    0.207811   -0.000183
      8          1           0       -2.334794    1.990639   -0.000130
      9          8           0        0.341071    1.557420    0.000041
     10          6           0        0.017825    2.944040   -0.000081
     11          1           0        0.971454    3.468221   -0.000062
     12          1           0       -0.548632    3.218262    0.895238
     13          1           0       -0.548525    3.218132   -0.895507
     14          1           0       -3.331923   -2.181533   -0.000062
     15          1           0       -0.893775   -2.743560    0.000138
     16          6           0        1.187758   -1.141930    0.000252
     17          8           0        1.469996   -2.331941   -0.000243
     18         14           0        2.702738    0.069986    0.000058
     19          1           0        2.741409    0.921300    1.210784
     20          1           0        2.740566    0.921982   -1.210220
     21          1           0        3.885398   -0.818536   -0.000599
 ---------------------------------------------------------------------

 SCF Done:  E(RHF) =  -749.689125809     A.U. after    2 cycles

 The electronic state is 1-A.
 Alpha  occ. eigenvalues --  -76.21654 -21.09499 -21.05017 -11.54376 -11.48529
 Alpha  occ. eigenvalues --  -11.47840 -11.44212 -11.43578 -11.42324 -11.41861
 Alpha  occ. eigenvalues --  -11.37951  -5.55029  -2.19324  -2.17903  -2.17157
 Alpha  occ. eigenvalues --   -1.81587  -1.69716  -1.33250  -1.13174  -1.10132
 Alpha  occ. eigenvalues --   -1.00854  -0.93019  -0.85156  -0.82318  -0.75543
 Alpha  occ. eigenvalues --   -0.69555  -0.65397  -0.64356  -0.63022  -0.61856
 Alpha  occ. eigenvalues --   -0.57807  -0.55533  -0.55260  -0.49344  -0.48579
 Alpha  occ. eigenvalues --   -0.48399  -0.47193  -0.45030  -0.44279  -0.42257
 Alpha  occ. eigenvalues --   -0.40598  -0.33197  -0.27558  -0.26026
 Alpha virt. eigenvalues --    0.02830   0.04216   0.04614   0.05353   0.05422
 Alpha virt. eigenvalues --    0.06138   0.06441   0.06834   0.07517   0.07946
 Alpha virt. eigenvalues --    0.08083   0.09076   0.10084   0.10443   0.11873

 Mulliken charges:
               1
     1  C   -2.432795
     2  C   -1.343025
     3  C    0.776766
     4  C   -1.454351
     5  C   -3.872240
     6  C    9.855980
     7  H    1.544809
     8  H    1.958746
     9  O   -5.460248
    10  C   -3.830550
    11  H    1.487631
    12  H    1.497162
    13  H    1.497200
    14  H    1.541683
    15  H    1.788212
    16  C   -0.971738
    17  O   -3.179308
    18  Si   6.137272
    19  H   -1.818439
    20  H   -1.817904
    21  H   -1.904865
 Sum of Mulliken charges =  -0.00000

 Dipole moment (field-independent basis, Debye):
    X=             -1.8729    Y=              2.2539    Z=             -0.0004  Tot=              2.9305

 Test job not archived.
 1\1\GINC-SE095\SP\RHF\Aug-CC-pVDZ\C8H10O2Si1\OHZDE\09-Apr-2025\0\\#t h
 f aug-cc-pvdz iop(5/13=1,5/36=2,99/5=2) pseudo=read geom=check guess=(
 read,tcheck) scf=(maxcycle=1)\\title\\0,1\C,0,2.584131,-1.397755,0.000
 03\C,0,1.233469,-1.714711,-0.000077\C,0,0.249428,-0.71924,-0.00013\C,0
 ,2.967252,-0.057407,0.000095\C,0,2.014422,0.95797,0.000062\C,0,0.65510
 1,0.631306,-0.000043\H,0,4.018717,0.20781,0.000183\H,0,2.334794,1.9906
 39,0.00013\O,0,-0.341071,1.55742,-0.000041\C,0,-0.017824,2.94404,0.000
 081\H,0,-0.971453,3.468221,0.000062\H,0,0.548633,3.218262,-0.895238\H,

 Normal termination of Gaussian 16 at Wed Apr  9 00:07:36 2025.
