 Gaussian 16, Revision C.01,

 ----------------------------------------------------------------------
 #t hf aug-cc-pvdz symm=none int=(grid=ultrafine) guess=(read,tcheck) s
 table=opt
 ----------------------------------------------------------------------
 -----
 title
 -----
 Symbolic Z-matrix:
 Charge =  0 Multiplicity = 2

 SCF Done:  E(UHF) =  -476.168334262     A.U. after   15 cycles
 Normal termination of Gaussian 16 at Tue Apr  8 22:46:29 2025.
 Gaussian 16:  ES64L-G16RevC.01  3-Jul-2019

 ----------------------------------------------------------------------
 #t hf aug-cc-pvdz iop(5/13=1,5/36=2,99/5=2) pseudo=read geom=check gue
 ss=(read,tcheck) scf=(maxcycle=1)
 ----------------------------------------------------------------------
 -----
 title
 -----
 Structure from the checkpoint file:  "BDE49_expt_1563_mol2.chk"
 Charge =  0 Multiplicity = 2

                         Standard orientation:
 ---------------------------------------------------------------------
 Center     Atomic      Atomic             Coordinates (Angstroms)
 Number     Number       Type             X           Y           Z
 ---------------------------------------------------------------------
      1         16           0       -1.195574   -0.159439   -0.000000
      2          6           0        0.440361    0.620884   -0.000000
      3          6           0        1.629250   -0.335857   -0.000000
      4          1           0        0.456732    1.287039    0.871073
      5          1           0        0.456733    1.287042   -0.871070
      6          1           0        1.613945   -0.978705    0.882544
      7          1           0        2.570168    0.224201    0.000001
      8          1           0        1.613946   -0.978703   -0.882546
 ---------------------------------------------------------------------

 SCF Done:  E(UHF) =  -476.773059738     A.U. after    2 cycles

 The electronic state is 2-A.
 Alpha  occ. eigenvalues --  -75.69956 -13.10222 -13.03829 -13.02695 -11.41928
 Alpha  occ. eigenvalues --  -11.37090  -8.03566  -1.23094  -1.04072  -0.86312
 Alpha  occ. eigenvalues --   -0.63723  -0.58801  -0.52559  -0.50910  -0.40128
 Alpha  occ. eigenvalues --   -0.28982  -0.24201
 Alpha virt. eigenvalues --    0.03010   0.05211   0.05538   0.06196   0.07109
 Alpha virt. eigenvalues --    0.07532   0.12368   0.12926   0.14080   0.14103
 Alpha virt. eigenvalues --    0.15691   0.17590   0.17593   0.19059   0.19444

  Beta  occ. eigenvalues --  -75.68976 -13.09642 -13.02115 -12.97933 -11.42024
  Beta  occ. eigenvalues --  -11.37115  -8.02469  -1.20772  -0.99273  -0.83371
  Beta  occ. eigenvalues --   -0.62730  -0.58550  -0.52455  -0.50234  -0.39360
  Beta  occ. eigenvalues --   -0.22620
  Beta virt. eigenvalues --    0.03072   0.04266   0.05237   0.06172   0.06249
  Beta virt. eigenvalues --    0.07292   0.07682   0.12581   0.13015   0.14185
  Beta virt. eigenvalues --    0.15726   0.16384   0.17767   0.18478   0.19351

 Mulliken charges and spin densities:
               1          2
     1  S    0.689416   1.121204
     2  C   -3.975094  -0.119049
     3  C   -3.304537  -0.021024
     4  H    1.450457   0.008018
     5  H    1.450456   0.008018
     6  H    1.233960   0.000406
     7  H    1.221382   0.002021
     8  H    1.233960   0.000406
 Sum of Mulliken charges =   0.00000   1.00000

 Dipole moment (field-independent basis, Debye):
    X=              0.0438    Y=              0.2736    Z=              0.0000  Tot=              0.2771
                          Isotropic Fermi Contact Couplings
        Atom                 a.u.       MegaHertz       Gauss      10(-4) cm-1
     1  S(33)              0.26211      90.02731      32.12398      30.02988
     2  C(13)             -0.01606     -18.05408      -6.44214      -6.02219
     3  C(13)             -0.00119      -1.33775      -0.47734      -0.44622
     4  H(1)               0.01056      47.21598      16.84783      15.74955
     5  H(1)               0.01056      47.21537      16.84762      15.74935
     6  H(1)              -0.00022      -0.99955      -0.35666      -0.33341
     7  H(1)              -0.00054      -2.41403      -0.86139      -0.80523
     8  H(1)              -0.00022      -0.99956      -0.35667      -0.33342

 Normal termination of Gaussian 16 at Tue Apr  8 22:46:31 2025.
