 Gaussian 16, Revision C.01,

 ----------------------------------------------------------------------
 #t hf aug-cc-pvdz symm=none int=(grid=ultrafine) guess=(read,tcheck) s
 table=(opt,rrhf)
 ----------------------------------------------------------------------
 -----
 title
 -----
 Symbolic Z-matrix:
 Charge =  0 Multiplicity = 1

 SCF Done:  E(RHF) =  -1222.98745904     A.U. after   18 cycles
 Normal termination of Gaussian 16 at Tue Apr  8 23:32:58 2025.
 Gaussian 16:  ES64L-G16RevC.01  3-Jul-2019

 ----------------------------------------------------------------------
 #t hf aug-cc-pvdz iop(5/13=1,5/36=2,99/5=2) pseudo=read geom=check gue
 ss=(read,tcheck) scf=(maxcycle=1)
 ----------------------------------------------------------------------
 -----
 title
 -----
 Structure from the checkpoint file:  "BDE49_nonexpt_1377_mol1.chk"
 Charge =  0 Multiplicity = 1

                         Standard orientation:
 ---------------------------------------------------------------------
 Center     Atomic      Atomic             Coordinates (Angstroms)
 Number     Number       Type             X           Y           Z
 ---------------------------------------------------------------------
      1          9           0        2.606680    1.061410    0.135770
      2          9           0       -0.689565   -1.429388   -1.605186
      3          8           0        1.640903   -1.637871    1.258477
      4          8           0       -0.125840    2.411707   -0.243315
      5         15           0        1.499306    0.281068   -0.756832
      6         15           0       -0.875830   -1.477222    0.044715
      7          6           0        0.983965   -1.115264    0.406518
      8          6           0       -0.075346    1.212642   -0.208945
      9          6           0       -1.264136    0.343014    0.284938
     10          6           0       -2.560429    0.735465   -0.444682
     11          1           0       -2.503475    0.500828   -1.509303
     12          1           0       -2.725341    1.809630   -0.337475
     13          1           0       -3.416994    0.207325   -0.019077
     14          6           0       -1.385811    0.586819    1.809968
     15          1           0       -0.475145    0.319812    2.353589
     16          1           0       -1.582326    1.645951    1.987880
     17          1           0       -2.212864    0.003824    2.222817
 ---------------------------------------------------------------------

 SCF Done:  E(RHF) =  -1225.56085551     A.U. after    2 cycles

 The electronic state is 1-A.
 Alpha  occ. eigenvalues -- -105.27750-105.26750 -29.29640 -29.29511 -21.11948
 Alpha  occ. eigenvalues --  -21.09997 -11.52214 -11.50750 -11.46161 -11.42855
 Alpha  occ. eigenvalues --  -11.40284  -2.85915  -2.85586  -1.76278  -1.75429
 Alpha  occ. eigenvalues --   -1.60722  -1.58711  -1.57527  -1.54279  -1.53547
 Alpha  occ. eigenvalues --   -1.52630  -1.24374  -1.04857  -0.98018  -0.89018
 Alpha  occ. eigenvalues --   -0.86880  -0.69929  -0.68356  -0.62973  -0.62200
 Alpha  occ. eigenvalues --   -0.61424  -0.58160  -0.54611  -0.54112  -0.52466
 Alpha  occ. eigenvalues --   -0.52247  -0.50912  -0.48227  -0.45751  -0.44496
 Alpha  occ. eigenvalues --   -0.36571  -0.35846  -0.35110  -0.34473  -0.32884
 Alpha  occ. eigenvalues --   -0.21976  -0.18423  -0.11538  -0.04043  -0.00484
 Alpha virt. eigenvalues --    0.04101   0.05218   0.05586   0.06022   0.06525
 Alpha virt. eigenvalues --    0.07485   0.07985   0.08376   0.08942   0.09857
 Alpha virt. eigenvalues --    0.10890   0.11454   0.11752   0.12700   0.12798

 Mulliken charges:
               1
     1  F   -0.250770
     2  F   -0.541244
     3  O   -2.886502
     4  O   -3.087572
     5  P    3.913952
     6  P    3.856371
     7  C   -1.116374
     8  C    0.842770
     9  C    0.400366
    10  C   -3.995647
    11  H    1.229843
    12  H    1.275298
    13  H    1.321396
    14  C   -4.520351
    15  H    1.039849
    16  H    1.222980
    17  H    1.295633
 Sum of Mulliken charges =   0.00000

 Dipole moment (field-independent basis, Debye):
    X=              2.9907    Y=              1.6488    Z=             -4.1112  Tot=              5.3446

 Test job not archived.
 1\1\GINC-SE073\SP\RHF\Aug-CC-pVDZ\C5H6F2O2P2\OHZDE\08-Apr-2025\0\\#t h
 f aug-cc-pvdz iop(5/13=1,5/36=2,99/5=2) pseudo=read geom=check guess=(
 read,tcheck) scf=(maxcycle=1)\\title\\0,1\F,0,2.60668,-1.06141,-0.1357
 7\F,0,-0.689564,1.429388,1.605186\O,0,1.640904,1.637871,-1.258477\O,0,
 -0.12584,-2.411707,0.243315\P,0,1.499306,-0.281068,0.756832\P,0,-0.875
 829,1.477222,-0.044715\C,0,0.983965,1.115264,-0.406518\C,0,-0.075346,-
 1.212642,0.208945\C,0,-1.264136,-0.343014,-0.284938\C,0,-2.560429,-0.7
 35464,0.444682\H,0,-2.503475,-0.500827,1.509303\H,0,-2.725341,-1.80962

 Normal termination of Gaussian 16 at Tue Apr  8 23:33:09 2025.
