 Gaussian 16, Revision C.01,

 ----------------------------------------------------------------------
 #t hf aug-cc-pvdz symm=none int=(grid=ultrafine) guess=(read,tcheck) s
 table=(opt,rrhf)
 ----------------------------------------------------------------------
 -----
 title
 -----
 Symbolic Z-matrix:
 Charge =  0 Multiplicity = 1

 SCF Done:  E(RHF) =  -1177.88464232     A.U. after   15 cycles
 Normal termination of Gaussian 16 at Wed Apr  9 00:26:52 2025.
 Gaussian 16:  ES64L-G16RevC.01  3-Jul-2019

 ----------------------------------------------------------------------
 #t hf aug-cc-pvdz iop(5/13=1,5/36=2,99/5=2) pseudo=read geom=check gue
 ss=(read,tcheck) scf=(maxcycle=1)
 ----------------------------------------------------------------------
 -----
 title
 -----
 Structure from the checkpoint file:  "BDE49_nonexpt_2715_mol1.chk"
 Charge =  0 Multiplicity = 1

                         Standard orientation:
 ---------------------------------------------------------------------
 Center     Atomic      Atomic             Coordinates (Angstroms)
 Number     Number       Type             X           Y           Z
 ---------------------------------------------------------------------
      1          6           0        2.117159    0.808478   -0.150292
      2          8           0        1.305684    1.522962   -0.657825
      3         16           0        1.894707   -1.008993    0.038328
      4         16           0        0.024535   -1.292587   -0.793720
      5          6           0       -1.080548   -0.643475    0.522574
      6          8           0       -0.676900   -0.167742    1.542078
      7          6           0        3.420821    1.267688    0.462910
      8          1           0        3.219335    1.581293    1.491316
      9          1           0        3.790174    2.128211   -0.096123
     10          1           0        4.173836    0.478466    0.484091
     11          6           0       -2.544691   -0.764348    0.136170
     12          6           0       -3.300747    0.558814    0.349429
     13          1           0       -2.963390   -1.546987    0.779208
     14          1           0       -2.640715   -1.109129   -0.898119
     15          6           0       -2.866887    1.665471   -0.616076
     16          1           0       -3.142645    0.878597    1.382767
     17          1           0       -4.371389    0.361757    0.236928
     18          1           0       -1.801613    1.890066   -0.517477
     19          1           0       -3.421166    2.587171   -0.422705
     20          1           0       -3.051210    1.378301   -1.655922
 ---------------------------------------------------------------------

 SCF Done:  E(RHF) =  -1180.09478301     A.U. after    2 cycles

 The electronic state is 1-A.
 Alpha  occ. eigenvalues --  -75.72523 -75.72263 -21.07635 -21.07343 -13.19348
 Alpha  occ. eigenvalues --  -13.14716 -13.13390 -13.11544 -13.06559 -13.05902
 Alpha  occ. eigenvalues --  -11.51846 -11.51755 -11.43481 -11.40688 -11.40058
 Alpha  occ. eigenvalues --  -11.35930  -8.06526  -8.06348  -1.73625  -1.73117
 Alpha  occ. eigenvalues --   -1.26537  -1.22178  -1.13573  -1.06155  -1.00577
 Alpha  occ. eigenvalues --   -0.87673  -0.76861  -0.72870  -0.65577  -0.63545
 Alpha  occ. eigenvalues --   -0.62516  -0.61336  -0.57929  -0.57585  -0.56473
 Alpha  occ. eigenvalues --   -0.51492  -0.50870  -0.48950  -0.47983  -0.47012
 Alpha  occ. eigenvalues --   -0.45290  -0.43353  -0.36483  -0.29776  -0.28685
 Alpha  occ. eigenvalues --   -0.25986  -0.24738
 Alpha virt. eigenvalues --    0.02937   0.03680   0.05416   0.05598   0.05946
 Alpha virt. eigenvalues --    0.06306   0.06483   0.06714   0.07255   0.08377
 Alpha virt. eigenvalues --    0.08914   0.09450   0.10729   0.10968   0.12334

 Mulliken charges:
               1
     1  C    3.117659
     2  O   -3.031929
     3  S    0.084064
     4  S   -0.059563
     5  C    3.822629
     6  O   -3.133499
     7  C   -4.215311
     8  H    1.299875
     9  H    1.246208
    10  H    1.471677
    11  C   -3.440354
    12  C   -3.144268
    13  H    1.341957
    14  H    1.771990
    15  C   -3.937570
    16  H    1.455424
    17  H    1.332956
    18  H    1.585211
    19  H    1.136713
    20  H    1.296131
 Sum of Mulliken charges =   0.00000

 Dipole moment (field-independent basis, Debye):
    X=              0.0668    Y=             -0.6606    Z=             -0.3068  Tot=              0.7314

 Test job not archived.
 1\1\GINC-SE105\SP\RHF\Aug-CC-pVDZ\C6H10O2S2\OHZDE\09-Apr-2025\0\\#t hf
  aug-cc-pvdz iop(5/13=1,5/36=2,99/5=2) pseudo=read geom=check guess=(r
 ead,tcheck) scf=(maxcycle=1)\\title\\0,1\C,0,2.117159,0.808478,-0.1502
 92\O,0,1.305684,1.522962,-0.657825\S,0,1.894707,-1.008993,0.038328\S,0
 ,0.024535,-1.292587,-0.79372\C,0,-1.080548,-0.643475,0.522574\O,0,-0.6
 769,-0.167742,1.542078\C,0,3.420821,1.267688,0.46291\H,0,3.219335,1.58
 1293,1.491316\H,0,3.790174,2.12821,-0.096123\H,0,4.173836,0.478465,0.4
 84091\C,0,-2.544691,-0.764348,0.13617\C,0,-3.300747,0.558814,0.349429\

 Normal termination of Gaussian 16 at Wed Apr  9 00:27:04 2025.
