 Gaussian 16, Revision C.01,

 ----------------------------------------------------------------------
 #t hf aug-cc-pvdz symm=none int=(grid=ultrafine) guess=(read,tcheck) s
 table=(opt,rrhf)
 ----------------------------------------------------------------------
 -----
 title
 -----
 Symbolic Z-matrix:
 Charge =  0 Multiplicity = 1

 SCF Done:  E(RHF) =  -1462.36730834     A.U. after   13 cycles
 Normal termination of Gaussian 16 at Tue Apr  8 23:55:45 2025.
 Gaussian 16:  ES64L-G16RevC.01  3-Jul-2019

 ----------------------------------------------------------------------
 #t hf aug-cc-pvdz iop(5/13=1,5/36=2,99/5=2) pseudo=read geom=check gue
 ss=(read,tcheck) scf=(maxcycle=1)
 ----------------------------------------------------------------------
 -----
 title
 -----
 Structure from the checkpoint file:  "BDE49_nonexpt_1954_mol1.chk"
 Charge =  0 Multiplicity = 1

                         Standard orientation:
 ---------------------------------------------------------------------
 Center     Atomic      Atomic             Coordinates (Angstroms)
 Number     Number       Type             X           Y           Z
 ---------------------------------------------------------------------
      1         14           0        0.670228    1.741465    0.029341
      2          6           0       -1.212295    1.511294   -0.197756
      3         15           0       -1.755245   -0.183159    0.064856
      4          8           0       -3.345510   -0.054090    0.105551
      5          8           0       -1.492556   -0.982710   -1.274807
      6          1           0       -3.784663   -0.882970    0.335560
      7          1           0       -0.526347   -1.190672   -1.389813
      8          8           0       -1.146846   -0.785141    1.280179
      9         15           0        1.688508   -0.301840   -0.047252
     10          1           0        0.950741    2.400205    1.320802
     11          1           0        1.207332    2.545096   -1.088870
     12          8           0        3.265346   -0.025043   -0.112183
     13          1           0        3.691063   -0.540687   -0.809239
     14          8           0        1.534349   -0.993272    1.371766
     15          1           0        0.568920   -1.095519    1.567997
     16          8           0        1.187813   -1.083497   -1.216811
     17          1           0       -1.518680    1.839143   -1.193297
     18          1           0       -1.717497    2.142136    0.538989
 ---------------------------------------------------------------------

 SCF Done:  E(RHF) =  -1464.99791959     A.U. after    2 cycles

 The electronic state is 1-A.
 Alpha  occ. eigenvalues -- -105.31139-105.30567 -76.25566 -21.12402 -21.12098
 Alpha  occ. eigenvalues --  -21.09222 -21.09187 -21.03044 -21.03041 -11.39490
 Alpha  occ. eigenvalues --   -5.59122  -2.93760  -2.92380  -2.22572  -2.21299
 Alpha  occ. eigenvalues --   -2.21261  -1.98188  -1.96711  -1.91991  -1.90724
 Alpha  occ. eigenvalues --   -1.80903  -1.79115  -1.55615  -1.50703  -1.39754
 Alpha  occ. eigenvalues --   -1.38749  -1.29544  -1.26659  -1.03047  -0.76866
 Alpha  occ. eigenvalues --   -0.71790  -0.67024  -0.62514  -0.61345  -0.58401
 Alpha  occ. eigenvalues --   -0.56855  -0.55270  -0.50183  -0.48849  -0.44524
 Alpha  occ. eigenvalues --   -0.43350  -0.42568  -0.41951  -0.36564  -0.35657
 Alpha  occ. eigenvalues --   -0.34896  -0.34413  -0.29481  -0.28180  -0.26847
 Alpha  occ. eigenvalues --   -0.22747  -0.18359  -0.16236
 Alpha virt. eigenvalues --    0.03330   0.04861   0.05074   0.05705   0.06073
 Alpha virt. eigenvalues --    0.07124   0.07903   0.08481   0.08872   0.09235
 Alpha virt. eigenvalues --    0.10527   0.10928   0.11654   0.11819   0.12104

 Mulliken charges:
               1
     1  Si   4.634452
     2  C   -5.921228
     3  P    9.746174
     4  O   -2.912954
     5  O   -3.411144
     6  H    0.929539
     7  H    1.575484
     8  O   -3.147556
     9  P    6.919419
    10  H   -1.771595
    11  H   -1.835757
    12  O   -2.859335
    13  H    0.801089
    14  O   -3.682201
    15  H    1.579745
    16  O   -3.200139
    17  H    1.303738
    18  H    1.252271
 Sum of Mulliken charges =  -0.00000

 Dipole moment (field-independent basis, Debye):
    X=             -0.6520    Y=              0.3599    Z=             -0.3370  Tot=              0.8175

 Test job not archived.
 1\1\GINC-SE333\SP\RHF\Aug-CC-pVDZ\C1H8O6P2Si1\OHZDE\08-Apr-2025\0\\#t
 hf aug-cc-pvdz iop(5/13=1,5/36=2,99/5=2) pseudo=read geom=check guess=
 (read,tcheck) scf=(maxcycle=1)\\title\\0,1\Si,0,0.670228,1.741465,0.02
 9341\C,0,-1.212295,1.511294,-0.197756\P,0,-1.755245,-0.183159,0.064856
 \O,0,-3.34551,-0.05409,0.105551\O,0,-1.492556,-0.98271,-1.274807\H,0,-
 3.784663,-0.88297,0.33556\H,0,-0.526347,-1.190672,-1.389813\O,0,-1.146
 846,-0.785141,1.280179\P,0,1.688508,-0.30184,-0.047252\H,0,0.950741,2.
 400205,1.320802\H,0,1.207332,2.545096,-1.08887\O,0,3.265346,-0.025043,

 Normal termination of Gaussian 16 at Tue Apr  8 23:55:56 2025.
