 Gaussian 16, Revision C.01,

 ----------------------------------------------------------------------
 #t hf aug-cc-pvdz symm=none int=(grid=ultrafine) guess=(read,tcheck) s
 table=opt
 ----------------------------------------------------------------------
 -----
 title
 -----
 Symbolic Z-matrix:
 Charge =  0 Multiplicity = 2

 SCF Done:  E(UHF) =  -484.739038626     A.U. after   14 cycles

 1\1\GINC-SE341\Stability\UHF\Aug-CC-pVDZ\B1Cl1H1\OHZDE\08-Apr-2025\0\\
 #t hf aug-cc-pvdz symm=none int=(grid=ultrafine) guess=(read,tcheck) s
 table=opt\\title\\0,2\B,0,0.043228,1.247835,0.\Cl,0,0.043228,-0.478786
 ,0.\H,0,-0.951006,1.900186,0.\\Version=ES64L-G16RevC.01\HF=-484.739038
 6\S2=0.754572\S2-1=0.\S2A=0.750014\RMSD=8.218e-09\Dipole=-0.174002,0.2
 157671,0.\Quadrupole=-0.7982579,0.1015448,0.6967131,-0.68067,0.,0.\PG=
 Unknown\\@
 The archive entry for this job was punched.

 Normal termination of Gaussian 16 at Tue Apr  8 23:22:52 2025.
 Gaussian 16:  ES64L-G16RevC.01  3-Jul-2019

 ----------------------------------------------------------------------
 #t hf aug-cc-pvdz iop(5/13=1,5/36=2,99/5=2) pseudo=read geom=check gue
 ss=(read,tcheck) scf=(maxcycle=1)
 ----------------------------------------------------------------------
 -----
 title
 -----
 Structure from the checkpoint file:  "BDE49_nonexpt_11_mol2.chk"
 Charge =  0 Multiplicity = 2

                         Standard orientation:
 ---------------------------------------------------------------------
 Center     Atomic      Atomic             Coordinates (Angstroms)
 Number     Number       Type             X           Y           Z
 ---------------------------------------------------------------------
      1          5           0        0.043228    1.247835    0.000000
      2         17           0        0.043228   -0.478786    0.000000
      3          1           0       -0.951006    1.900186    0.000000
 ---------------------------------------------------------------------

 SCF Done:  E(UHF) =  -485.074113645     A.U. after    2 cycles

 The electronic state is 2-A'.
 Alpha  occ. eigenvalues --  -99.90946 -10.48238  -9.68135  -9.67650  -9.67448
 Alpha  occ. eigenvalues --   -7.69303  -1.35800  -0.82317  -0.60445  -0.55373
 Alpha  occ. eigenvalues --   -0.54502  -0.34492
 Alpha virt. eigenvalues --    0.02846   0.03922   0.04136   0.05448   0.07592
 Alpha virt. eigenvalues --    0.12145   0.13182   0.16660   0.16743   0.18715
 Alpha virt. eigenvalues --    0.21639   0.22378   0.23447   0.26895   0.29009

  Beta  occ. eigenvalues --  -99.90874 -10.48155  -9.68050  -9.67488  -9.67331
  Beta  occ. eigenvalues --   -7.67339  -1.34895  -0.78102  -0.58100  -0.55466
  Beta  occ. eigenvalues --   -0.52123
  Beta virt. eigenvalues --    0.02878   0.03539   0.04060   0.04752   0.07802
  Beta virt. eigenvalues --    0.09585   0.13329   0.14480   0.16792   0.16804
  Beta virt. eigenvalues --    0.19552   0.22469   0.22971   0.24252   0.29054

 Mulliken charges and spin densities:
               1          2
     1  B    2.044179   0.917602
     2  Cl  -0.735864   0.039204
     3  H   -1.308315   0.043195
 Sum of Mulliken charges =  -0.00000   1.00000

 Dipole moment (field-independent basis, Debye):
    X=             -0.4742    Y=              0.4077    Z=              0.0000  Tot=              0.6254
                          Isotropic Fermi Contact Couplings
        Atom                 a.u.       MegaHertz       Gauss      10(-4) cm-1
     1  B(11)              0.22516     322.96542     115.24209     107.72967
     2  Cl(35)             0.10590      46.43218      16.56816      15.48811
     3  H(1)               0.02043      91.30516      32.57995      30.45612
 --------------------------------------------------------
       Center         ----  Spin Dipole Couplings  ----
                      3XX-RR        3YY-RR        3ZZ-RR
 --------------------------------------------------------
     1   Atom        0.293030     -0.106558     -0.186472

 Normal termination of Gaussian 16 at Tue Apr  8 23:22:54 2025.
