 Gaussian 16, Revision C.01,

 ----------------------------------------------------------------------
 #t hf aug-cc-pvdz symm=none int=(grid=ultrafine) guess=(read,tcheck) s
 table=(opt,rrhf)
 ----------------------------------------------------------------------
 -----
 title
 -----
 Symbolic Z-matrix:
 Charge =  0 Multiplicity = 1

 SCF Done:  E(RHF) =  -967.943569696     A.U. after   17 cycles
 Normal termination of Gaussian 16 at Tue Apr  8 23:21:17 2025.
 Gaussian 16:  ES64L-G16RevC.01  3-Jul-2019

 ----------------------------------------------------------------------
 #t hf aug-cc-pvdz iop(5/13=1,5/36=2,99/5=2) pseudo=read geom=check gue
 ss=(read,tcheck) scf=(maxcycle=1)
 ----------------------------------------------------------------------
 -----
 title
 -----
 Structure from the checkpoint file:  "BDE49_nonexpt_1089_mol1.chk"
 Charge =  0 Multiplicity = 1

                         Standard orientation:
 ---------------------------------------------------------------------
 Center     Atomic      Atomic             Coordinates (Angstroms)
 Number     Number       Type             X           Y           Z
 ---------------------------------------------------------------------
      1         17           0        2.969044   -1.167711    0.000013
      2          8           0        2.435856    0.476010   -0.000034
      3          6           0        1.070568    0.680862    0.000012
      4          6           0        0.099764   -0.308195    0.000090
      5          6           0       -1.232770    0.095280    0.000130
      6          6           0       -1.621780    1.425271    0.000088
      7          6           0        0.719119    2.036336   -0.000028
      8          1           0        1.503966    2.781998   -0.000089
      9          6           0       -0.621724    2.396299    0.000010
     10          1           0       -0.889417    3.445816   -0.000021
     11          1           0       -2.671831    1.677887    0.000120
     12          7           0       -2.276711   -0.958357    0.000216
     13          8           0       -1.904460   -2.123268   -0.000213
     14          8           0       -3.443929   -0.595462   -0.000214
     15          1           0        0.341709   -1.359482    0.000123
 ---------------------------------------------------------------------

 SCF Done:  E(RHF) =  -970.414753624     A.U. after    2 cycles

 The electronic state is 1-A.
 Alpha  occ. eigenvalues --  -99.96813 -21.15401 -21.10129 -21.10014 -16.00704
 Alpha  occ. eigenvalues --  -11.56728 -11.50782 -11.48295 -11.46119 -11.45742
 Alpha  occ. eigenvalues --  -11.41708 -10.53516  -9.73476  -9.72738  -9.72395
 Alpha  occ. eigenvalues --   -2.00541  -1.83706  -1.69775  -1.37822  -1.28655
 Alpha  occ. eigenvalues --   -1.18185  -1.11761  -1.01592  -0.90401  -0.84170
 Alpha  occ. eigenvalues --   -0.76256  -0.70761  -0.68452  -0.68363  -0.65933
 Alpha  occ. eigenvalues --   -0.64362  -0.63150  -0.61153  -0.56121  -0.55392
 Alpha  occ. eigenvalues --   -0.53518  -0.50118  -0.46902  -0.45631  -0.37591
 Alpha  occ. eigenvalues --   -0.36318  -0.32560  -0.31807  -0.31068
 Alpha virt. eigenvalues --    0.01880   0.02904   0.05150   0.05420   0.06327
 Alpha virt. eigenvalues --    0.06963   0.08285   0.09804   0.10334   0.11254
 Alpha virt. eigenvalues --    0.12079   0.12220   0.12739   0.12943   0.13317

 Mulliken charges:
               1
     1  Cl   0.484761
     2  O   -3.442797
     3  C    5.043341
     4  C   -3.217473
     5  C    3.553773
     6  C   -2.800381
     7  C   -4.763444
     8  H    1.775098
     9  C    0.794315
    10  H    1.489542
    11  H    1.790807
    12  N    3.468149
    13  O   -2.965046
    14  O   -3.098170
    15  H    1.887527
 Sum of Mulliken charges =  -0.00000

 Dipole moment (field-independent basis, Debye):
    X=              1.0747    Y=              3.8830    Z=             -0.0003  Tot=              4.0290

 Test job not archived.
 1\1\GINC-SE247\SP\RHF\Aug-CC-pVDZ\C6H4Cl1N1O3\OHZDE\08-Apr-2025\0\\#t
 hf aug-cc-pvdz iop(5/13=1,5/36=2,99/5=2) pseudo=read geom=check guess=
 (read,tcheck) scf=(maxcycle=1)\\title\\0,1\Cl,0,2.969044,-1.167711,0.0
 00013\O,0,2.435856,0.47601,-0.000034\C,0,1.070568,0.680862,0.000012\C,
 0,0.099764,-0.308195,0.00009\C,0,-1.23277,0.09528,0.00013\C,0,-1.62178
 ,1.425271,0.000088\C,0,0.719119,2.036336,-0.000028\H,0,1.503966,2.7819
 98,-0.000089\C,0,-0.621724,2.396299,0.00001\H,0,-0.889417,3.445816,-0.
 000021\H,0,-2.671831,1.677887,0.00012\N,0,-2.276711,-0.958357,0.000216

 Normal termination of Gaussian 16 at Tue Apr  8 23:21:25 2025.
