 Gaussian 16, Revision C.01,

 ----------------------------------------------------------------------
 #t hf aug-cc-pvdz symm=none int=(grid=ultrafine) guess=(read,tcheck) s
 table=(opt,rrhf)
 ----------------------------------------------------------------------
 -----
 title
 -----
 Symbolic Z-matrix:
 Charge =  0 Multiplicity = 1

 SCF Done:  E(RHF) =  -851.799566712     A.U. after   15 cycles
 Normal termination of Gaussian 16 at Tue Apr  8 23:30:44 2025.
 Gaussian 16:  ES64L-G16RevC.01  3-Jul-2019

 ----------------------------------------------------------------------
 #t hf aug-cc-pvdz iop(5/13=1,5/36=2,99/5=2) pseudo=read geom=check gue
 ss=(read,tcheck) scf=(maxcycle=1)
 ----------------------------------------------------------------------
 -----
 title
 -----
 Structure from the checkpoint file:  "BDE49_nonexpt_1323_mol1.chk"
 Charge =  0 Multiplicity = 1

                         Standard orientation:
 ---------------------------------------------------------------------
 Center     Atomic      Atomic             Coordinates (Angstroms)
 Number     Number       Type             X           Y           Z
 ---------------------------------------------------------------------
      1          6           0       -1.743268    1.862419    0.032470
      2          6           0       -0.387053    1.554292    0.014981
      3          6           0       -2.705370    0.857211    0.027694
      4          6           0       -2.330390   -0.494600    0.002616
      5          6           0       -0.962089   -0.806104   -0.015180
      6          6           0       -0.005104    0.207708   -0.011387
      7          1           0       -0.633886   -1.839483   -0.034185
      8          1           0       -3.759007    1.117605    0.047117
      9          1           0       -2.060405    2.899212    0.049521
     10          1           0        0.358790    2.338423    0.017078
     11         15           0        1.720514   -0.282938   -0.018534
     12          8           0        1.955544   -1.733707    0.010354
     13          8           0        2.445462    0.504434    1.196360
     14          7           0       -3.286153   -1.505307    0.055530
     15          1           0       -4.205230   -1.257013   -0.278748
     16          1           0       -2.984492   -2.407243   -0.281885
     17          1           0        2.530415   -0.064517    1.970664
     18          8           0        2.288432    0.542624   -1.269086
     19          1           0        3.233311    0.401874   -1.408449
 ---------------------------------------------------------------------

 SCF Done:  E(RHF) =  -854.290378089     A.U. after    2 cycles

 The electronic state is 1-A.
 Alpha  occ. eigenvalues -- -105.29914 -21.11075 -21.10732 -21.01404 -15.76522
 Alpha  occ. eigenvalues --  -11.52928 -11.46378 -11.44315 -11.42267 -11.41834
 Alpha  occ. eigenvalues --  -11.37285  -2.92220  -1.97279  -1.88322  -1.80748
 Alpha  occ. eigenvalues --   -1.55889  -1.41177  -1.39499  -1.27380  -1.24599
 Alpha  occ. eigenvalues --   -1.09070  -1.05948  -0.87372  -0.85033  -0.72295
 Alpha  occ. eigenvalues --   -0.69342  -0.68138  -0.64125  -0.60453  -0.59183
 Alpha  occ. eigenvalues --   -0.55919  -0.54343  -0.53867  -0.50274  -0.46821
 Alpha  occ. eigenvalues --   -0.44859  -0.43869  -0.40616  -0.35177  -0.34257
 Alpha  occ. eigenvalues --   -0.33198  -0.29035  -0.28103  -0.24697  -0.15104
 Alpha virt. eigenvalues --    0.03196   0.04847   0.04998   0.05576   0.06156
 Alpha virt. eigenvalues --    0.06931   0.07530   0.09031   0.09591   0.10154
 Alpha virt. eigenvalues --    0.11667   0.11935   0.12626   0.13048   0.13228

 Mulliken charges:
               1
     1  C    0.416579
     2  C   -1.634289
     3  C   -2.800334
     4  C    2.323489
     5  C   -3.854735
     6  C   -1.017966
     7  H    1.946148
     8  H    1.692080
     9  H    1.471551
    10  H    1.669232
    11  P    9.327171
    12  O   -2.886507
    13  O   -2.711685
    14  N   -4.018698
    15  H    0.641314
    16  H    0.650210
    17  H    0.710392
    18  O   -2.865842
    19  H    0.941891
 Sum of Mulliken charges =  -0.00000

 Dipole moment (field-independent basis, Debye):
    X=             -2.2311    Y=              2.2174    Z=             -0.5260  Tot=              3.1893

 Test job not archived.
 1\1\GINC-SE398\SP\RHF\Aug-CC-pVDZ\C6H8N1O3P1\OHZDE\08-Apr-2025\0\\#t h
 f aug-cc-pvdz iop(5/13=1,5/36=2,99/5=2) pseudo=read geom=check guess=(
 read,tcheck) scf=(maxcycle=1)\\title\\0,1\C,0,-1.743268,1.862419,0.032
 47\C,0,-0.387053,1.554292,0.014981\C,0,-2.70537,0.857211,0.027694\C,0,
 -2.33039,-0.4946,0.002616\C,0,-0.962089,-0.806104,-0.01518\C,0,-0.0051
 04,0.207708,-0.011387\H,0,-0.633886,-1.839483,-0.034185\H,0,-3.759007,
 1.117605,0.047117\H,0,-2.060405,2.899212,0.049521\H,0,0.35879,2.338423
 ,0.017078\P,0,1.720514,-0.282938,-0.018534\O,0,1.955544,-1.733707,0.01

 Normal termination of Gaussian 16 at Tue Apr  8 23:30:55 2025.
