 Gaussian 16, Revision C.01,

 ----------------------------------------------------------------------
 #t hf aug-cc-pvdz symm=none int=(grid=ultrafine) guess=(read,tcheck) s
 table=(opt,rrhf)
 ----------------------------------------------------------------------
 -----
 title
 -----
 Symbolic Z-matrix:
 Charge =  0 Multiplicity = 1

 SCF Done:  E(RHF) =  -955.563616794     A.U. after   14 cycles
 Normal termination of Gaussian 16 at Wed Apr  9 00:16:45 2025.
 Gaussian 16:  ES64L-G16RevC.01  3-Jul-2019

 ----------------------------------------------------------------------
 #t hf aug-cc-pvdz iop(5/13=1,5/36=2,99/5=2) pseudo=read geom=check gue
 ss=(read,tcheck) scf=(maxcycle=1)
 ----------------------------------------------------------------------
 -----
 title
 -----
 Structure from the checkpoint file:  "BDE49_nonexpt_2520_mol1.chk"
 Charge =  0 Multiplicity = 1

                         Standard orientation:
 ---------------------------------------------------------------------
 Center     Atomic      Atomic             Coordinates (Angstroms)
 Number     Number       Type             X           Y           Z
 ---------------------------------------------------------------------
      1         16           0       -0.208031   -0.514833    0.166020
      2          6           0        1.205613    0.453299   -0.510103
      3         14           0       -2.119166    0.590353   -0.285064
      4          8           0       -0.060908   -0.568427    1.619928
      5          8           0       -0.287379   -1.753361   -0.607975
      6          6           0        1.320519    1.803036    0.194055
      7          1           0        0.424816    2.417151    0.069408
      8          1           0        2.161977    2.363145   -0.222760
      9          1           0        1.492008    1.663135    1.262841
     10          6           0        2.460697   -0.412749   -0.377467
     11          1           0        0.947324    0.578779   -1.566532
     12          1           0        3.303834    0.101683   -0.845774
     13          1           0        2.326056   -1.378414   -0.865396
     14          1           0        2.702222   -0.583641    0.673695
     15          1           0       -2.173048    1.855662    0.472850
     16          1           0       -3.146073   -0.366082    0.162397
     17          1           0       -2.176967    0.833757   -1.740677
 ---------------------------------------------------------------------

 SCF Done:  E(RHF) =  -957.228531206     A.U. after    2 cycles

 The electronic state is 1-A.
 Alpha  occ. eigenvalues --  -76.26874 -75.85694 -21.03119 -21.03055 -13.47372
 Alpha  occ. eigenvalues --  -13.35338 -13.30283 -11.45025 -11.40621 -11.38116
 Alpha  occ. eigenvalues --   -8.20723  -5.60214  -2.22833  -2.22446  -2.22385
 Alpha  occ. eigenvalues --   -1.80472  -1.63216  -1.25797  -1.02990  -0.99552
 Alpha  occ. eigenvalues --   -0.85388  -0.78503  -0.66688  -0.63706  -0.59830
 Alpha  occ. eigenvalues --   -0.56309  -0.53845  -0.53242  -0.51627  -0.50248
 Alpha  occ. eigenvalues --   -0.49255  -0.48315  -0.42773  -0.38429  -0.35214
 Alpha  occ. eigenvalues --   -0.33894  -0.30107
 Alpha virt. eigenvalues --    0.02947   0.03601   0.04977   0.05199   0.06199
 Alpha virt. eigenvalues --    0.06358   0.06628   0.07339   0.07801   0.08151
 Alpha virt. eigenvalues --    0.09194   0.09551   0.10450   0.12051   0.12236

 Mulliken charges:
               1
     1  S    4.919224
     2  C   -3.067743
     3  Si   5.680219
     4  O   -2.467998
     5  O   -2.480579
     6  C   -3.602446
     7  H    1.336297
     8  H    1.194723
     9  H    1.461104
    10  C   -3.712264
    11  H    1.818591
    12  H    1.221119
    13  H    1.320851
    14  H    1.362306
    15  H   -1.611842
    16  H   -1.727720
    17  H   -1.643842
 Sum of Mulliken charges =  -0.00000

 Dipole moment (field-independent basis, Debye):
    X=              0.3879    Y=              1.7677    Z=             -0.8637  Tot=              2.0053

 Test job not archived.
 1\1\GINC-SE143\SP\RHF\Aug-CC-pVDZ\C3H10O2S1Si1\OHZDE\09-Apr-2025\0\\#t
  hf aug-cc-pvdz iop(5/13=1,5/36=2,99/5=2) pseudo=read geom=check guess
 =(read,tcheck) scf=(maxcycle=1)\\title\\0,1\S,0,-0.208031,-0.514833,0.
 16602\C,0,1.205613,0.453299,-0.510103\Si,0,-2.119166,0.590353,-0.28506
 4\O,0,-0.060908,-0.568427,1.619928\O,0,-0.287379,-1.753361,-0.607975\C
 ,0,1.320519,1.803036,0.194055\H,0,0.424816,2.417151,0.069408\H,0,2.161
 977,2.363145,-0.22276\H,0,1.492008,1.663135,1.262841\C,0,2.460697,-0.4
 12749,-0.377467\H,0,0.947324,0.578779,-1.566532\H,0,3.303834,0.101683,

 Normal termination of Gaussian 16 at Wed Apr  9 00:16:53 2025.
