 Gaussian 16, Revision C.01,

 ----------------------------------------------------------------------
 #t hf aug-cc-pvdz symm=none int=(grid=ultrafine) guess=(read,tcheck) s
 table=(opt,rrhf)
 ----------------------------------------------------------------------
 -----
 title
 -----
 Symbolic Z-matrix:
 Charge =  0 Multiplicity = 1

 SCF Done:  E(RHF) =  -192.774650490     A.U. after   14 cycles
 Normal termination of Gaussian 16 at Tue Apr  8 23:03:45 2025.
 Gaussian 16:  ES64L-G16RevC.01  3-Jul-2019

 ----------------------------------------------------------------------
 #t hf aug-cc-pvdz iop(5/13=1,5/36=2,99/5=2) pseudo=read geom=check gue
 ss=(read,tcheck) scf=(maxcycle=1)
 ----------------------------------------------------------------------
 -----
 title
 -----
 Structure from the checkpoint file:  "BDE49_expt_28_mol1.chk"
 Charge =  0 Multiplicity = 1

                         Standard orientation:
 ---------------------------------------------------------------------
 Center     Atomic      Atomic             Coordinates (Angstroms)
 Number     Number       Type             X           Y           Z
 ---------------------------------------------------------------------
      1          6           0       -0.066060   -0.229444   -0.000002
      2          6           0       -1.466119   -0.478307   -0.000004
      3          6           0       -2.413124    0.466707    0.000005
      4          6           0        1.129144   -0.060998   -0.000001
      5          6           0        2.568612    0.159156    0.000001
      6          1           0        2.880396    0.725023   -0.883307
      7          1           0        3.113469   -0.789337   -0.000250
      8          1           0        2.880458    0.724590    0.883564
      9          1           0       -1.762565   -1.525171   -0.000015
     10          1           0       -2.163155    1.521102    0.000016
     11          1           0       -3.463322    0.201111    0.000003
 ---------------------------------------------------------------------

 SCF Done:  E(RHF) =  -193.714983551     A.U. after    2 cycles

 The electronic state is 1-A.
 Alpha  occ. eigenvalues --  -11.44769 -11.43878 -11.40417 -11.38706 -11.38465
 Alpha  occ. eigenvalues --   -1.22216  -1.13152  -0.98782  -0.84728  -0.68469
 Alpha  occ. eigenvalues --   -0.61777  -0.58540  -0.58397  -0.56579  -0.51205
 Alpha  occ. eigenvalues --   -0.43647  -0.35133  -0.30477
 Alpha virt. eigenvalues --    0.02949   0.04942   0.06041   0.06208   0.06650
 Alpha virt. eigenvalues --    0.06770   0.09678   0.09765   0.11037   0.12849
 Alpha virt. eigenvalues --    0.13236   0.13911   0.14510   0.14919   0.15678

 Mulliken charges:
               1
     1  C    2.247616
     2  C   -1.861259
     3  C   -4.075664
     4  C    2.286938
     5  C   -4.948798
     6  H    0.869993
     7  H    0.854417
     8  H    0.870016
     9  H    1.102062
    10  H    1.318731
    11  H    1.335948
 Sum of Mulliken charges =   0.00000

 Dipole moment (field-independent basis, Debye):
    X=              0.5580    Y=              0.0962    Z=              0.0000  Tot=              0.5662

 Test job not archived.
 1\1\GINC-SE458\SP\RHF\Aug-CC-pVDZ\C5H6\OHZDE\08-Apr-2025\0\\#t hf aug-
 cc-pvdz iop(5/13=1,5/36=2,99/5=2) pseudo=read geom=check guess=(read,t
 check) scf=(maxcycle=1)\\title\\0,1\C,0,-0.06606,-0.229444,-0.000002\C
 ,0,-1.466119,-0.478307,-0.000004\C,0,-2.413124,0.466707,0.000005\C,0,1
 .129144,-0.060998,-0.000001\C,0,2.568612,0.159156,0.000001\H,0,2.88039
 6,0.725023,-0.883307\H,0,3.113469,-0.789337,-0.00025\H,0,2.880458,0.72
 459,0.883564\H,0,-1.762565,-1.525171,-0.000015\H,0,-2.163155,1.521102,
 0.000016\H,0,-3.463322,0.201111,0.000003\\Version=ES64L-G16RevC.01\Sta

 Normal termination of Gaussian 16 at Tue Apr  8 23:03:48 2025.
