 Gaussian 16, Revision C.01,

 ----------------------------------------------------------------------
 #t hf aug-cc-pvdz symm=none int=(grid=ultrafine) guess=(read,tcheck) s
 table=(opt,rrhf)
 ----------------------------------------------------------------------
 -----
 title
 -----
 Symbolic Z-matrix:
 Charge =  0 Multiplicity = 1

 SCF Done:  E(RHF) =  -605.419649698     A.U. after   17 cycles
 Normal termination of Gaussian 16 at Wed Apr  9 00:54:25 2025.
 Gaussian 16:  ES64L-G16RevC.01  3-Jul-2019

 ----------------------------------------------------------------------
 #t hf aug-cc-pvdz iop(5/13=1,5/36=2,99/5=2) pseudo=read geom=check gue
 ss=(read,tcheck) scf=(maxcycle=1)
 ----------------------------------------------------------------------
 -----
 title
 -----
 Structure from the checkpoint file:  "BDE49_nonexpt_986_mol1.chk"
 Charge =  0 Multiplicity = 1

                         Standard orientation:
 ---------------------------------------------------------------------
 Center     Atomic      Atomic             Coordinates (Angstroms)
 Number     Number       Type             X           Y           Z
 ---------------------------------------------------------------------
      1         16           0        0.203385   -1.048612   -0.062003
      2          7           0        1.682879    0.074065   -0.250988
      3          8           0        1.548696    1.192846    0.092803
      4          6           0       -1.034718    0.085427    0.631434
      5          6           0       -2.051989    0.591524   -0.391468
      6          1           0       -0.455214    0.917718    1.047599
      7          1           0       -1.513897   -0.438220    1.460742
      8          1           0       -1.556018    1.135610   -1.197644
      9          1           0       -2.761401    1.270450    0.091352
     10          1           0       -2.617117   -0.230694   -0.835298
 ---------------------------------------------------------------------

 SCF Done:  E(RHF) =  -606.597963800     A.U. after    2 cycles

 The electronic state is 1-A.
 Alpha  occ. eigenvalues --  -75.71104 -21.15888 -15.91404 -13.12924 -13.10729
 Alpha  occ. eigenvalues --  -13.04360 -11.43178 -11.37705  -8.05089  -1.90040
 Alpha  occ. eigenvalues --   -1.25032  -1.10789  -0.95128  -0.84054  -0.67380
 Alpha  occ. eigenvalues --   -0.61287  -0.59400  -0.57038  -0.56061  -0.52636
 Alpha  occ. eigenvalues --   -0.50181  -0.39135  -0.25968  -0.25533
 Alpha virt. eigenvalues --    0.03226   0.04957   0.05678   0.06560   0.07255
 Alpha virt. eigenvalues --    0.07823   0.09713   0.11485   0.12465   0.12839
 Alpha virt. eigenvalues --    0.13730   0.15768   0.15787   0.16640   0.17304

 Mulliken charges:
               1
     1  S    1.406913
     2  N    1.072073
     3  O   -1.909468
     4  C   -4.050076
     5  C   -3.334991
     6  H    1.641437
     7  H    1.412019
     8  H    1.327147
     9  H    1.202604
    10  H    1.232343
 Sum of Mulliken charges =   0.00000

 Dipole moment (field-independent basis, Debye):
    X=             -1.7233    Y=             -0.4325    Z=              0.4935  Tot=              1.8441

 Test job not archived.
 1\1\GINC-SE412\SP\RHF\Aug-CC-pVDZ\C2H5N1O1S1\OHZDE\09-Apr-2025\0\\#t h
 f aug-cc-pvdz iop(5/13=1,5/36=2,99/5=2) pseudo=read geom=check guess=(
 read,tcheck) scf=(maxcycle=1)\\title\\0,1\S,0,0.203385,-1.048612,-0.06
 2003\N,0,1.682879,0.074065,-0.250988\O,0,1.548696,1.192846,0.092803\C,
 0,-1.034718,0.085427,0.631434\C,0,-2.051989,0.591523,-0.391468\H,0,-0.
 455214,0.917718,1.047599\H,0,-1.513897,-0.43822,1.460742\H,0,-1.556018
 ,1.13561,-1.197644\H,0,-2.761401,1.270449,0.091352\H,0,-2.617117,-0.23
 0695,-0.835298\\Version=ES64L-G16RevC.01\State=1-A\HF=-606.5979638\RMS

 Normal termination of Gaussian 16 at Wed Apr  9 00:54:28 2025.
