 Gaussian 16, Revision C.01,

 ----------------------------------------------------------------------
 #t hf aug-cc-pvdz symm=none int=(grid=ultrafine) guess=(read,tcheck) s
 table=opt
 ----------------------------------------------------------------------
 -----
 title
 -----
 Symbolic Z-matrix:
 Charge =  0 Multiplicity = 2

 SCF Done:  E(UHF) =  -485.835584621     A.U. after   15 cycles
 Normal termination of Gaussian 16 at Tue Apr  8 23:46:14 2025.
 Gaussian 16:  ES64L-G16RevC.01  3-Jul-2019

 ----------------------------------------------------------------------
 #t hf aug-cc-pvdz iop(5/13=1,5/36=2,99/5=2) pseudo=read geom=check gue
 ss=(read,tcheck) scf=(maxcycle=1)
 ----------------------------------------------------------------------
 -----
 title
 -----
 Structure from the checkpoint file:  "BDE49_nonexpt_1743_mol2.chk"
 Charge =  0 Multiplicity = 2

                         Standard orientation:
 ---------------------------------------------------------------------
 Center     Atomic      Atomic             Coordinates (Angstroms)
 Number     Number       Type             X           Y           Z
 ---------------------------------------------------------------------
      1         14           0       -2.003699   -0.517992    0.241428
      2          6           0       -0.251444   -0.887459   -0.381579
      3          6           0        0.846677    0.039918    0.180919
      4          1           0       -0.255767   -0.835961   -1.477351
      5          1           0       -0.017612   -1.929055   -0.130726
      6          6           0       -2.606893    1.202726   -0.255127
      7          1           0       -1.965323    1.982486    0.170996
      8          1           0       -3.624506    1.375358    0.104269
      9          1           0       -2.608439    1.322616   -1.341840
     10          6           0        2.254031   -0.308318   -0.325267
     11          1           0        0.839741   -0.005014    1.276764
     12          1           0        0.623203    1.081104   -0.081488
     13          6           0        3.341198    0.614090    0.233723
     14          1           0        2.261600   -0.264203   -1.420939
     15          1           0        2.481771   -1.347788   -0.060764
     16          1           0        3.157565    1.656681   -0.044311
     17          1           0        4.329975    0.339713   -0.144006
     18          1           0        3.378161    0.565417    1.326479
     19          1           0       -2.049997   -0.655202    1.726910
 ---------------------------------------------------------------------

 SCF Done:  E(UHF) =  -487.014730247     A.U. after    2 cycles

 The electronic state is 2-A.
 Alpha  occ. eigenvalues --  -76.20525 -11.41708 -11.39147 -11.36200 -11.34860
 Alpha  occ. eigenvalues --  -11.33997  -5.54115  -2.18312  -2.16779  -2.15744
 Alpha  occ. eigenvalues --   -1.23553  -1.07366  -1.03060  -0.91419  -0.82753
 Alpha  occ. eigenvalues --   -0.69188  -0.64791  -0.58333  -0.57638  -0.55713
 Alpha  occ. eigenvalues --   -0.55458  -0.52621  -0.49676  -0.47719  -0.45491
 Alpha  occ. eigenvalues --   -0.45176  -0.42594  -0.37095  -0.24837
 Alpha virt. eigenvalues --    0.03731   0.04769   0.05271   0.05556   0.05723
 Alpha virt. eigenvalues --    0.05971   0.06394   0.06417   0.07200   0.07725
 Alpha virt. eigenvalues --    0.08151   0.08876   0.09342   0.10002   0.10275

  Beta  occ. eigenvalues --  -76.19993 -11.41650 -11.39111 -11.36173 -11.34810
  Beta  occ. eigenvalues --  -11.33949  -5.53283  -2.17692  -2.16049  -2.12410
  Beta  occ. eigenvalues --   -1.23342  -1.06978  -1.02566  -0.91147  -0.82618
  Beta  occ. eigenvalues --   -0.65519  -0.64609  -0.58074  -0.57539  -0.55345
  Beta  occ. eigenvalues --   -0.54872  -0.52373  -0.49615  -0.47239  -0.45466
  Beta  occ. eigenvalues --   -0.44954  -0.41676  -0.36213
  Beta virt. eigenvalues --    0.03430   0.04561   0.05163   0.05485   0.05724
  Beta virt. eigenvalues --    0.05946   0.06062   0.06419   0.07144   0.07703
  Beta virt. eigenvalues --    0.08001   0.08456   0.09022   0.09997   0.10317

 Mulliken charges and spin densities:
               1          2
     1  Si   3.989118   1.166633
     2  C   -4.001132  -0.054180
     3  C   -2.591814   0.024223
     4  H    1.447833  -0.038236
     5  H    1.429347   0.009578
     6  C   -5.160392  -0.038564
     7  H    1.313916   0.005676
     8  H    1.336863  -0.037789
     9  H    1.270222  -0.017977
    10  C   -3.020810  -0.005698
    11  H    1.650027  -0.021348
    12  H    1.727494  -0.007372
    13  C   -4.095951   0.004153
    14  H    1.398948   0.000667
    15  H    1.430928  -0.001246
    16  H    1.319052   0.001673
    17  H    1.107537  -0.002321
    18  H    1.283717   0.000787
    19  H   -1.834903   0.011341
 Sum of Mulliken charges =   0.00000   1.00000

 Dipole moment (field-independent basis, Debye):
    X=              0.6295    Y=              0.3820    Z=             -0.6654  Tot=              0.9925
                          Isotropic Fermi Contact Couplings
        Atom                 a.u.       MegaHertz       Gauss      10(-4) cm-1
     1  Si(29)             0.42951    -381.71428    -136.20515    -127.32618
     2  C(13)              0.01724      19.38506       6.91707       6.46616
     3  C(13)              0.01649      18.53303       6.61305       6.18196
     4  H(1)               0.00014       0.60957       0.21751       0.20333
     5  H(1)               0.00046       2.06821       0.73799       0.68988
     6  C(13)              0.01811      20.35751       7.26406       6.79053
     7  H(1)               0.00753      33.63775      12.00279      11.22035
     8  H(1)               0.00039       1.74647       0.62318       0.58256

 Normal termination of Gaussian 16 at Tue Apr  8 23:46:21 2025.
