 Gaussian 16, Revision C.01,

 ----------------------------------------------------------------------
 #t hf aug-cc-pvdz symm=none int=(grid=ultrafine) guess=(read,tcheck) s
 table=(opt,rrhf)
 ----------------------------------------------------------------------
 -----
 title
 -----
 Symbolic Z-matrix:
 Charge =  0 Multiplicity = 1

 SCF Done:  E(RHF) =  -750.398297366     A.U. after   15 cycles
 Normal termination of Gaussian 16 at Tue Apr  8 23:18:42 2025.
 Gaussian 16:  ES64L-G16RevC.01  3-Jul-2019

 ----------------------------------------------------------------------
 #t hf aug-cc-pvdz iop(5/13=1,5/36=2,99/5=2) pseudo=read geom=check gue
 ss=(read,tcheck) scf=(maxcycle=1)
 ----------------------------------------------------------------------
 -----
 title
 -----
 Structure from the checkpoint file:  "BDE49_expt_813_mol1.chk"
 Charge =  0 Multiplicity = 1

                         Standard orientation:
 ---------------------------------------------------------------------
 Center     Atomic      Atomic             Coordinates (Angstroms)
 Number     Number       Type             X           Y           Z
 ---------------------------------------------------------------------
      1          6           0        3.922723   -1.043201   -0.177817
      2          6           0        3.831634    0.036016    0.697624
      3          6           0        2.659854    0.788779    0.755531
      4          6           0        2.838857   -1.367801   -0.992604
      5          6           0        1.670514   -0.613161   -0.931482
      6          6           0        1.558401    0.481771   -0.058421
      7          1           0        4.832728   -1.631297   -0.223795
      8          1           0        4.670377    0.290170    1.336525
      9          1           0        2.602414    1.624531    1.445826
     10          1           0        2.904444   -2.209383   -1.673582
     11          1           0        0.833888   -0.885010   -1.567655
     12          6           0       -3.831613    0.035995   -0.697665
     13          1           0       -4.670340    0.290124   -1.336597
     14          6           0       -2.659831    0.788754   -0.755571
     15          6           0       -3.922726   -1.043187    0.177817
     16          1           0       -2.602373    1.624480   -1.445897
     17          1           0       -4.832733   -1.631281    0.223795
     18          6           0       -1.558400    0.481778    0.058421
     19          6           0       -2.838882   -1.367755    0.992646
     20          6           0       -1.670537   -0.613119    0.931524
     21          1           0       -2.904488   -2.209310    1.673656
     22          1           0       -0.833928   -0.884943    1.567730
     23         14           0        0.000003    1.530465   -0.000001
     24          1           0       -0.103584    2.403101   -1.196805
     25          1           0        0.103593    2.403105    1.196799
 ---------------------------------------------------------------------

 SCF Done:  E(RHF) =  -752.782233451     A.U. after    2 cycles

 The electronic state is 1-A.
 Alpha  occ. eigenvalues --  -76.20830 -11.51587 -11.50914 -11.43235 -11.42956
 Alpha  occ. eigenvalues --  -11.42444 -11.42419 -11.40663 -11.40651 -11.40439
 Alpha  occ. eigenvalues --  -11.40188 -11.35963 -11.35898  -5.54558  -2.20306
 Alpha  occ. eigenvalues --   -2.18598  -2.18051  -1.34076  -1.32750  -1.09312
 Alpha  occ. eigenvalues --   -1.08984  -1.08866  -1.08354  -0.87164  -0.86063
 Alpha  occ. eigenvalues --   -0.85963  -0.84535  -0.76120  -0.70993  -0.68735
 Alpha  occ. eigenvalues --   -0.63843  -0.62726  -0.58301  -0.58277  -0.56645
 Alpha  occ. eigenvalues --   -0.56623  -0.53713  -0.52242  -0.50496  -0.50000
 Alpha  occ. eigenvalues --   -0.46572  -0.44551  -0.44343  -0.40501  -0.37660
 Alpha  occ. eigenvalues --   -0.33927  -0.33040  -0.33006  -0.32487
 Alpha virt. eigenvalues --    0.03206   0.04567   0.05177   0.05239   0.05519
 Alpha virt. eigenvalues --    0.05525   0.06106   0.06237   0.06801   0.07188
 Alpha virt. eigenvalues --    0.08096   0.08451   0.09493   0.10101   0.10293

 Mulliken charges:
               1
     1  C   -2.219131
     2  C   -0.979610
     3  C   -2.845557
     4  C   -1.258853
     5  C   -1.787590
     6  C   -0.248368
     7  H    1.540255
     8  H    1.580360
     9  H    1.858830
    10  H    1.557004
    11  H    1.901760
    12  C   -0.979595
    13  H    1.580365
    14  C   -2.845544
    15  C   -2.219148
    16  H    1.858826
    17  H    1.540255
    18  C   -0.248343
    19  C   -1.258798
    20  C   -1.787665
    21  H    1.557004
    22  H    1.901743
    23  Si   6.003577
    24  H   -2.100906
    25  H   -2.100871
 Sum of Mulliken charges =  -0.00000

 Dipole moment (field-independent basis, Debye):
    X=             -0.0000    Y=             -1.4510    Z=              0.0000  Tot=              1.4510

 Test job not archived.
 1\1\GINC-SE336\SP\RHF\Aug-CC-pVDZ\C12H12Si1\OHZDE\08-Apr-2025\0\\#t hf
  aug-cc-pvdz iop(5/13=1,5/36=2,99/5=2) pseudo=read geom=check guess=(r
 ead,tcheck) scf=(maxcycle=1)\\title\\0,1\C,0,3.922723,-1.043201,-0.177
 817\C,0,3.831634,0.036016,0.697624\C,0,2.659854,0.788779,0.755531\C,0,
 2.838857,-1.367801,-0.992604\C,0,1.670514,-0.613161,-0.931482\C,0,1.55
 8401,0.481771,-0.058421\H,0,4.832728,-1.631297,-0.223795\H,0,4.670377,
 0.29017,1.336525\H,0,2.602414,1.624531,1.445826\H,0,2.904444,-2.209383
 ,-1.673582\H,0,0.833888,-0.88501,-1.567655\C,0,-3.831613,0.035995,-0.6

 Normal termination of Gaussian 16 at Tue Apr  8 23:19:04 2025.
