 Gaussian 16, Revision C.01,

 ----------------------------------------------------------------------
 #t hf aug-cc-pvdz symm=none int=(grid=ultrafine) guess=(read,tcheck) s
 table=(opt,rrhf)
 ----------------------------------------------------------------------
 -----
 title
 -----
 Symbolic Z-matrix:
 Charge =  0 Multiplicity = 1

 SCF Done:  E(RHF) =  -978.912259743     A.U. after   11 cycles

 1\1\GINC-SE367\Stability\RHF\Aug-CC-pVDZ\H6S1Si2\OHZDE\09-Apr-2025\0\\
 #t hf aug-cc-pvdz symm=none int=(grid=ultrafine) guess=(read,tcheck) s
 table=(opt,rrhf)\\title\\0,1\Si,0,1.879524,-0.36485,0.000016\Si,0,-0.1
 3001,0.866589,0.000008\H,0,1.961185,-1.218533,1.207891\H,0,3.01935,0.5
 83655,0.000044\H,0,1.961215,-1.218499,-1.20788\S,0,-1.766887,-0.562678
 ,-0.000025\H,0,-0.208819,1.736334,-1.198421\H,0,-0.208844,1.736309,1.1
 98454\H,0,-2.747084,0.359234,-0.000031\\Version=ES64L-G16RevC.01\HF=-9
 78.9122597\RMSD=3.483e-09\Dipole=0.1347948,0.4606203,0.0000044\Quadrup

 Normal termination of Gaussian 16 at Wed Apr  9 00:12:34 2025.
 Gaussian 16:  ES64L-G16RevC.01  3-Jul-2019

 ----------------------------------------------------------------------
 #t hf aug-cc-pvdz iop(5/13=1,5/36=2,99/5=2) pseudo=read geom=check gue
 ss=(read,tcheck) scf=(maxcycle=1)
 ----------------------------------------------------------------------
 -----
 title
 -----
 Structure from the checkpoint file:  "BDE49_nonexpt_2414_mol1.chk"
 Charge =  0 Multiplicity = 1

                         Standard orientation:
 ---------------------------------------------------------------------
 Center     Atomic      Atomic             Coordinates (Angstroms)
 Number     Number       Type             X           Y           Z
 ---------------------------------------------------------------------
      1         14           0        1.879524   -0.364850    0.000016
      2         14           0       -0.130010    0.866589    0.000008
      3          1           0        1.961185   -1.218533    1.207891
      4          1           0        3.019350    0.583655    0.000044
      5          1           0        1.961215   -1.218499   -1.207880
      6         16           0       -1.766887   -0.562678   -0.000025
      7          1           0       -0.208819    1.736334   -1.198421
      8          1           0       -0.208844    1.736309    1.198454
      9          1           0       -2.747084    0.359234   -0.000031
 ---------------------------------------------------------------------

 SCF Done:  E(RHF) =  -979.467642249     A.U. after    2 cycles

 The electronic state is 1-A.
 Alpha  occ. eigenvalues --  -76.24479 -76.22422 -75.68775 -13.13264 -13.06670
 Alpha  occ. eigenvalues --  -13.02392  -8.02718  -5.57881  -5.55855  -2.19705
 Alpha  occ. eigenvalues --   -2.19571  -2.18768  -2.17912  -2.17911  -2.16826
 Alpha  occ. eigenvalues --   -1.10564  -0.81195  -0.70995  -0.51859  -0.49703
 Alpha  occ. eigenvalues --   -0.47815  -0.47030  -0.37292  -0.33387  -0.27348
 Alpha virt. eigenvalues --    0.03040   0.04002   0.04218   0.06563   0.06959
 Alpha virt. eigenvalues --    0.07842   0.07959   0.08994   0.09624   0.09769
 Alpha virt. eigenvalues --    0.10208   0.10397   0.11908   0.12833   0.13444

 Mulliken charges:
               1
     1  Si   4.589643
     2  Si   4.328369
     3  H   -1.473921
     4  H   -1.518828
     5  H   -1.473923
     6  S   -2.247595
     7  H   -1.594562
     8  H   -1.594562
     9  H    0.985378
 Sum of Mulliken charges =  -0.00000

 Dipole moment (field-independent basis, Debye):
    X=             -0.2167    Y=             -1.5048    Z=             -0.0000  Tot=              1.5204

 Test job not archived.
 1\1\GINC-SE367\SP\RHF\Aug-CC-pVDZ\H6S1Si2\OHZDE\09-Apr-2025\0\\#t hf a
 ug-cc-pvdz iop(5/13=1,5/36=2,99/5=2) pseudo=read geom=check guess=(rea
 d,tcheck) scf=(maxcycle=1)\\title\\0,1\Si,0,1.879524,-0.36485,0.000016
 \Si,0,-0.13001,0.866589,0.000008\H,0,1.961185,-1.218533,1.207891\H,0,3
 .01935,0.583655,0.000044\H,0,1.961215,-1.218499,-1.20788\S,0,-1.766887
 ,-0.562678,-0.000025\H,0,-0.208819,1.736334,-1.198421\H,0,-0.208844,1.
 736309,1.198454\H,0,-2.747084,0.359234,-0.000031\\Version=ES64L-G16Rev
 C.01\State=1-A\HF=-979.4676422\RMSD=1.077e-01\Dipole=-0.0852505,-0.592

 Normal termination of Gaussian 16 at Wed Apr  9 00:12:36 2025.
