 Gaussian 16, Revision C.01,

 ----------------------------------------------------------------------
 #t hf aug-cc-pvdz symm=none int=(grid=ultrafine) guess=(read,tcheck) s
 table=(opt,rrhf)
 ----------------------------------------------------------------------
 -----
 title
 -----
 Symbolic Z-matrix:
 Charge =  0 Multiplicity = 1

 SCF Done:  E(RHF) =  -1142.88442686     A.U. after   17 cycles
 Normal termination of Gaussian 16 at Wed Apr  9 00:52:06 2025.
 Gaussian 16:  ES64L-G16RevC.01  3-Jul-2019

 ----------------------------------------------------------------------
 #t hf aug-cc-pvdz iop(5/13=1,5/36=2,99/5=2) pseudo=read geom=check gue
 ss=(read,tcheck) scf=(maxcycle=1)
 ----------------------------------------------------------------------
 -----
 title
 -----
 Structure from the checkpoint file:  "BDE49_nonexpt_890_mol1.chk"
 Charge =  0 Multiplicity = 1

                         Standard orientation:
 ---------------------------------------------------------------------
 Center     Atomic      Atomic             Coordinates (Angstroms)
 Number     Number       Type             X           Y           Z
 ---------------------------------------------------------------------
      1         16           0        2.951386    0.940128    0.605677
      2         16           0        1.970744   -1.922626   -0.507717
      3          7           0       -4.188946   -1.621060    0.509754
      4          6           0       -2.198551   -0.029641    0.065834
      5          6           0       -3.299215   -0.911694    0.311791
      6          6           0        0.209805    0.334489   -0.087466
      7          6           0       -0.886275   -0.511793    0.138557
      8          1           0       -0.728583   -1.553801    0.389565
      9          6           0       -2.435994    1.316043   -0.247797
     10          1           0       -3.453679    1.681695   -0.306096
     11          6           0       -0.057021    1.681711   -0.395298
     12          1           0        0.767740    2.358927   -0.586419
     13          6           0       -1.360046    2.163682   -0.479579
     14          1           0       -1.538197    3.203761   -0.725970
     15          5           0        1.676881   -0.205023    0.001918
     16          1           0        3.260573   -2.036092   -0.149394
     17          1           0        4.040077    0.181233    0.396837
 ---------------------------------------------------------------------

 SCF Done:  E(RHF) =  -1144.93323133     A.U. after    2 cycles

 The electronic state is 1-A.
 Alpha  occ. eigenvalues --  -75.70951 -75.70830 -15.76414 -13.18926 -13.18525
 Alpha  occ. eigenvalues --  -13.12636 -13.11435 -13.07300 -13.05307 -11.55453
 Alpha  occ. eigenvalues --  -11.48469 -11.46967 -11.45430 -11.43860 -11.43662
 Alpha  occ. eigenvalues --  -11.39516  -8.04903  -8.04778  -7.70173  -1.40376
 Alpha  occ. eigenvalues --   -1.29749  -1.22567  -1.13906  -1.12238  -1.11062
 Alpha  occ. eigenvalues --   -0.92825  -0.90657  -0.79606  -0.71737  -0.69089
 Alpha  occ. eigenvalues --   -0.63058  -0.62109  -0.56120  -0.54355  -0.53565
 Alpha  occ. eigenvalues --   -0.52744  -0.50299  -0.48134  -0.46824  -0.44950
 Alpha  occ. eigenvalues --   -0.41424  -0.38594  -0.34755  -0.33982  -0.31379
 Alpha  occ. eigenvalues --   -0.26785
 Alpha virt. eigenvalues --    0.01614   0.02244   0.02811   0.03665   0.05489
 Alpha virt. eigenvalues --    0.06004   0.06867   0.07509   0.08089   0.08565
 Alpha virt. eigenvalues --    0.09199   0.09931   0.10340   0.11091   0.11467

 Mulliken charges:
               1
     1  S   -2.832203
     2  S   -2.797602
     3  N   -2.213344
     4  C    6.727576
     5  C   -1.170103
     6  C    0.741958
     7  C   -3.379727
     8  H    1.972312
     9  C   -4.007026
    10  H    1.700682
    11  C   -3.041176
    12  H    1.932692
    13  C   -0.015851
    14  H    1.576352
    15  B    3.126076
    16  H    0.839835
    17  H    0.839550
 Sum of Mulliken charges =   0.00000

 Dipole moment (field-independent basis, Debye):
    X=              2.2980    Y=              2.8357    Z=             -0.7778  Tot=              3.7319

 Test job not archived.
 1\1\GINC-SE284\SP\RHF\Aug-CC-pVDZ\C7H6B1N1S2\OHZDE\09-Apr-2025\0\\#t h
 f aug-cc-pvdz iop(5/13=1,5/36=2,99/5=2) pseudo=read geom=check guess=(
 read,tcheck) scf=(maxcycle=1)\\title\\0,1\S,0,2.951386,0.940128,0.6056
 77\S,0,1.970744,-1.922626,-0.507717\N,0,-4.188946,-1.62106,0.509754\C,
 0,-2.198551,-0.029641,0.065834\C,0,-3.299215,-0.911694,0.311791\C,0,0.
 209805,0.334489,-0.087466\C,0,-0.886275,-0.511793,0.138557\H,0,-0.7285
 83,-1.553801,0.389565\C,0,-2.435994,1.316043,-0.247797\H,0,-3.453679,1
 .681695,-0.306096\C,0,-0.057021,1.681711,-0.395298\H,0,0.76774,2.35892

 Normal termination of Gaussian 16 at Wed Apr  9 00:52:21 2025.
