 Gaussian 16, Revision C.01,

 ----------------------------------------------------------------------
 #t hf aug-cc-pvdz symm=none int=(grid=ultrafine) guess=(read,tcheck) s
 table=opt
 ----------------------------------------------------------------------
 -----
 title
 -----
 Symbolic Z-matrix:
 Charge =  0 Multiplicity = 2

 SCF Done:  E(UHF) =  -498.026933032     A.U. after   17 cycles

 1\1\GINC-SE222\Stability\UHF\Aug-CC-pVDZ\C4H10P1\OHZDE\08-Apr-2025\0\\
 #t hf aug-cc-pvdz symm=none int=(grid=ultrafine) guess=(read,tcheck) s
 table=opt\\title\\0,2\C,0,-0.317757,-0.002156,0.\C,0,-0.785656,-0.7532
 43,1.261529\H,0,-0.452958,-0.253756,2.175584\H,0,-0.409414,-1.779371,1
 .280683\H,0,-1.881367,-0.796616,1.285634\C,0,-0.785659,-0.753254,-1.26
 1521\H,0,-0.409417,-1.779382,-1.280668\H,0,-0.452962,-0.253775,-2.1755
 81\H,0,-1.881369,-0.796627,-1.285624\C,0,-0.893428,1.426926,-0.000005\
 H,0,-1.988334,1.39346,-0.000004\H,0,-0.576242,1.987481,-0.883973\H,0,-

 Normal termination of Gaussian 16 at Tue Apr  8 23:36:38 2025.
 Gaussian 16:  ES64L-G16RevC.01  3-Jul-2019

 ----------------------------------------------------------------------
 #t hf aug-cc-pvdz iop(5/13=1,5/36=2,99/5=2) pseudo=read geom=check gue
 ss=(read,tcheck) scf=(maxcycle=1)
 ----------------------------------------------------------------------
 -----
 title
 -----
 Structure from the checkpoint file:  "BDE49_nonexpt_1490_mol2.chk"
 Charge =  0 Multiplicity = 2

                         Standard orientation:
 ---------------------------------------------------------------------
 Center     Atomic      Atomic             Coordinates (Angstroms)
 Number     Number       Type             X           Y           Z
 ---------------------------------------------------------------------
      1          6           0       -0.317757   -0.002156    0.000000
      2          6           0       -0.785656   -0.753243    1.261529
      3          1           0       -0.452958   -0.253756    2.175584
      4          1           0       -0.409414   -1.779371    1.280683
      5          1           0       -1.881367   -0.796616    1.285634
      6          6           0       -0.785659   -0.753254   -1.261521
      7          1           0       -0.409417   -1.779382   -1.280668
      8          1           0       -0.452962   -0.253775   -2.175581
      9          1           0       -1.881369   -0.796627   -1.285624
     10          6           0       -0.893428    1.426926   -0.000005
     11          1           0       -1.988334    1.393460   -0.000004
     12          1           0       -0.576242    1.987481   -0.883973
     13          1           0       -0.576240    1.987488    0.883957
     14         15           0        1.567695    0.136695   -0.000002
     15          1           0        1.807883   -1.268964    0.000004
 ---------------------------------------------------------------------

 SCF Done:  E(UHF) =  -499.027762879     A.U. after    2 cycles

 The electronic state is 2-A.
 Alpha  occ. eigenvalues -- -105.17596 -11.41432 -11.39016 -11.38991 -11.35152
 Alpha  occ. eigenvalues --   -2.74692  -1.48135  -1.46040  -1.43971  -1.22905
 Alpha  occ. eigenvalues --   -1.00899  -1.00783  -0.78772  -0.68914  -0.60412
 Alpha  occ. eigenvalues --   -0.60309  -0.56158  -0.54367  -0.54223  -0.51648
 Alpha  occ. eigenvalues --   -0.44200  -0.44121  -0.20766  -0.06311   0.02016
 Alpha virt. eigenvalues --    0.03860   0.05946   0.06036   0.06066   0.06410
 Alpha virt. eigenvalues --    0.06555   0.06761   0.07756   0.08062   0.08750
 Alpha virt. eigenvalues --    0.10763   0.11795   0.12707   0.13095   0.15463

  Beta  occ. eigenvalues -- -105.16966 -11.41529 -11.38987 -11.38919 -11.35142
  Beta  occ. eigenvalues --   -2.72765  -1.46361  -1.42307  -1.22679  -1.22469
  Beta  occ. eigenvalues --   -1.00732  -1.00627  -0.78115  -0.66595  -0.60379
  Beta  occ. eigenvalues --   -0.60157  -0.54278  -0.54164  -0.54131  -0.51609
  Beta  occ. eigenvalues --   -0.44101  -0.43962  -0.21538  -0.04234
  Beta virt. eigenvalues --    0.03898   0.05969   0.06027   0.06088   0.06307
  Beta virt. eigenvalues --    0.06412   0.06627   0.06766   0.07990   0.08750
  Beta virt. eigenvalues --    0.10942   0.11047   0.12042   0.12816   0.13890

 Mulliken charges and spin densities:
               1          2
     1  C    0.969110  -0.731942
     2  C   -4.239374  -0.030439
     3  H    0.952270   0.204582
     4  H    1.217826   0.075871
     5  H    1.339679  -0.070259
     6  C   -4.239375  -0.030439
     7  H    1.217825   0.075871
     8  H    0.952270   0.204582
     9  H    1.339680  -0.070259
    10  C   -3.975348  -0.018362
    11  H    1.252211   0.003641
    12  H    1.230324   0.009488
    13  H    1.230324   0.009488
    14  P    2.296021   1.572651
    15  H   -1.543443  -0.204472
 Sum of Mulliken charges =  -0.00000   1.00000

 Dipole moment (field-independent basis, Debye):
    X=             -0.5351    Y=              2.1566    Z=             -0.0000  Tot=              2.2220
                          Isotropic Fermi Contact Couplings
        Atom                 a.u.       MegaHertz       Gauss      10(-4) cm-1
     1  C(13)             -0.00540      -6.07148      -2.16645      -2.02523
     2  C(13)              0.02150      24.17212       8.62521       8.06295
     3  H(1)               0.00046       2.05736       0.73412       0.68626
     4  H(1)              -0.00003      -0.13459      -0.04802      -0.04489
     5  H(1)               0.00171       7.65491       2.73146       2.55340
     6  C(13)              0.02150      24.17205       8.62519       8.06293
     7  H(1)              -0.00003      -0.13459      -0.04802      -0.04489
     8  H(1)               0.00046       2.05735       0.73411       0.68626

 Normal termination of Gaussian 16 at Tue Apr  8 23:36:43 2025.
