 Gaussian 16, Revision C.01,

 ----------------------------------------------------------------------
 #t hf aug-cc-pvdz symm=none int=(grid=ultrafine) guess=(read,tcheck) s
 table=(opt,rrhf)
 ----------------------------------------------------------------------
 -----
 title
 -----
 Symbolic Z-matrix:
 Charge =  0 Multiplicity = 1

 SCF Done:  E(RHF) =  -1099.84127966     A.U. after   15 cycles
 Normal termination of Gaussian 16 at Tue Apr  8 23:42:01 2025.
 Gaussian 16:  ES64L-G16RevC.01  3-Jul-2019

 ----------------------------------------------------------------------
 #t hf aug-cc-pvdz iop(5/13=1,5/36=2,99/5=2) pseudo=read geom=check gue
 ss=(read,tcheck) scf=(maxcycle=1)
 ----------------------------------------------------------------------
 -----
 title
 -----
 Structure from the checkpoint file:  "BDE49_nonexpt_1644_mol1.chk"
 Charge =  0 Multiplicity = 1

                         Standard orientation:
 ---------------------------------------------------------------------
 Center     Atomic      Atomic             Coordinates (Angstroms)
 Number     Number       Type             X           Y           Z
 ---------------------------------------------------------------------
      1         14           0       -0.627456    0.704311   -0.550738
      2         15           0        1.382295   -0.100869    0.143051
      3          7           0       -1.820178   -0.669883   -0.010985
      4          8           0        1.625631    0.193465    1.564655
      5          8           0        2.465153    0.530445   -0.864704
      6          8           0       -2.999521   -0.367376    0.082915
      7          8           0       -1.386782   -1.811032    0.191530
      8          6           0       -1.176604    2.261949    0.290808
      9          1           0       -1.005371    2.191916    1.366966
     10          1           0       -2.239059    2.432290    0.105507
     11          1           0       -0.610711    3.115145   -0.093477
     12          1           0        3.161973    0.992859   -0.381587
     13          8           0        1.394202   -1.617986   -0.348960
     14          1           0        0.564129   -2.062103   -0.089738
     15          1           0       -0.809600    0.679934   -2.014546
 ---------------------------------------------------------------------

 SCF Done:  E(RHF) =  -1102.17396167     A.U. after    2 cycles

 The electronic state is 1-A.
 Alpha  occ. eigenvalues -- -105.31732 -76.29716 -21.13195 -21.12177 -21.11725
 Alpha  occ. eigenvalues --  -21.11124 -21.03665 -15.98306 -11.39676  -5.63557
 Alpha  occ. eigenvalues --   -2.93804  -2.27683  -2.26369  -2.25471  -1.99627
 Alpha  occ. eigenvalues --   -1.99186  -1.91072  -1.79587  -1.70296  -1.52109
 Alpha  occ. eigenvalues --   -1.40839  -1.26655  -1.09509  -1.00840  -0.76821
 Alpha  occ. eigenvalues --   -0.71936  -0.67676  -0.64142  -0.62583  -0.60432
 Alpha  occ. eigenvalues --   -0.60081  -0.58702  -0.56656  -0.48763  -0.45593
 Alpha  occ. eigenvalues --   -0.43154  -0.36082  -0.35314  -0.34952  -0.33881
 Alpha  occ. eigenvalues --   -0.33283  -0.29372  -0.23561  -0.16613
 Alpha virt. eigenvalues --    0.02599   0.04715   0.05314   0.05818   0.06690
 Alpha virt. eigenvalues --    0.07446   0.07838   0.08092   0.09012   0.10146
 Alpha virt. eigenvalues --    0.10400   0.11345   0.12247   0.13573   0.14360

 Mulliken charges:
               1
     1  Si   4.989386
     2  P    7.075004
     3  N    3.291794
     4  O   -3.039224
     5  O   -2.830845
     6  O   -2.363994
     7  O   -2.247772
     8  C   -5.144839
     9  H    1.364115
    10  H    1.363375
    11  H    1.329625
    12  H    0.840081
    13  O   -3.479811
    14  H    1.345675
    15  H   -2.492571
 Sum of Mulliken charges =  -0.00000

 Dipole moment (field-independent basis, Debye):
    X=              1.7381    Y=              1.5356    Z=             -1.9762  Tot=              3.0470

 Test job not archived.
 1\1\GINC-SE361\SP\RHF\Aug-CC-pVDZ\C1H6N1O5P1Si1\OHZDE\08-Apr-2025\0\\#
 t hf aug-cc-pvdz iop(5/13=1,5/36=2,99/5=2) pseudo=read geom=check gues
 s=(read,tcheck) scf=(maxcycle=1)\\title\\0,1\Si,0,-0.627456,0.704311,-
 0.550738\P,0,1.382295,-0.100869,0.143051\N,0,-1.820178,-0.669883,-0.01
 0985\O,0,1.625631,0.193465,1.564655\O,0,2.465153,0.530444,-0.864704\O,
 0,-2.999521,-0.367376,0.082915\O,0,-1.386782,-1.811032,0.19153\C,0,-1.
 176604,2.261949,0.290808\H,0,-1.005371,2.191916,1.366966\H,0,-2.239059
 ,2.43229,0.105507\H,0,-0.610711,3.115145,-0.093477\H,0,3.161973,0.9928

 Normal termination of Gaussian 16 at Tue Apr  8 23:42:08 2025.
