 Gaussian 16, Revision C.01,

 ----------------------------------------------------------------------
 #t hf aug-cc-pvdz symm=none int=(grid=ultrafine) guess=(read,tcheck) s
 table=(opt,rrhf)
 ----------------------------------------------------------------------
 -----
 title
 -----
 Symbolic Z-matrix:
 Charge =  0 Multiplicity = 1

 SCF Done:  E(RHF) =  -389.183200187     A.U. after   15 cycles
 Normal termination of Gaussian 16 at Wed Apr  9 00:40:16 2025.
 Gaussian 16:  ES64L-G16RevC.01  3-Jul-2019

 ----------------------------------------------------------------------
 #t hf aug-cc-pvdz iop(5/13=1,5/36=2,99/5=2) pseudo=read geom=check gue
 ss=(read,tcheck) scf=(maxcycle=1)
 ----------------------------------------------------------------------
 -----
 title
 -----
 Structure from the checkpoint file:  "BDE49_nonexpt_580_mol1.chk"
 Charge =  0 Multiplicity = 1

                         Standard orientation:
 ---------------------------------------------------------------------
 Center     Atomic      Atomic             Coordinates (Angstroms)
 Number     Number       Type             X           Y           Z
 ---------------------------------------------------------------------
      1          5           0       -2.208836   -0.000073    0.158484
      2          6           0        0.333029    0.000229   -0.563164
      3          6           0        1.018988    1.199584   -0.328724
      4          6           0        1.018944   -1.199311   -0.329541
      5          6           0        2.339400   -1.202238    0.114815
      6          6           0        3.006977   -0.000127    0.339777
      7          6           0        2.339443    1.202161    0.115634
      8          1           0        4.035792   -0.000262    0.681713
      9          1           0        2.848799    2.145305    0.282279
     10          1           0        0.511282    2.143147   -0.503906
     11          1           0        0.511205   -2.142736   -0.505368
     12          1           0        2.848722   -2.145514    0.280818
     13          7           0       -1.801074   -0.000719    1.493420
     14          6           0       -3.747717    0.000181   -0.214763
     15          1           0       -4.002760   -0.873512   -0.826440
     16          1           0       -4.002688    0.874544   -0.825512
     17          1           0       -4.414644   -0.000251    0.653348
     18          6           0       -1.109378    0.000405   -1.004759
     19          1           0       -1.303286    0.870425   -1.645645
     20          1           0       -1.303286   -0.869104   -1.646338
     21          1           0       -2.446790   -0.001051    2.267560
     22          1           0       -0.828771   -0.000893    1.765488
 ---------------------------------------------------------------------

 SCF Done:  E(RHF) =  -391.089797735     A.U. after    2 cycles

 The electronic state is 1-A.
 Alpha  occ. eigenvalues --  -15.71375 -11.51048 -11.43247 -11.42147 -11.39996
 Alpha  occ. eigenvalues --  -11.39651 -11.36387 -11.34540 -11.32453  -7.58070
 Alpha  occ. eigenvalues --   -1.35820  -1.31183  -1.13830  -1.08208  -1.05157
 Alpha  occ. eigenvalues --   -0.98150  -0.85451  -0.82847  -0.72424  -0.69582
 Alpha  occ. eigenvalues --   -0.67176  -0.63996  -0.59992  -0.57081  -0.56934
 Alpha  occ. eigenvalues --   -0.54108  -0.53368  -0.50368  -0.50242  -0.45720
 Alpha  occ. eigenvalues --   -0.44131  -0.43028  -0.39874  -0.38397  -0.32353
 Alpha  occ. eigenvalues --   -0.29967
 Alpha virt. eigenvalues --    0.03241   0.04008   0.04512   0.04560   0.05579
 Alpha virt. eigenvalues --    0.05918   0.06453   0.07471   0.07584   0.08181
 Alpha virt. eigenvalues --    0.08329   0.08741   0.09752   0.10153   0.10243

 Mulliken charges:
               1
     1  B    7.892688
     2  C    4.762441
     3  C   -2.409603
     4  C   -2.409702
     5  C   -1.968266
     6  C   -2.595053
     7  C   -1.968089
     8  H    1.528628
     9  H    1.523588
    10  H    1.772144
    11  H    1.772162
    12  H    1.523577
    13  N   -3.047835
    14  C   -6.712681
    15  H    0.940094
    16  H    0.940013
    17  H    1.150341
    18  C   -7.014429
    19  H    1.120170
    20  H    1.120170
    21  H    1.086051
    22  H    0.993589
 Sum of Mulliken charges =  -0.00000

 Dipole moment (field-independent basis, Debye):
    X=             -0.2454    Y=             -0.0004    Z=              0.9106  Tot=              0.9431

 Test job not archived.
 1\1\GINC-SE166\SP\RHF\Aug-CC-pVDZ\C8H12B1N1\OHZDE\09-Apr-2025\0\\#t hf
  aug-cc-pvdz iop(5/13=1,5/36=2,99/5=2) pseudo=read geom=check guess=(r
 ead,tcheck) scf=(maxcycle=1)\\title\\0,1\B,0,-2.208836,-0.000073,0.158
 484\C,0,0.333029,0.000229,-0.563164\C,0,1.018988,1.199584,-0.328724\C,
 0,1.018944,-1.199311,-0.329541\C,0,2.3394,-1.202238,0.114815\C,0,3.006
 977,-0.000127,0.339777\C,0,2.339443,1.202161,0.115634\H,0,4.035792,-0.
 000262,0.681713\H,0,2.848799,2.145305,0.282279\H,0,0.511282,2.143147,-
 0.503906\H,0,0.511205,-2.142736,-0.505368\H,0,2.848722,-2.145514,0.280

 Normal termination of Gaussian 16 at Wed Apr  9 00:40:29 2025.
