 Gaussian 16, Revision C.01,

 ----------------------------------------------------------------------
 #t hf aug-cc-pvdz symm=none int=(grid=ultrafine) guess=(read,tcheck) s
 table=opt
 ----------------------------------------------------------------------
 -----
 title
 -----
 Symbolic Z-matrix:
 Charge =  0 Multiplicity = 2

 SCF Done:  E(UHF) =  -103.846415202     A.U. after   16 cycles
 Normal termination of Gaussian 16 at Wed Apr  9 00:28:42 2025.
 Gaussian 16:  ES64L-G16RevC.01  3-Jul-2019

 ----------------------------------------------------------------------
 #t hf aug-cc-pvdz iop(5/13=1,5/36=2,99/5=2) pseudo=read geom=check gue
 ss=(read,tcheck) scf=(maxcycle=1)
 ----------------------------------------------------------------------
 -----
 title
 -----
 Structure from the checkpoint file:  "BDE49_nonexpt_2_mol2.chk"
 Charge =  0 Multiplicity = 2

                         Standard orientation:
 ---------------------------------------------------------------------
 Center     Atomic      Atomic             Coordinates (Angstroms)
 Number     Number       Type             X           Y           Z
 ---------------------------------------------------------------------
      1          5           0        1.525439   -0.248684   -0.092168
      2          6           0        0.202541    0.535796    0.013853
      3          6           0       -1.118956   -0.263275   -0.010967
      4          1           0        0.321558    1.023215    1.002428
      5          1           0        0.164000    1.377669   -0.687581
      6          1           0       -1.116642   -1.055213    0.741868
      7          1           0       -1.271609   -0.735194   -0.984918
      8          1           0       -1.980399    0.383378    0.180262
      9          1           0        1.754393   -1.385560    0.191466
 ---------------------------------------------------------------------

 SCF Done:  E(UHF) =  -104.356073914     A.U. after    2 cycles

 The electronic state is 2-A.
 Alpha  occ. eigenvalues --  -11.38855 -11.33928  -7.62444  -1.17352  -0.92683
 Alpha  occ. eigenvalues --   -0.73172  -0.60519  -0.56576  -0.51338  -0.48744
 Alpha  occ. eigenvalues --   -0.43383  -0.28322
 Alpha virt. eigenvalues --    0.03226   0.03704   0.04132   0.04832   0.06861
 Alpha virt. eigenvalues --    0.07205   0.07823   0.08155   0.11473   0.12366
 Alpha virt. eigenvalues --    0.13057   0.14036   0.15109   0.16586   0.16999

  Beta  occ. eigenvalues --  -11.38758 -11.33906  -7.60728  -1.16578  -0.91502
  Beta  occ. eigenvalues --   -0.69653  -0.60294  -0.55510  -0.49978  -0.48524
  Beta  occ. eigenvalues --   -0.42408
  Beta virt. eigenvalues --    0.03316   0.03573   0.04026   0.04355   0.06888
  Beta virt. eigenvalues --    0.07497   0.07821   0.08075   0.10045   0.12013
  Beta virt. eigenvalues --    0.13402   0.13827   0.14920   0.15326   0.16836

 Mulliken charges and spin densities:
               1          2
     1  B    2.053330   0.954739
     2  C   -3.863045  -0.047239
     3  C   -3.636517   0.077005
     4  H    1.603920  -0.011915
     5  H    1.690482   0.001059
     6  H    1.234011  -0.001170
     7  H    1.233685  -0.003295
     8  H    1.177675   0.001907
     9  H   -1.493542   0.028910
 Sum of Mulliken charges =  -0.00000   1.00000

 Dipole moment (field-independent basis, Debye):
    X=             -1.1293    Y=              0.1236    Z=              0.2357  Tot=              1.1602
                          Isotropic Fermi Contact Couplings
        Atom                 a.u.       MegaHertz       Gauss      10(-4) cm-1
     1  B(11)              0.16302     233.82984      83.43630      77.99724
     2  C(13)              0.01093      12.29021       4.38545       4.09957
     3  C(13)              0.02904      32.65200      11.65104      10.89153
     4  H(1)              -0.00098      -4.40010      -1.57006      -1.46771
     5  H(1)               0.00493      22.05456       7.86962       7.35661
     6  H(1)              -0.00047      -2.09647      -0.74807      -0.69931
     7  H(1)              -0.00064      -2.85425      -1.01847      -0.95208
     8  H(1)               0.00160       7.15877       2.55443       2.38791

 Normal termination of Gaussian 16 at Wed Apr  9 00:28:44 2025.
