 Gaussian 16, Revision C.01,

 ----------------------------------------------------------------------
 #t hf aug-cc-pvdz symm=none int=(grid=ultrafine) guess=(read,tcheck) s
 table=opt
 ----------------------------------------------------------------------
 -----
 title
 -----
 Symbolic Z-matrix:
 Charge =  0 Multiplicity = 2

 SCF Done:  E(UHF) =  -365.522495638     A.U. after   17 cycles

 1\1\GINC-SE334\Stability\UHF\Aug-CC-pVDZ\H3O1Si1\OHZDE\08-Apr-2025\0\\
 #t hf aug-cc-pvdz symm=none int=(grid=ultrafine) guess=(read,tcheck) s
 table=opt\\title\\0,2\O,0,1.184211,0.,0.02779\Si,0,-0.474283,0.,0.0017
 69\H,0,-1.061081,1.214897,0.611354\H,0,-1.06108,-1.214904,0.611341\H,0
 ,-0.711568,0.000008,-1.469784\\Version=ES64L-G16RevC.01\HF=-365.522495
 6\S2=0.75813\S2-1=0.\S2A=0.750052\RMSD=8.808e-09\Dipole=-0.6110235,-0.
 0000004,0.0955788\Quadrupole=-1.1443858,0.1149305,1.0294553,-0.000001,
 0.1619716,-0.000005\PG=Unknown\\@

 Normal termination of Gaussian 16 at Tue Apr  8 22:58:35 2025.
 Gaussian 16:  ES64L-G16RevC.01  3-Jul-2019

 ----------------------------------------------------------------------
 #t hf aug-cc-pvdz iop(5/13=1,5/36=2,99/5=2) pseudo=read geom=check gue
 ss=(read,tcheck) scf=(maxcycle=1)
 ----------------------------------------------------------------------
 -----
 title
 -----
 Structure from the checkpoint file:  "BDE49_expt_1906_mol2.chk"
 Charge =  0 Multiplicity = 2

                         Standard orientation:
 ---------------------------------------------------------------------
 Center     Atomic      Atomic             Coordinates (Angstroms)
 Number     Number       Type             X           Y           Z
 ---------------------------------------------------------------------
      1          8           0        1.184211    0.000000   -0.027790
      2         14           0       -0.474283    0.000000   -0.001769
      3          1           0       -1.061081   -1.214897   -0.611354
      4          1           0       -1.061080    1.214904   -0.611341
      5          1           0       -0.711568   -0.000008    1.469784
 ---------------------------------------------------------------------

 SCF Done:  E(UHF) =  -365.941700228     A.U. after    2 cycles

 The electronic state is 2-A.
 Alpha  occ. eigenvalues --  -76.25111 -21.12168  -5.58819  -2.24924  -2.20348
 Alpha  occ. eigenvalues --   -2.20344  -1.64801  -0.76220  -0.54711  -0.51321
 Alpha  occ. eigenvalues --   -0.45050  -0.44289  -0.40375
 Alpha virt. eigenvalues --    0.04228   0.05834   0.06323   0.06638   0.09098
 Alpha virt. eigenvalues --    0.09251   0.14133   0.15561   0.17326   0.17646
 Alpha virt. eigenvalues --    0.21643   0.23527   0.25542   0.25892   0.26738

  Beta  occ. eigenvalues --  -76.25177 -21.08600  -5.58919  -2.24887  -2.20492
  Beta  occ. eigenvalues --   -2.20432  -1.50921  -0.75369  -0.50737  -0.48931
  Beta  occ. eigenvalues --   -0.41415  -0.37438
  Beta virt. eigenvalues --    0.04125   0.04912   0.06126   0.06657   0.07488
  Beta virt. eigenvalues --    0.09268   0.09853   0.14425   0.15714   0.17394
  Beta virt. eigenvalues --    0.17637   0.22005   0.25817   0.26118   0.27060

 Mulliken charges and spin densities:
               1          2
     1  O   -1.394723   1.033656
     2  Si   6.064164  -0.112959
     3  H   -1.540443   0.005105
     4  H   -1.540443   0.005105
     5  H   -1.588554   0.069093
 Sum of Mulliken charges =   0.00000   1.00000

 Dipole moment (field-independent basis, Debye):
    X=             -0.4066    Y=              0.0000    Z=             -0.3454  Tot=              0.5335
                          Isotropic Fermi Contact Couplings
        Atom                 a.u.       MegaHertz       Gauss      10(-4) cm-1
     1  O(17)              0.14820     -89.83622     -32.05580     -29.96614
     2  Si(29)            -0.05760      51.19280      18.26686      17.07608
     3  H(1)               0.00200       8.95791       3.19641       2.98804
     4  H(1)               0.00200       8.95794       3.19642       2.98805
     5  H(1)               0.01736      77.57574      27.68095      25.87648
 --------------------------------------------------------
       Center         ----  Spin Dipole Couplings  ----
                      3XX-RR        3YY-RR        3ZZ-RR

 Normal termination of Gaussian 16 at Tue Apr  8 22:58:37 2025.
