 Gaussian 16, Revision C.01,

 ----------------------------------------------------------------------
 #t hf aug-cc-pvdz symm=none int=(grid=ultrafine) guess=(read,tcheck) s
 table=(opt,rrhf)
 ----------------------------------------------------------------------
 -----
 title
 -----
 Symbolic Z-matrix:
 Charge =  0 Multiplicity = 1

 SCF Done:  E(RHF) =  -535.482962042     A.U. after   16 cycles
 Normal termination of Gaussian 16 at Tue Apr  8 23:07:32 2025.
 Gaussian 16:  ES64L-G16RevC.01  3-Jul-2019

 ----------------------------------------------------------------------
 #t hf aug-cc-pvdz iop(5/13=1,5/36=2,99/5=2) pseudo=read geom=check gue
 ss=(read,tcheck) scf=(maxcycle=1)
 ----------------------------------------------------------------------
 -----
 title
 -----
 Structure from the checkpoint file:  "BDE49_expt_266_mol1.chk"
 Charge =  0 Multiplicity = 1

                         Standard orientation:
 ---------------------------------------------------------------------
 Center     Atomic      Atomic             Coordinates (Angstroms)
 Number     Number       Type             X           Y           Z
 ---------------------------------------------------------------------
      1          6           0        1.062814   -0.569097   -0.468574
      2          6           0        1.593592    0.504664   -1.187256
      3          6           0        1.659122   -0.931574    0.743807
      4          6           0        2.705065    1.197384   -0.711052
      5          6           0        3.296083    0.826550    0.494150
      6          6           0        2.768493   -0.239488    1.221186
      7          1           0        1.135401    0.798218   -2.125750
      8          1           0        3.109094    2.025281   -1.283105
      9          1           0        4.162405    1.363030    0.864394
     10          1           0        3.222609   -0.533938    2.160808
     11          1           0        1.244977   -1.754964    1.315451
     12          6           0       -0.156239   -1.318861   -0.977350
     13          6           0       -1.397423   -0.919041   -0.195983
     14          1           0       -0.312452   -1.109810   -2.036064
     15          1           0       -0.023904   -2.393731   -0.841848
     16          8           0       -1.760017   -1.441569    0.828623
     17          8           0       -2.026142    0.119368   -0.784560
     18          6           0       -3.188022    0.656543   -0.099479
     19          6           0       -2.785313    1.692214    0.936747
     20          1           0       -3.735779   -0.168726    0.356735
     21          1           0       -3.787768    1.097285   -0.895991
     22          1           0       -2.202452    1.231625    1.735944
     23          1           0       -3.679704    2.139852    1.379561
     24          1           0       -2.192174    2.487723    0.480188
 ---------------------------------------------------------------------

 SCF Done:  E(RHF) =  -537.965783722     A.U. after    2 cycles

 The electronic state is 1-A.
 Alpha  occ. eigenvalues --  -21.08522 -21.04476 -11.53341 -11.51832 -11.44559
 Alpha  occ. eigenvalues --  -11.44255 -11.43479 -11.42221 -11.40924 -11.40613
 Alpha  occ. eigenvalues --  -11.36855 -11.36270  -1.83581  -1.65999  -1.35312
 Alpha  occ. eigenvalues --   -1.17261  -1.12760  -1.09134  -1.02866  -0.90651
 Alpha  occ. eigenvalues --   -0.86496  -0.84189  -0.75106  -0.70736  -0.68277
 Alpha  occ. eigenvalues --   -0.65345  -0.63700  -0.61134  -0.58160  -0.57666
 Alpha  occ. eigenvalues --   -0.56915  -0.54822  -0.53509  -0.50765  -0.50234
 Alpha  occ. eigenvalues --   -0.49083  -0.48200  -0.44236  -0.43211  -0.40219
 Alpha  occ. eigenvalues --   -0.33437  -0.32867  -0.31447  -0.28493
 Alpha virt. eigenvalues --    0.03660   0.04436   0.04722   0.04953   0.05483
 Alpha virt. eigenvalues --    0.05896   0.06349   0.06795   0.06960   0.07512
 Alpha virt. eigenvalues --    0.07939   0.08793   0.09591   0.11542   0.11782

 Mulliken charges:
               1
     1  C    4.919518
     2  C   -2.764945
     3  C   -2.995622
     4  C   -1.311101
     5  C   -2.840512
     6  C   -1.331710
     7  H    1.766080
     8  H    1.526616
     9  H    1.553180
    10  H    1.535303
    11  H    1.868277
    12  C   -5.966498
    13  C    7.521925
    14  H    1.462072
    15  H    1.155359
    16  O   -3.461382
    17  O   -3.572747
    18  C   -2.045290
    19  C   -3.985348
    20  H    1.625795
    21  H    1.389575
    22  H    1.305331
    23  H    1.182225
    24  H    1.463898
 Sum of Mulliken charges =   0.00000

 Dipole moment (field-independent basis, Debye):
    X=             -0.0946    Y=              1.0813    Z=             -0.7183  Tot=              1.3016

 Test job not archived.
 1\1\GINC-SE083\SP\RHF\Aug-CC-pVDZ\C10H12O2\OHZDE\08-Apr-2025\0\\#t hf
 aug-cc-pvdz iop(5/13=1,5/36=2,99/5=2) pseudo=read geom=check guess=(re
 ad,tcheck) scf=(maxcycle=1)\\title\\0,1\C,0,1.062814,-0.569097,-0.4685
 74\C,0,1.593592,0.504664,-1.187256\C,0,1.659122,-0.931574,0.743807\C,0
 ,2.705065,1.197384,-0.711052\C,0,3.296083,0.82655,0.49415\C,0,2.768493
 ,-0.239488,1.221186\H,0,1.135401,0.798218,-2.12575\H,0,3.109094,2.0252
 81,-1.283105\H,0,4.162405,1.36303,0.864394\H,0,3.222609,-0.533938,2.16
 0808\H,0,1.244977,-1.754964,1.315451\C,0,-0.156239,-1.318861,-0.97735\

 Normal termination of Gaussian 16 at Tue Apr  8 23:07:52 2025.
