 Gaussian 16, Revision C.01,

 ----------------------------------------------------------------------
 #t hf aug-cc-pvdz symm=none int=(grid=ultrafine) guess=(read,tcheck) s
 table=(opt,rrhf)
 ----------------------------------------------------------------------
 -----
 title
 -----
 Symbolic Z-matrix:
 Charge =  0 Multiplicity = 1

 SCF Done:  E(RHF) =  -780.046836201     A.U. after   17 cycles
 Normal termination of Gaussian 16 at Tue Apr  8 23:14:23 2025.
 Gaussian 16:  ES64L-G16RevC.01  3-Jul-2019

 ----------------------------------------------------------------------
 #t hf aug-cc-pvdz iop(5/13=1,5/36=2,99/5=2) pseudo=read geom=check gue
 ss=(read,tcheck) scf=(maxcycle=1)
 ----------------------------------------------------------------------
 -----
 title
 -----
 Structure from the checkpoint file:  "BDE49_expt_795_mol1.chk"
 Charge =  0 Multiplicity = 1

                         Standard orientation:
 ---------------------------------------------------------------------
 Center     Atomic      Atomic             Coordinates (Angstroms)
 Number     Number       Type             X           Y           Z
 ---------------------------------------------------------------------
      1          6           0       -1.212550    1.095760   -0.036465
      2          6           0       -2.206746    0.113737    0.015978
      3          6           0       -1.856092   -1.237726    0.038091
      4          6           0       -0.516614   -1.614673    0.015948
      5          6           0        0.470885   -0.634159   -0.035420
      6          6           0        0.126212    0.721150   -0.064612
      7          6           0        1.318464    1.642028   -0.190237
      8          6           0        2.530769    0.862155    0.341709
      9          1           0        1.184296    2.580493    0.354842
     10          1           0        1.470985    1.892998   -1.247590
     11         16           0        2.231260   -0.906817   -0.092087
     12          1           0        2.602065    0.940537    1.428470
     13          1           0        3.473070    1.179244   -0.103713
     14          1           0       -1.487137    2.147448   -0.055541
     15          1           0       -2.644122   -1.979158    0.085086
     16          1           0       -0.252697   -2.665172    0.046594
     17          8           0       -3.540589    0.418543    0.053299
     18          1           0       -3.647879    1.374693    0.028888
 ---------------------------------------------------------------------

 SCF Done:  E(RHF) =  -782.060640148     A.U. after    2 cycles

 The electronic state is 1-A.
 Alpha  occ. eigenvalues --  -75.68114 -21.10455 -13.16645 -13.11783 -13.01733
 Alpha  occ. eigenvalues --  -11.52018 -11.46668 -11.45219 -11.43622 -11.43351
 Alpha  occ. eigenvalues --  -11.41181 -11.40009 -11.37033  -8.02224  -1.75755
 Alpha  occ. eigenvalues --   -1.38739  -1.21865  -1.12859  -1.05522  -1.02890
 Alpha  occ. eigenvalues --   -0.90184  -0.84810  -0.81421  -0.68651  -0.66260
 Alpha  occ. eigenvalues --   -0.64818  -0.64612  -0.58009  -0.55202  -0.54140
 Alpha  occ. eigenvalues --   -0.52125  -0.51370  -0.46881  -0.44918  -0.41950
 Alpha  occ. eigenvalues --   -0.41051  -0.36549  -0.33358  -0.30626  -0.19726
 Alpha virt. eigenvalues --    0.03270   0.03985   0.05049   0.05844   0.05912
 Alpha virt. eigenvalues --    0.06305   0.06523   0.07493   0.08994   0.09573
 Alpha virt. eigenvalues --    0.10907   0.11624   0.12185   0.12856   0.13008

 Mulliken charges:
               1
     1  C   -2.194075
     2  C    4.572987
     3  C   -3.500256
     4  C   -1.582354
     5  C    1.429435
     6  C    2.808893
     7  C   -4.545658
     8  C   -4.313981
     9  H    0.925313
    10  H    1.008849
    11  S    0.646300
    12  H    1.424865
    13  H    1.361851
    14  H    1.899338
    15  H    1.779490
    16  H    1.824776
    17  O   -4.603725
    18  H    1.057950
 Sum of Mulliken charges =  -0.00000

 Dipole moment (field-independent basis, Debye):
    X=              0.4843    Y=              0.7110    Z=             -0.0308  Tot=              0.8609

 Test job not archived.
 1\1\GINC-SE227\SP\RHF\Aug-CC-pVDZ\C8H8O1S1\OHZDE\08-Apr-2025\0\\#t hf
 aug-cc-pvdz iop(5/13=1,5/36=2,99/5=2) pseudo=read geom=check guess=(re
 ad,tcheck) scf=(maxcycle=1)\\title\\0,1\C,0,-1.21255,1.09576,-0.036465
 \C,0,-2.206746,0.113737,0.015978\C,0,-1.856092,-1.237726,0.038091\C,0,
 -0.516614,-1.614673,0.015948\C,0,0.470885,-0.634159,-0.03542\C,0,0.126
 212,0.72115,-0.064612\C,0,1.318464,1.642028,-0.190237\C,0,2.530769,0.8
 62155,0.341709\H,0,1.184296,2.580493,0.354842\H,0,1.470985,1.892998,-1
 .24759\S,0,2.23126,-0.906817,-0.092087\H,0,2.602065,0.940537,1.42847\H

 Normal termination of Gaussian 16 at Tue Apr  8 23:14:33 2025.
