 Gaussian 16, Revision C.01,

 ----------------------------------------------------------------------
 #t hf aug-cc-pvdz symm=none int=(grid=ultrafine) guess=(read,tcheck) s
 table=(opt,rrhf)
 ----------------------------------------------------------------------
 -----
 title
 -----
 Symbolic Z-matrix:
 Charge =  0 Multiplicity = 1

 SCF Done:  E(RHF) =  -229.901512555     A.U. after   13 cycles
 Normal termination of Gaussian 16 at Tue Apr  8 23:36:28 2025.
 Gaussian 16:  ES64L-G16RevC.01  3-Jul-2019

 ----------------------------------------------------------------------
 #t hf aug-cc-pvdz iop(5/13=1,5/36=2,99/5=2) pseudo=read geom=check gue
 ss=(read,tcheck) scf=(maxcycle=1)
 ----------------------------------------------------------------------
 -----
 title
 -----
 Structure from the checkpoint file:  "BDE49_nonexpt_148_mol1.chk"
 Charge =  0 Multiplicity = 1

                         Standard orientation:
 ---------------------------------------------------------------------
 Center     Atomic      Atomic             Coordinates (Angstroms)
 Number     Number       Type             X           Y           Z
 ---------------------------------------------------------------------
      1          5           0       -2.273817   -1.246858   -0.333395
      2          5           0       -1.207223   -0.489222    0.618160
      3          5           0        0.036125    0.544819    0.111077
      4          8           0        1.316874    0.171689   -0.141022
      5          6           0       -0.307023    2.075971   -0.091197
      6          1           0       -1.022619    2.463743    0.640529
      7          1           0       -0.774303    2.210572   -1.075771
      8          1           0        0.593962    2.696117   -0.065627
      9          6           0        1.781782   -1.169741   -0.028278
     10          1           0        2.484269   -1.236916    0.805849
     11          1           0        2.302797   -1.437013   -0.949841
     12          1           0        0.960414   -1.876103    0.134356
     13          1           0       -1.334131   -0.585970    1.811194
     14          1           0       -3.266966   -0.713788   -0.736626
     15          1           0       -2.102388   -2.375228   -0.698247
 ---------------------------------------------------------------------

 SCF Done:  E(RHF) =  -230.968746560     A.U. after    2 cycles

 The electronic state is 1-A.
 Alpha  occ. eigenvalues --  -21.02750 -11.41407 -11.32614  -7.59362  -7.58925
 Alpha  occ. eigenvalues --   -7.56688  -1.76614  -1.08033  -0.98008  -0.93995
 Alpha  occ. eigenvalues --   -0.75474  -0.64336  -0.61268  -0.61082  -0.55339
 Alpha  occ. eigenvalues --   -0.53812  -0.48314  -0.47511  -0.43108  -0.41783
 Alpha  occ. eigenvalues --   -0.36880  -0.31311
 Alpha virt. eigenvalues --    0.01464   0.01842   0.02449   0.03666   0.06749
 Alpha virt. eigenvalues --    0.06986   0.07283   0.07456   0.08032   0.08415
 Alpha virt. eigenvalues --    0.08848   0.09042   0.09716   0.09952   0.10237

 Mulliken charges:
               1
     1  B    4.832199
     2  B   -0.051994
     3  B    8.029828
     4  O   -4.117125
     5  C   -6.314328
     6  H    1.065995
     7  H    0.898987
     8  H    1.301957
     9  C   -2.533476
    10  H    1.316904
    11  H    1.291655
    12  H    1.772891
    13  H   -2.325170
    14  H   -2.587818
    15  H   -2.580505
 Sum of Mulliken charges =   0.00000

 Dipole moment (field-independent basis, Debye):
    X=              0.8481    Y=             -0.4907    Z=              0.0700  Tot=              0.9824

 Test job not archived.
 1\1\GINC-SE099\SP\RHF\Aug-CC-pVDZ\C2H9B3O1\OHZDE\08-Apr-2025\0\\#t hf
 aug-cc-pvdz iop(5/13=1,5/36=2,99/5=2) pseudo=read geom=check guess=(re
 ad,tcheck) scf=(maxcycle=1)\\title\\0,1\B,0,-2.273818,-1.246857,-0.333
 395\B,0,-1.207223,-0.489221,0.61816\B,0,0.036125,0.544819,0.111077\O,0
 ,1.316874,0.171688,-0.141022\C,0,-0.307022,2.075971,-0.091197\H,0,-1.0
 22618,2.463743,0.640529\H,0,-0.774302,2.210572,-1.075771\H,0,0.593963,
 2.696117,-0.065627\C,0,1.781781,-1.169742,-0.028278\H,0,2.484268,-1.23
 6917,0.805849\H,0,2.302796,-1.437014,-0.949841\H,0,0.960413,-1.876103,

 Normal termination of Gaussian 16 at Tue Apr  8 23:36:32 2025.
