 Gaussian 16, Revision C.01,

 ----------------------------------------------------------------------
 #t hf aug-cc-pvdz symm=none int=(grid=ultrafine) guess=(read,tcheck) s
 table=(opt,rrhf)
 ----------------------------------------------------------------------
 -----
 title
 -----
 Symbolic Z-matrix:
 Charge =  0 Multiplicity = 1

 SCF Done:  E(RHF) =  -1036.97693244     A.U. after   13 cycles
 Normal termination of Gaussian 16 at Tue Apr  8 23:27:14 2025.
 Gaussian 16:  ES64L-G16RevC.01  3-Jul-2019

 ----------------------------------------------------------------------
 #t hf aug-cc-pvdz iop(5/13=1,5/36=2,99/5=2) pseudo=read geom=check gue
 ss=(read,tcheck) scf=(maxcycle=1)
 ----------------------------------------------------------------------
 -----
 title
 -----
 Structure from the checkpoint file:  "BDE49_nonexpt_1229_mol1.chk"
 Charge =  0 Multiplicity = 1

                         Standard orientation:
 ---------------------------------------------------------------------
 Center     Atomic      Atomic             Coordinates (Angstroms)
 Number     Number       Type             X           Y           Z
 ---------------------------------------------------------------------
      1          6           0        3.412097    0.732042    0.453825
      2          6           0        2.240344   -0.150005   -0.004299
      3          1           0        4.316831    0.121040    0.525350
      4          1           0        3.225413    1.171570    1.437305
      5          1           0        3.609199    1.539333   -0.256594
      6          6           0        1.945277   -1.247411    1.023142
      7          1           0        2.795184   -1.935566    1.089270
      8          1           0        1.067322   -1.825667    0.729983
      9          1           0        1.766167   -0.824292    2.013816
     10          6           0        2.510266   -0.752814   -1.388367
     11          1           0        3.331829   -1.475386   -1.330182
     12          1           0        2.780779    0.023448   -2.107119
     13          1           0        1.624121   -1.269252   -1.761296
     14         16           0        0.822355    1.035142   -0.121513
     15          8           0       -0.396175   -0.011259   -0.664787
     16         14           0       -1.937918   -0.060108    0.013233
     17          6           0       -1.869281   -0.621315    1.800737
     18          1           0       -1.449292   -1.627021    1.890774
     19          1           0       -2.875472   -0.639863    2.232464
     20          1           0       -1.259667    0.054562    2.406451
     21          6           0       -2.728863    1.635900   -0.097751
     22          1           0       -2.177494    2.373940    0.492442
     23          1           0       -3.755942    1.611460    0.280918
     24          1           0       -2.760881    1.989192   -1.132355
     25          6           0       -2.842399   -1.301959   -1.054460
     26          1           0       -2.357390   -2.281367   -1.018138
     27          1           0       -2.867132   -0.977355   -2.098123
     28          1           0       -3.875655   -1.426095   -0.714679
 ---------------------------------------------------------------------

 SCF Done:  E(RHF) =  -1039.13887802     A.U. after    2 cycles

 The electronic state is 1-A.
 Alpha  occ. eigenvalues --  -76.20319 -75.70807 -21.03984 -13.19445 -13.14348
 Alpha  occ. eigenvalues --  -13.09463 -11.43314 -11.39506 -11.38873 -11.35568
 Alpha  occ. eigenvalues --  -11.34198 -11.34065 -11.33939  -8.04402  -5.54580
 Alpha  occ. eigenvalues --   -2.20977  -2.18003  -2.17836  -1.69067  -1.28595
 Alpha  occ. eigenvalues --   -1.07499  -1.01704  -1.01168  -1.00865  -1.00586
 Alpha  occ. eigenvalues --   -0.99820  -0.77411  -0.64883  -0.62710  -0.61086
 Alpha  occ. eigenvalues --   -0.60357  -0.56951  -0.56210  -0.56155  -0.55191
 Alpha  occ. eigenvalues --   -0.54653  -0.54402  -0.53966  -0.52951  -0.51632
 Alpha  occ. eigenvalues --   -0.46408  -0.46096  -0.45274  -0.43854  -0.42645
 Alpha  occ. eigenvalues --   -0.38458  -0.37338  -0.30644  -0.20135
 Alpha virt. eigenvalues --    0.03222   0.04175   0.05266   0.05413   0.05536
 Alpha virt. eigenvalues --    0.05786   0.05842   0.06139   0.06259   0.06835
 Alpha virt. eigenvalues --    0.07205   0.07643   0.08073   0.08237   0.09028

 Mulliken charges:
               1
     1  C   -4.317205
     2  C    2.210315
     3  H    1.190110
     4  H    1.310587
     5  H    1.328808
     6  C   -5.182034
     7  H    1.104848
     8  H    1.531223
     9  H    1.493031
    10  C   -4.604235
    11  H    1.165044
    12  H    1.402639
    13  H    1.348524
    14  S    0.420698
    15  O   -3.803866
    16  Si  11.739979
    17  C   -6.359011
    18  H    1.227032
    19  H    1.069721
    20  H    1.069306
    21  C   -6.039532
    22  H    1.149035
    23  H    1.205048
    24  H    1.146675
    25  C   -6.172823
    26  H    1.090556
    27  H    1.157944
    28  H    1.117585
 Sum of Mulliken charges =   0.00000

 Dipole moment (field-independent basis, Debye):
    X=              0.0865    Y=              0.0635    Z=              0.0309  Tot=              0.1117

 Test job not archived.
 1\1\GINC-SE365\SP\RHF\Aug-CC-pVDZ\C7H18O1S1Si1\OHZDE\08-Apr-2025\0\\#t
  hf aug-cc-pvdz iop(5/13=1,5/36=2,99/5=2) pseudo=read geom=check guess
 =(read,tcheck) scf=(maxcycle=1)\\title\\0,1\C,0,3.412097,0.732042,0.45
 3825\C,0,2.240344,-0.150005,-0.004299\H,0,4.316831,0.12104,0.52535\H,0
 ,3.225413,1.17157,1.437305\H,0,3.609199,1.539333,-0.256594\C,0,1.94527
 7,-1.247411,1.023142\H,0,2.795184,-1.935566,1.08927\H,0,1.067322,-1.82
 5667,0.729983\H,0,1.766167,-0.824292,2.013816\C,0,2.510266,-0.752814,-
 1.388367\H,0,3.331829,-1.475386,-1.330182\H,0,2.780779,0.023448,-2.107

 Normal termination of Gaussian 16 at Tue Apr  8 23:27:33 2025.
