 Gaussian 16, Revision C.01,

 ----------------------------------------------------------------------
 #t hf aug-cc-pvdz symm=none int=(grid=ultrafine) guess=(read,tcheck) s
 table=opt
 ----------------------------------------------------------------------
 -----
 title
 -----
 Symbolic Z-matrix:
 Charge =  0 Multiplicity = 2

 SCF Done:  E(UHF) =  -970.619718525     A.U. after   15 cycles
 Normal termination of Gaussian 16 at Wed Apr  9 00:14:11 2025.
 Gaussian 16:  ES64L-G16RevC.01  3-Jul-2019

 ----------------------------------------------------------------------
 #t hf aug-cc-pvdz iop(5/13=1,5/36=2,99/5=2) pseudo=read geom=check gue
 ss=(read,tcheck) scf=(maxcycle=1)
 ----------------------------------------------------------------------
 -----
 title
 -----
 Structure from the checkpoint file:  "BDE49_nonexpt_2449_mol2.chk"
 Charge =  0 Multiplicity = 2

                         Standard orientation:
 ---------------------------------------------------------------------
 Center     Atomic      Atomic             Coordinates (Angstroms)
 Number     Number       Type             X           Y           Z
 ---------------------------------------------------------------------
      1         14           0        2.417024    0.469825   -0.101607
      2         15           0       -0.457371   -0.486519    0.129720
      3          8           0       -0.661633    1.073552   -0.109944
      4          8           0       -0.948449   -1.124023   -1.257939
      5          1           0       -1.370065   -1.979116   -1.114116
      6          8           0       -1.095333   -1.083006    1.302024
      7          8           0        1.114436   -0.573128    0.066615
      8          1           0        2.341911    1.521490    0.944242
      9          1           0        3.610134   -0.391021    0.084916
     10          6           0       -1.986891    1.640721   -0.053015
     11          1           0       -1.858211    2.720743   -0.076582
     12          1           0       -2.485624    1.340472    0.869815
     13          1           0       -2.566739    1.316175   -0.919537
 ---------------------------------------------------------------------

 SCF Done:  E(UHF) =  -972.391110488     A.U. after    2 cycles

 The electronic state is 2-A.
 Alpha  occ. eigenvalues -- -105.32585 -76.27334 -21.11552 -21.08845 -21.08729
 Alpha  occ. eigenvalues --  -21.02199 -11.42992  -5.60531  -2.96080  -2.26289
 Alpha  occ. eigenvalues --   -2.22207  -2.21221  -2.01448  -1.92303  -1.91920
 Alpha  occ. eigenvalues --   -1.74870  -1.43260  -1.40430  -1.25381  -0.98498
 Alpha  occ. eigenvalues --   -0.77253  -0.67384  -0.63399  -0.62051  -0.58366
 Alpha  occ. eigenvalues --   -0.52927  -0.51855  -0.48615  -0.45526  -0.42461
 Alpha  occ. eigenvalues --   -0.38514  -0.36478  -0.34012  -0.29871  -0.28553
 Alpha  occ. eigenvalues --   -0.27867  -0.16189
 Alpha virt. eigenvalues --    0.03452   0.04879   0.05562   0.06019   0.06307
 Alpha virt. eigenvalues --    0.07259   0.07660   0.08299   0.09505   0.11789
 Alpha virt. eigenvalues --    0.12699   0.12939   0.13542   0.14118   0.15167

  Beta  occ. eigenvalues -- -105.32588 -76.26779 -21.11556 -21.08734 -21.08562
  Beta  occ. eigenvalues --  -21.02189 -11.42994  -5.59635  -2.96085  -2.25639
  Beta  occ. eigenvalues --   -2.21600  -2.17853  -2.01396  -1.92277  -1.91755
  Beta  occ. eigenvalues --   -1.74701  -1.43211  -1.40199  -1.25301  -0.98498
  Beta  occ. eigenvalues --   -0.74245  -0.65873  -0.63391  -0.62023  -0.58292
  Beta  occ. eigenvalues --   -0.52037  -0.50807  -0.47387  -0.44674  -0.42232
  Beta  occ. eigenvalues --   -0.38473  -0.35869  -0.33965  -0.29704  -0.27859
  Beta  occ. eigenvalues --   -0.16138
  Beta virt. eigenvalues --    0.03189   0.03901   0.05171   0.05642   0.06103
  Beta virt. eigenvalues --    0.06466   0.07305   0.08465   0.09615   0.10171
  Beta virt. eigenvalues --    0.11991   0.12961   0.13493   0.13809   0.14283

 Mulliken charges and spin densities:
               1          2
     1  Si   4.323547   1.012092
     2  P    9.301273   0.046368
     3  O   -3.380098  -0.055265
     4  O   -2.673925   0.015988
     5  H    0.843234   0.000734
     6  O   -2.765812  -0.004061
     7  O   -3.805966  -0.049432
     8  H   -1.367400   0.025317
     9  H   -1.590740   0.027171
    10  C   -2.917461  -0.015456
    11  H    1.310542  -0.001646
    12  H    1.349128   0.000755
    13  H    1.373679  -0.002564
 Sum of Mulliken charges =   0.00000   1.00000

 Dipole moment (field-independent basis, Debye):
    X=              0.1364    Y=              1.3493    Z=             -2.7469  Tot=              3.0634
                          Isotropic Fermi Contact Couplings
        Atom                 a.u.       MegaHertz       Gauss      10(-4) cm-1
     1  Si(29)             0.58151    -516.80182    -184.40774    -172.38653
     2  P(31)             -0.00384      -6.94864      -2.47945      -2.31782
     3  O(17)             -0.00038       0.23006       0.08209       0.07674
     4  O(17)             -0.00076       0.46285       0.16516       0.15439
     5  H(1)               0.00000       0.02223       0.00793       0.00742
     6  O(17)              0.00023      -0.14229      -0.05077      -0.04746
     7  O(17)              0.03147     -19.07728      -6.80725      -6.36349
     8  H(1)               0.01460      65.26535      23.28830      21.77018

 1\1\GINC-SE333\SP\UHF\Aug-CC-pVDZ\C1H6O4P1Si1(2)\OHZDE\09-Apr-2025\0\\
 #t hf aug-cc-pvdz iop(5/13=1,5/36=2,99/5=2) pseudo=read geom=check gue
 ss=(read,tcheck) scf=(maxcycle=1)\\title\\0,2\Si,0,2.417024,0.469825,-
 0.101607\P,0,-0.457371,-0.486519,0.12972\O,0,-0.661633,1.073552,-0.109
 944\O,0,-0.948449,-1.124023,-1.257939\H,0,-1.370065,-1.979116,-1.11411
 6\O,0,-1.095333,-1.083006,1.302024\O,0,1.114436,-0.573128,0.066615\H,0
 ,2.341911,1.52149,0.944242\H,0,3.610134,-0.39102,0.084916\C,0,-1.98689
 1,1.640721,-0.053015\H,0,-1.858211,2.720743,-0.076582\H,0,-2.485624,1.

 Normal termination of Gaussian 16 at Wed Apr  9 00:14:16 2025.
