 Gaussian 16, Revision C.01,

 ----------------------------------------------------------------------
 #t hf aug-cc-pvdz symm=none int=(grid=ultrafine) guess=(read,tcheck) s
 table=(opt,rrhf)
 ----------------------------------------------------------------------
 -----
 title
 -----
 Symbolic Z-matrix:
 Charge =  0 Multiplicity = 1

 SCF Done:  E(RHF) =  -1414.26798646     A.U. after   14 cycles
 Normal termination of Gaussian 16 at Wed Apr  9 00:13:39 2025.
 Gaussian 16:  ES64L-G16RevC.01  3-Jul-2019

 ----------------------------------------------------------------------
 #t hf aug-cc-pvdz iop(5/13=1,5/36=2,99/5=2) pseudo=read geom=check gue
 ss=(read,tcheck) scf=(maxcycle=1)
 ----------------------------------------------------------------------
 -----
 title
 -----
 Structure from the checkpoint file:  "BDE49_nonexpt_2439_mol1.chk"
 Charge =  0 Multiplicity = 1

                         Standard orientation:
 ---------------------------------------------------------------------
 Center     Atomic      Atomic             Coordinates (Angstroms)
 Number     Number       Type             X           Y           Z
 ---------------------------------------------------------------------
      1         14           0       -2.541732   -0.014901   -0.578541
      2         14           0       -0.800442   -0.359886    0.977707
      3          6           0        0.859153    0.091723    0.163016
      4          1           0       -0.771054   -1.788307    1.390356
      5          1           0       -0.961566    0.487923    2.177072
      6         16           0        1.239023    1.671290   -0.057531
      7         16           0        1.939706   -1.165624   -0.408357
      8          1           0       -3.828545   -0.410384    0.043333
      9          1           0       -2.307445   -0.856701   -1.775461
     10          1           0       -2.601929    1.408494   -0.976692
     11          1           0        1.246390   -2.234996    0.029179
 ---------------------------------------------------------------------

 SCF Done:  E(RHF) =  -1415.21691809     A.U. after    2 cycles

 The electronic state is 1-A.
 Alpha  occ. eigenvalues --  -76.24112 -76.22977 -75.73229 -75.67939 -13.17306
 Alpha  occ. eigenvalues --  -13.14681 -13.12767 -13.05437 -13.02421 -12.99953
 Alpha  occ. eigenvalues --  -11.46646  -8.07241  -8.02008  -5.57692  -5.56374
 Alpha  occ. eigenvalues --   -2.21419  -2.19939  -2.19112  -2.18468  -2.18426
 Alpha  occ. eigenvalues --   -2.17329  -1.27008  -1.09414  -0.85780  -0.77921
 Alpha  occ. eigenvalues --   -0.70390  -0.56567  -0.51717  -0.48569  -0.47891
 Alpha  occ. eigenvalues --   -0.45159  -0.44512  -0.41457  -0.35307  -0.24143
 Alpha  occ. eigenvalues --   -0.21578
 Alpha virt. eigenvalues --    0.02770   0.03904   0.04537   0.04964   0.05606
 Alpha virt. eigenvalues --    0.06556   0.07379   0.07650   0.08167   0.08278
 Alpha virt. eigenvalues --    0.08979   0.09124   0.09848   0.11266   0.11659

 Mulliken charges:
               1
     1  Si   4.692143
     2  Si   4.321969
     3  C   -2.398989
     4  H   -1.699341
     5  H   -1.824644
     6  S    0.850517
     7  S   -0.367468
     8  H   -1.580991
     9  H   -1.455023
    10  H   -1.468220
    11  H    0.930047
 Sum of Mulliken charges =  -0.00000

 Dipole moment (field-independent basis, Debye):
    X=              1.4431    Y=              1.2464    Z=             -0.9489  Tot=              2.1299

 Test job not archived.
 1\1\GINC-SE419\SP\RHF\Aug-CC-pVDZ\C1H6S2Si2\OHZDE\09-Apr-2025\0\\#t hf
  aug-cc-pvdz iop(5/13=1,5/36=2,99/5=2) pseudo=read geom=check guess=(r
 ead,tcheck) scf=(maxcycle=1)\\title\\0,1\Si,0,-2.541732,-0.014901,-0.5
 78541\Si,0,-0.800442,-0.359886,0.977707\C,0,0.859153,0.091723,0.163016
 \H,0,-0.771054,-1.788307,1.390356\H,0,-0.961566,0.487923,2.177072\S,0,
 1.239023,1.67129,-0.057531\S,0,1.939706,-1.165624,-0.408357\H,0,-3.828
 545,-0.410384,0.043333\H,0,-2.307445,-0.856701,-1.775461\H,0,-2.601929
 ,1.408494,-0.976692\H,0,1.24639,-2.234996,0.029179\\Version=ES64L-G16R

 Normal termination of Gaussian 16 at Wed Apr  9 00:13:42 2025.
