 Gaussian 16, Revision C.01,

 ----------------------------------------------------------------------
 #t hf aug-cc-pvdz symm=none int=(grid=ultrafine) guess=(read,tcheck) s
 table=(opt,rrhf)
 ----------------------------------------------------------------------
 -----
 title
 -----
 Symbolic Z-matrix:
 Charge =  0 Multiplicity = 1

 SCF Done:  E(RHF) =  -876.198277455     A.U. after   13 cycles
 Normal termination of Gaussian 16 at Tue Apr  8 23:17:48 2025.
 Gaussian 16:  ES64L-G16RevC.01  3-Jul-2019

 ----------------------------------------------------------------------
 #t hf aug-cc-pvdz iop(5/13=1,5/36=2,99/5=2) pseudo=read geom=check gue
 ss=(read,tcheck) scf=(maxcycle=1)
 ----------------------------------------------------------------------
 -----
 title
 -----
 Structure from the checkpoint file:  "BDE49_nonexpt_1028_mol1.chk"
 Charge =  0 Multiplicity = 1

                         Standard orientation:
 ---------------------------------------------------------------------
 Center     Atomic      Atomic             Coordinates (Angstroms)
 Number     Number       Type             X           Y           Z
 ---------------------------------------------------------------------
      1         17           0       -1.468780   -0.156095   -0.008866
      2          8           0        0.017640    0.746085    0.055877
      3         15           0        1.388821   -0.260243   -0.079854
      4          1           0        1.779591   -0.261540    1.291007
      5          1           0        2.216232    0.850113   -0.389490
 ---------------------------------------------------------------------

 SCF Done:  E(RHF) =  -876.943111058     A.U. after    2 cycles

 The electronic state is 1-A.
 Alpha  occ. eigenvalues -- -105.23654 -99.94459 -21.11965 -10.51177  -9.70992
 Alpha  occ. eigenvalues --   -9.70180  -9.70083  -2.80741  -1.81650  -1.48225
 Alpha  occ. eigenvalues --   -1.47330  -1.42903  -1.21070  -0.74658  -0.59666
 Alpha  occ. eigenvalues --   -0.59354  -0.53723  -0.39489  -0.31557  -0.27205
 Alpha  occ. eigenvalues --   -0.04790
 Alpha virt. eigenvalues --    0.03336   0.04765   0.07253   0.07910   0.10105
 Alpha virt. eigenvalues --    0.12786   0.13606   0.14588   0.15864   0.18617
 Alpha virt. eigenvalues --    0.20502   0.21731   0.23924   0.25013   0.27021

 Mulliken charges:
               1
     1  Cl   0.359043
     2  O   -1.505072
     3  P    2.843898
     4  H   -0.836200
     5  H   -0.861669
 Sum of Mulliken charges =  -0.00000

 Dipole moment (field-independent basis, Debye):
    X=              1.8892    Y=             -1.0364    Z=             -1.4281  Tot=              2.5850

 Test job not archived.
 1\1\GINC-SE126\SP\RHF\Aug-CC-pVDZ\Cl1H2O1P1\OHZDE\08-Apr-2025\0\\#t hf
  aug-cc-pvdz iop(5/13=1,5/36=2,99/5=2) pseudo=read geom=check guess=(r
 ead,tcheck) scf=(maxcycle=1)\\title\\0,1\Cl,0,-1.46878,-0.156095,-0.00
 8866\O,0,0.01764,0.746085,0.055877\P,0,1.388821,-0.260243,-0.079854\H,
 0,1.779591,-0.26154,1.291007\H,0,2.216232,0.850113,-0.38949\\Version=E
 S64L-G16RevC.01\State=1-A\HF=-876.9431111\RMSD=2.103e-01\Dipole=0.7432
 514,-0.4077396,-0.5618403\Quadrupole=1.0523472,-1.0436253,-0.0087219,-
 2.0108597,-2.4882285,-2.3976475\PG=C01 [X(Cl1H2O1P1)]\\@

 Normal termination of Gaussian 16 at Tue Apr  8 23:17:49 2025.
