 Gaussian 16, Revision C.01,

 ----------------------------------------------------------------------
 #t hf aug-cc-pvdz symm=none int=(grid=ultrafine) guess=(read,tcheck) s
 table=(opt,rrhf)
 ----------------------------------------------------------------------
 -----
 title
 -----
 Symbolic Z-matrix:
 Charge =  0 Multiplicity = 1

 SCF Done:  E(RHF) =  -1412.53044654     A.U. after   15 cycles
 Normal termination of Gaussian 16 at Tue Apr  8 23:39:36 2025.
 Gaussian 16:  ES64L-G16RevC.01  3-Jul-2019

 ----------------------------------------------------------------------
 #t hf aug-cc-pvdz iop(5/13=1,5/36=2,99/5=2) pseudo=read geom=check gue
 ss=(read,tcheck) scf=(maxcycle=1)
 ----------------------------------------------------------------------
 -----
 title
 -----
 Structure from the checkpoint file:  "BDE49_nonexpt_1588_mol1.chk"
 Charge =  0 Multiplicity = 1

                         Standard orientation:
 ---------------------------------------------------------------------
 Center     Atomic      Atomic             Coordinates (Angstroms)
 Number     Number       Type             X           Y           Z
 ---------------------------------------------------------------------
      1          8           0       -0.607339    0.629884   -0.706674
      2         15           0       -1.942319   -0.011175    0.022118
      3          8           0       -2.967956    1.018249   -0.078824
      4          8           0       -2.212181   -1.410163   -0.661933
      5          8           0        0.524406   -0.323362   -0.670716
      6          6           0        1.554905    0.320750   -0.035170
      7         17           0        2.881870   -0.854739   -0.014998
      8          9           0        1.227088    0.670356    1.229744
      9          9           0        1.924924    1.437095   -0.662704
     10          1           0       -2.823694   -1.340421   -1.405060
     11          8           0       -1.451029   -0.538389    1.427169
     12          1           0       -1.018049    0.137301    1.963747
 ---------------------------------------------------------------------

 SCF Done:  E(RHF) =  -1415.33500454     A.U. after    2 cycles

 The electronic state is 1-A.
 Alpha  occ. eigenvalues -- -105.35801 -99.94000 -29.34417 -29.34140 -21.18322
 Alpha  occ. eigenvalues --  -21.16411 -21.14881 -21.14789 -21.05251 -11.63175
 Alpha  occ. eigenvalues --  -10.51504  -9.71353  -9.70453  -9.70389  -2.99070
 Alpha  occ. eigenvalues --   -2.06262  -2.05063  -1.95299  -1.83696  -1.71035
 Alpha  occ. eigenvalues --   -1.45041  -1.43248  -1.35265  -1.26995  -1.20522
 Alpha  occ. eigenvalues --   -0.92941  -0.81617  -0.74775  -0.72342  -0.61651
 Alpha  occ. eigenvalues --   -0.60901  -0.58294  -0.56728  -0.54663  -0.50459
 Alpha  occ. eigenvalues --   -0.49343  -0.47090  -0.45122  -0.43267  -0.42941
 Alpha  occ. eigenvalues --   -0.38243  -0.37172  -0.36171  -0.33998  -0.32200
 Alpha  occ. eigenvalues --   -0.30476  -0.28950  -0.25757  -0.18550
 Alpha virt. eigenvalues --    0.04047   0.05075   0.06028   0.07596   0.10202
 Alpha virt. eigenvalues --    0.10475   0.10592   0.11598   0.12716   0.12941
 Alpha virt. eigenvalues --    0.14758   0.15185   0.15729   0.18222   0.19002

 Mulliken charges:
               1
     1  O   -1.756752
     2  P    8.515403
     3  O   -2.761683
     4  O   -2.734063
     5  O   -1.951711
     6  C    0.665306
     7  Cl  -0.451226
     8  F    0.715080
     9  F    0.817574
    10  H    0.893315
    11  O   -2.838793
    12  H    0.887551
 Sum of Mulliken charges =  -0.00000

 Dipole moment (field-independent basis, Debye):
    X=              0.2348    Y=              1.6585    Z=              1.2360  Tot=              2.0817

 Test job not archived.
 1\1\GINC-SE334\SP\RHF\Aug-CC-pVDZ\C1H2Cl1F2O5P1\OHZDE\08-Apr-2025\0\\#
 t hf aug-cc-pvdz iop(5/13=1,5/36=2,99/5=2) pseudo=read geom=check gues
 s=(read,tcheck) scf=(maxcycle=1)\\title\\0,1\O,0,-0.607339,0.629884,-0
 .706674\P,0,-1.942319,-0.011175,0.022118\O,0,-2.967956,1.018249,-0.078
 824\O,0,-2.212181,-1.410163,-0.661933\O,0,0.524406,-0.323362,-0.670716
 \C,0,1.554905,0.32075,-0.03517\Cl,0,2.88187,-0.854739,-0.014998\F,0,1.
 227088,0.670356,1.229744\F,0,1.924924,1.437095,-0.662704\H,0,-2.823694
 ,-1.340421,-1.40506\O,0,-1.451029,-0.538389,1.427169\H,0,-1.018049,0.1

 Normal termination of Gaussian 16 at Tue Apr  8 23:39:43 2025.
