 Gaussian 16, Revision C.01,

 ----------------------------------------------------------------------
 #t hf aug-cc-pvdz symm=none int=(grid=ultrafine) guess=(read,tcheck) s
 table=opt
 ----------------------------------------------------------------------
 -----
 title
 -----
 Symbolic Z-matrix:
 Charge =  0 Multiplicity = 2

 SCF Done:  E(UHF) =  -951.725265819     A.U. after   17 cycles
 Normal termination of Gaussian 16 at Tue Apr  8 23:58:42 2025.
 Gaussian 16:  ES64L-G16RevC.01  3-Jul-2019

 ----------------------------------------------------------------------
 #t hf aug-cc-pvdz iop(5/13=1,5/36=2,99/5=2) pseudo=read geom=check gue
 ss=(read,tcheck) scf=(maxcycle=1)
 ----------------------------------------------------------------------
 -----
 title
 -----
 Structure from the checkpoint file:  "BDE49_nonexpt_2058_mol2.chk"
 Charge =  0 Multiplicity = 2

                         Standard orientation:
 ---------------------------------------------------------------------
 Center     Atomic      Atomic             Coordinates (Angstroms)
 Number     Number       Type             X           Y           Z
 ---------------------------------------------------------------------
      1         14           0       -1.762835   -0.873987    0.055987
      2         16           0       -0.038926    0.543548    0.066993
      3          8           0        0.441541    0.712794    1.421123
      4          8           0        1.109765   -0.263611   -0.788330
      5          6           0        2.077816   -1.067026   -0.074365
      6          1           0        2.863156   -1.271693   -0.799851
      7          1           0        1.631109   -2.006942    0.259218
      8          1           0        2.477968   -0.517891    0.776229
      9          8           0       -0.381949    1.670487   -0.760900
     10          1           0       -1.330323   -2.120801    0.731719
     11          1           0       -2.161164   -1.098821   -1.351967
 ---------------------------------------------------------------------

 SCF Done:  E(UHF) =  -953.255387270     A.U. after    2 cycles

 The electronic state is 2-A.
 Alpha  occ. eigenvalues --  -76.29434 -75.90531 -21.09712 -21.05931 -21.05630
 Alpha  occ. eigenvalues --  -13.53314 -13.42447 -13.34499 -11.43195  -8.25564
 Alpha  occ. eigenvalues --   -5.62659  -2.24902  -2.24589  -2.23625  -1.89395
 Alpha  occ. eigenvalues --   -1.72970  -1.66084  -1.05367  -0.93516  -0.79091
 Alpha  occ. eigenvalues --   -0.66430  -0.64339  -0.60653  -0.57519  -0.53322
 Alpha  occ. eigenvalues --   -0.50363  -0.44437  -0.42479  -0.39327  -0.37791
 Alpha  occ. eigenvalues --   -0.36410  -0.35683  -0.28952
 Alpha virt. eigenvalues --    0.02688   0.03612   0.05396   0.05701   0.06553
 Alpha virt. eigenvalues --    0.07016   0.07602   0.09420   0.10369   0.11872
 Alpha virt. eigenvalues --    0.12821   0.13429   0.13834   0.14508   0.15419

  Beta  occ. eigenvalues --  -76.28833 -75.90513 -21.09547 -21.05958 -21.05648
  Beta  occ. eigenvalues --  -13.53294 -13.42406 -13.34475 -11.43200  -8.25536
  Beta  occ. eigenvalues --   -5.61702  -2.24178  -2.23912  -2.19894  -1.89275
  Beta  occ. eigenvalues --   -1.72770  -1.66137  -1.05177  -0.92459  -0.75335
  Beta  occ. eigenvalues --   -0.66219  -0.64062  -0.60457  -0.57182  -0.52557
  Beta  occ. eigenvalues --   -0.50059  -0.44392  -0.41932  -0.38822  -0.37066
  Beta  occ. eigenvalues --   -0.36235  -0.32956
  Beta virt. eigenvalues --    0.00373   0.02845   0.04051   0.05482   0.06320
  Beta virt. eigenvalues --    0.06948   0.07158   0.08310   0.09655   0.10832
  Beta virt. eigenvalues --    0.12549   0.13561   0.14190   0.14486   0.14761

 Mulliken charges and spin densities:
               1          2
     1  Si   3.934551   1.011363
     2  S    5.498516  -0.007288
     3  O   -2.390915   0.004607
     4  O   -2.877836  -0.010252
     5  C   -2.751405  -0.023509
     6  H    1.280346  -0.004893
     7  H    1.382424  -0.010450
     8  H    1.407379   0.004813
     9  O   -2.425032   0.009158
    10  H   -1.516514   0.009382
    11  H   -1.541514   0.017068
 Sum of Mulliken charges =  -0.00000   1.00000

 Dipole moment (field-independent basis, Debye):
    X=              0.1534    Y=             -2.1270    Z=             -0.1299  Tot=              2.1364
                          Isotropic Fermi Contact Couplings
        Atom                 a.u.       MegaHertz       Gauss      10(-4) cm-1
     1  Si(29)             0.50718    -450.74777    -160.83801    -150.35327
     2  S(33)              0.07956      27.32830       9.75142       9.11574
     3  O(17)             -0.00251       1.51889       0.54198       0.50665
     4  O(17)              0.01865     -11.30855      -4.03517      -3.77213
     5  C(13)             -0.00071      -0.79946      -0.28527      -0.26667
     6  H(1)               0.00042       1.87131       0.66773       0.62420
     7  H(1)               0.00011       0.49219       0.17563       0.16418
     8  H(1)              -0.00000      -0.01422      -0.00508      -0.00474

 1\1\GINC-SE080\SP\UHF\Aug-CC-pVDZ\C1H5O3S1Si1(2)\OHZDE\08-Apr-2025\0\\
 #t hf aug-cc-pvdz iop(5/13=1,5/36=2,99/5=2) pseudo=read geom=check gue
 ss=(read,tcheck) scf=(maxcycle=1)\\title\\0,2\Si,0,-1.762835,-0.873987
 ,0.055987\S,0,-0.038926,0.543548,0.066993\O,0,0.441541,0.712794,1.4211
 23\O,0,1.109765,-0.263611,-0.78833\C,0,2.077816,-1.067026,-0.074365\H,
 0,2.863156,-1.271693,-0.799851\H,0,1.631109,-2.006942,0.259218\H,0,2.4
 77968,-0.517891,0.776229\O,0,-0.381949,1.670487,-0.7609\H,0,-1.330324,
 -2.120801,0.731719\H,0,-2.161164,-1.098821,-1.351967\\Version=ES64L-G1

 Normal termination of Gaussian 16 at Tue Apr  8 23:58:47 2025.
