 Gaussian 16, Revision C.01,

 ----------------------------------------------------------------------
 #t hf aug-cc-pvdz symm=none int=(grid=ultrafine) guess=(read,tcheck) s
 table=(opt,rrhf)
 ----------------------------------------------------------------------
 -----
 title
 -----
 Symbolic Z-matrix:
 Charge =  0 Multiplicity = 1

 SCF Done:  E(RHF) =  -525.496373230     A.U. after   12 cycles
 Normal termination of Gaussian 16 at Tue Apr  8 23:14:01 2025.
 Gaussian 16:  ES64L-G16RevC.01  3-Jul-2019

 ----------------------------------------------------------------------
 #t hf aug-cc-pvdz iop(5/13=1,5/36=2,99/5=2) pseudo=read geom=check gue
 ss=(read,tcheck) scf=(maxcycle=1)
 ----------------------------------------------------------------------
 -----
 title
 -----
 Structure from the checkpoint file:  "BDE49_expt_801_mol1.chk"
 Charge =  0 Multiplicity = 1

                         Standard orientation:
 ---------------------------------------------------------------------
 Center     Atomic      Atomic             Coordinates (Angstroms)
 Number     Number       Type             X           Y           Z
 ---------------------------------------------------------------------
      1         14           0       -0.000000   -0.396879   -0.386594
      2          6           0        0.000000    1.474569   -0.677281
      3          6           0        0.000000    2.342799    0.593936
      4          1           0        0.000000    3.409893    0.351892
      5          1           0        0.880976    2.151656    1.213944
      6          1           0       -0.880976    2.151656    1.213944
      7          1           0       -0.871338    1.721031   -1.295833
      8          1           0        0.871338    1.721031   -1.295833
      9          6           0       -1.547351   -0.952297    0.551483
     10          6           0       -2.882882   -0.635749   -0.145051
     11          1           0       -2.934421   -1.094346   -1.137015
     12          1           0       -3.024097    0.440993   -0.276892
     13          1           0       -3.735911   -1.006458    0.431369
     14          1           0       -1.532680   -0.501522    1.551603
     15          1           0       -1.464461   -2.033599    0.716602
     16          6           0        1.547351   -0.952296    0.551483
     17          1           0       -0.000000   -1.056755   -1.724252
     18          6           0        2.882882   -0.635749   -0.145051
     19          1           0        3.024097    0.440993   -0.276892
     20          1           0        2.934421   -1.094346   -1.137015
     21          1           0        3.735911   -1.006458    0.431369
     22          1           0        1.464461   -2.033599    0.716602
     23          1           0        1.532680   -0.501522    1.551603
 ---------------------------------------------------------------------

 SCF Done:  E(RHF) =  -526.917037159     A.U. after    2 cycles

 The electronic state is 1-A.
 Alpha  occ. eigenvalues --  -76.17877 -11.39296 -11.39039 -11.38908 -11.34244
 Alpha  occ. eigenvalues --  -11.33935 -11.33730  -5.51913  -2.16353  -2.16177
 Alpha  occ. eigenvalues --   -2.14701  -1.16611  -1.12965  -1.12643  -0.90421
 Alpha  occ. eigenvalues --   -0.87718  -0.87030  -0.67976  -0.61195  -0.61129
 Alpha  occ. eigenvalues --   -0.59038  -0.56964  -0.56956  -0.54463  -0.50710
 Alpha  occ. eigenvalues --   -0.49128  -0.48626  -0.48593  -0.47621  -0.47152
 Alpha  occ. eigenvalues --   -0.40981  -0.35827  -0.35781
 Alpha virt. eigenvalues --    0.03722   0.04790   0.05266   0.05577   0.05767
 Alpha virt. eigenvalues --    0.05913   0.06117   0.06271   0.06759   0.07588
 Alpha virt. eigenvalues --    0.07627   0.07977   0.08243   0.09025   0.09163

 Mulliken charges:
               1
     1  Si   7.829622
     2  C   -4.348115
     3  C   -3.906285
     4  H    1.117503
     5  H    1.354833
     6  H    1.354833
     7  H    1.295452
     8  H    1.295452
     9  C   -4.093372
    10  C   -4.070013
    11  H    1.295466
    12  H    1.345423
    13  H    1.097395
    14  H    1.417768
    15  H    1.398372
    16  C   -4.093372
    17  H   -2.775370
    18  C   -4.070013
    19  H    1.345423
    20  H    1.295465
    21  H    1.097395
    22  H    1.398370
    23  H    1.417769
 Sum of Mulliken charges =  -0.00000

 Dipole moment (field-independent basis, Debye):
    X=              0.0000    Y=              0.2752    Z=              0.6909  Tot=              0.7437

 Test job not archived.
 1\1\GINC-SE329\SP\RHF\Aug-CC-pVDZ\C6H16Si1\OHZDE\08-Apr-2025\0\\#t hf
 aug-cc-pvdz iop(5/13=1,5/36=2,99/5=2) pseudo=read geom=check guess=(re
 ad,tcheck) scf=(maxcycle=1)\\title\\0,1\Si,0,0.,-0.396879,0.386594\C,0
 ,0.,1.474569,0.677281\C,0,0.,2.342799,-0.593936\H,0,0.,3.409893,-0.351
 892\H,0,-0.880976,2.151656,-1.213944\H,0,0.880976,2.151656,-1.213944\H
 ,0,0.871338,1.721031,1.295833\H,0,-0.871338,1.721031,1.295833\C,0,1.54
 7351,-0.952297,-0.551483\C,0,2.882882,-0.635749,0.145051\H,0,2.934421,
 -1.094346,1.137015\H,0,3.024097,0.440993,0.276892\H,0,3.735911,-1.0064

 Normal termination of Gaussian 16 at Tue Apr  8 23:14:12 2025.
