 Gaussian 16, Revision C.01,

 ----------------------------------------------------------------------
 #t hf aug-cc-pvdz symm=none int=(grid=ultrafine) guess=(read,tcheck) s
 table=(opt,rrhf)
 ----------------------------------------------------------------------
 -----
 title
 -----
 Symbolic Z-matrix:
 Charge =  0 Multiplicity = 1

 SCF Done:  E(RHF) =  -665.337515185     A.U. after   14 cycles
 Normal termination of Gaussian 16 at Wed Apr  9 00:22:39 2025.
 Gaussian 16:  ES64L-G16RevC.01  3-Jul-2019

 ----------------------------------------------------------------------
 #t hf aug-cc-pvdz iop(5/13=1,5/36=2,99/5=2) pseudo=read geom=check gue
 ss=(read,tcheck) scf=(maxcycle=1)
 ----------------------------------------------------------------------
 -----
 title
 -----
 Structure from the checkpoint file:  "BDE49_nonexpt_2656_mol1.chk"
 Charge =  0 Multiplicity = 1

                         Standard orientation:
 ---------------------------------------------------------------------
 Center     Atomic      Atomic             Coordinates (Angstroms)
 Number     Number       Type             X           Y           Z
 ---------------------------------------------------------------------
      1          9           0       -1.754495    0.609921    0.000512
      2         16           0       -0.759895   -0.752261   -0.000365
      3          6           0        0.876228   -0.010903   -0.000102
      4          8           0        1.793012   -0.799300    0.000277
      5          7           0        0.921928    1.334188   -0.000047
      6          1           0        0.073261    1.876947   -0.000275
      7          1           0        1.820548    1.790436    0.000221
 ---------------------------------------------------------------------

 SCF Done:  E(RHF) =  -666.616700343     A.U. after    2 cycles

 The electronic state is 1-A.
 Alpha  occ. eigenvalues --  -75.78466 -29.29425 -21.06514 -15.81304 -13.22072
 Alpha  occ. eigenvalues --  -13.18911 -13.08764 -11.53647  -8.12479  -1.74467
 Alpha  occ. eigenvalues --   -1.39272  -1.22311  -0.86551  -0.75512  -0.72228
 Alpha  occ. eigenvalues --   -0.59102  -0.57127  -0.51233  -0.42300  -0.38858
 Alpha  occ. eigenvalues --   -0.36442  -0.34440  -0.26649  -0.20012
 Alpha virt. eigenvalues --    0.03349   0.06051   0.07502   0.09837   0.11426
 Alpha virt. eigenvalues --    0.12148   0.13181   0.13638   0.14722   0.16786
 Alpha virt. eigenvalues --    0.17961   0.18866   0.19528   0.20322   0.24047

 Mulliken charges:
               1
     1  F   -0.156344
     2  S    1.288176
     3  C    2.147268
     4  O   -2.485163
     5  N   -2.198889
     6  H    0.628858
     7  H    0.776093
 Sum of Mulliken charges =   0.00000

 Dipole moment (field-independent basis, Debye):
    X=             -3.2394    Y=              3.2094    Z=              0.0012  Tot=              4.5600

 Test job not archived.
 1\1\GINC-SE126\SP\RHF\Aug-CC-pVDZ\C1H2F1N1O1S1\OHZDE\09-Apr-2025\0\\#t
  hf aug-cc-pvdz iop(5/13=1,5/36=2,99/5=2) pseudo=read geom=check guess
 =(read,tcheck) scf=(maxcycle=1)\\title\\0,1\F,0,-1.754495,0.609921,0.0
 00512\S,0,-0.759895,-0.752261,-0.000365\C,0,0.876228,-0.010903,-0.0001
 02\O,0,1.793012,-0.7993,0.000277\N,0,0.921928,1.334188,-0.000047\H,0,0
 .073261,1.876947,-0.000275\H,0,1.820548,1.790436,0.000221\\Version=ES6
 4L-G16RevC.01\State=1-A\HF=-666.6167003\RMSD=6.712e-02\Dipole=-1.27446
 24,1.2626653,0.0004594\Quadrupole=1.1068017,1.9336125,-3.0404142,2.554

 Normal termination of Gaussian 16 at Wed Apr  9 00:22:41 2025.
