 Gaussian 16, Revision C.01,

 ----------------------------------------------------------------------
 #t hf aug-cc-pvdz symm=none int=(grid=ultrafine) guess=(read,tcheck) s
 table=(opt,rrhf)
 ----------------------------------------------------------------------
 -----
 title
 -----
 Symbolic Z-matrix:
 Charge =  0 Multiplicity = 1

 SCF Done:  E(RHF) =  -1025.41429931     A.U. after   14 cycles
 Normal termination of Gaussian 16 at Wed Apr  9 00:18:36 2025.
 Gaussian 16:  ES64L-G16RevC.01  3-Jul-2019

 ----------------------------------------------------------------------
 #t hf aug-cc-pvdz iop(5/13=1,5/36=2,99/5=2) pseudo=read geom=check gue
 ss=(read,tcheck) scf=(maxcycle=1)
 ----------------------------------------------------------------------
 -----
 title
 -----
 Structure from the checkpoint file:  "BDE49_nonexpt_2564_mol1.chk"
 Charge =  0 Multiplicity = 1

                         Standard orientation:
 ---------------------------------------------------------------------
 Center     Atomic      Atomic             Coordinates (Angstroms)
 Number     Number       Type             X           Y           Z
 ---------------------------------------------------------------------
      1         17           0       -1.880366    0.301349   -0.000022
      2         16           0       -0.215369   -0.969367    0.000019
      3          6           0        1.248951    0.101734    0.000011
      4          8           0        2.286174   -0.517595   -0.000013
      5          7           0        1.080269    1.435032    0.000011
      6          1           0        0.164763    1.853638    0.000022
      7          1           0        1.902386    2.018429   -0.000003
 ---------------------------------------------------------------------

 SCF Done:  E(RHF) =  -1026.59906675     A.U. after    2 cycles

 The electronic state is 1-A.
 Alpha  occ. eigenvalues --  -99.92960 -75.76558 -21.06515 -15.81416 -13.17813
 Alpha  occ. eigenvalues --  -13.12522 -13.07546 -11.53793 -10.50061  -9.69784
 Alpha  occ. eigenvalues --   -9.69337  -9.69056  -8.10374  -1.74597  -1.39553
 Alpha  occ. eigenvalues --   -1.34333  -1.11928  -0.84195  -0.75327  -0.66079
 Alpha  occ. eigenvalues --   -0.59382  -0.57258  -0.56204  -0.53800  -0.48014
 Alpha  occ. eigenvalues --   -0.36705  -0.30717  -0.27535
 Alpha virt. eigenvalues --    0.02796   0.04060   0.06482   0.07083   0.11144
 Alpha virt. eigenvalues --    0.11623   0.12391   0.12798   0.13916   0.14056
 Alpha virt. eigenvalues --    0.15272   0.15656   0.16486   0.17419   0.17738

 Mulliken charges:
               1
     1  Cl  -0.458439
     2  S    1.181792
     3  C    2.798201
     4  O   -2.459480
     5  N   -2.607374
     6  H    0.718234
     7  H    0.827065
 Sum of Mulliken charges =  -0.00000

 Dipole moment (field-independent basis, Debye):
    X=              1.3513    Y=             -0.1454    Z=              0.0000  Tot=              1.3591

 Test job not archived.
 1\1\GINC-SE159\SP\RHF\Aug-CC-pVDZ\C1H2Cl1N1O1S1\OHZDE\09-Apr-2025\0\\#
 t hf aug-cc-pvdz iop(5/13=1,5/36=2,99/5=2) pseudo=read geom=check gues
 s=(read,tcheck) scf=(maxcycle=1)\\title\\0,1\Cl,0,-1.880366,0.301349,-
 0.000022\S,0,-0.215369,-0.969367,0.000019\C,0,1.248951,0.101734,0.0000
 11\O,0,2.286174,-0.517595,-0.000013\N,0,1.080269,1.435032,0.000011\H,0
 ,0.164763,1.853638,0.000022\H,0,1.902386,2.018429,-0.000003\\Version=E
 S64L-G16RevC.01\State=1-A\HF=-1026.5990668\RMSD=5.845e-02\Dipole=0.531
 6306,-0.0572154,0.0000162\Quadrupole=-2.9197947,5.7859585,-2.8661638,2

 Normal termination of Gaussian 16 at Wed Apr  9 00:18:38 2025.
