 Gaussian 16, Revision C.01,

 ----------------------------------------------------------------------
 #t hf aug-cc-pvdz symm=none int=(grid=ultrafine) guess=(read,tcheck) s
 table=(opt,rrhf)
 ----------------------------------------------------------------------
 -----
 title
 -----
 Symbolic Z-matrix:
 Charge =  0 Multiplicity = 1

 SCF Done:  E(RHF) =  -639.451834655     A.U. after   12 cycles
 Normal termination of Gaussian 16 at Wed Apr  9 00:11:29 2025.
 Gaussian 16:  ES64L-G16RevC.01  3-Jul-2019

 ----------------------------------------------------------------------
 #t hf aug-cc-pvdz iop(5/13=1,5/36=2,99/5=2) pseudo=read geom=check gue
 ss=(read,tcheck) scf=(maxcycle=1)
 ----------------------------------------------------------------------
 -----
 title
 -----
 Structure from the checkpoint file:  "BDE49_nonexpt_2285_mol1.chk"
 Charge =  0 Multiplicity = 1

                         Standard orientation:
 ---------------------------------------------------------------------
 Center     Atomic      Atomic             Coordinates (Angstroms)
 Number     Number       Type             X           Y           Z
 ---------------------------------------------------------------------
      1          8           0       -0.277076   -0.110997    0.413520
      2          6           0       -1.662279   -0.226035    0.032523
      3          6           0       -1.786906   -1.269646   -1.085153
      4          1           0       -1.376459   -2.226326   -0.753989
      5          1           0       -1.241853   -0.951900   -1.977274
      6          6           0       -2.394459   -0.695599    1.292933
      7          1           0       -3.461278   -0.835479    1.097841
      8          1           0       -2.278275    0.039688    2.092402
      9          1           0       -1.974814   -1.642947    1.638140
     10          6           0       -2.206654    1.132544   -0.429115
     11          1           0       -1.687430    1.480570   -1.326650
     12          1           0       -2.083583    1.881251    0.357145
     13          1           0       -3.271113    1.059413   -0.668142
     14          1           0       -2.834362   -1.420022   -1.361475
     15         14           0        1.055633    0.569605   -0.291023
     16          6           0        2.534600   -0.415321    0.314430
     17          6           0        2.491070   -1.916759   -0.016272
     18          1           0        2.612615   -0.272381    1.399266
     19          1           0        3.437116    0.040857   -0.112680
     20          6           0        1.245767    2.379396    0.169140
     21          1           0        1.299124    2.505102    1.254751
     22          1           0        0.411762    2.982637   -0.198944
     23          1           0        2.166230    2.787548   -0.261624
     24          1           0        1.606731   -2.386730    0.420812
     25          1           0        3.371606   -2.440470    0.367639
     26          1           0        2.453775   -2.086643   -1.096614
     27          1           0        0.961130    0.467859   -1.775375
 ---------------------------------------------------------------------

 SCF Done:  E(RHF) =  -641.375298250     A.U. after    2 cycles

 The electronic state is 1-A.
 Alpha  occ. eigenvalues --  -76.20238 -21.01711 -11.45031 -11.39494 -11.39082
 Alpha  occ. eigenvalues --  -11.38662 -11.34880 -11.33995 -11.33558  -5.54358
 Alpha  occ. eigenvalues --   -2.21675  -2.18093  -2.16691  -1.68837  -1.20267
 Alpha  occ. eigenvalues --   -1.13692  -1.02786  -1.01058  -1.00728  -0.88013
 Alpha  occ. eigenvalues --   -0.79267  -0.67779  -0.62263  -0.61483  -0.60840
 Alpha  occ. eigenvalues --   -0.59183  -0.56262  -0.55752  -0.54989  -0.54553
 Alpha  occ. eigenvalues --   -0.53829  -0.51267  -0.48787  -0.47983  -0.46414
 Alpha  occ. eigenvalues --   -0.46149  -0.44858  -0.41814  -0.38006  -0.33480
 Alpha  occ. eigenvalues --   -0.31843
 Alpha virt. eigenvalues --    0.03923   0.04724   0.05107   0.05350   0.05457
 Alpha virt. eigenvalues --    0.05560   0.05789   0.06073   0.06544   0.07408
 Alpha virt. eigenvalues --    0.07586   0.07892   0.08405   0.08684   0.08978

 Mulliken charges:
               1
     1  O   -5.434450
     2  C    4.515137
     3  C   -4.380913
     4  H    1.357974
     5  H    1.418897
     6  C   -4.545266
     7  H    1.176032
     8  H    1.378213
     9  H    1.410291
    10  C   -4.510419
    11  H    1.274137
    12  H    1.392701
    13  H    1.124375
    14  H    1.159988
    15  Si   8.345189
    16  C   -4.206791
    17  C   -4.004662
    18  H    1.480411
    19  H    1.392692
    20  C   -5.646903
    21  H    1.317933
    22  H    1.309004
    23  H    1.324442
    24  H    1.448744
    25  H    1.070024
    26  H    1.317535
    27  H   -2.484315
 Sum of Mulliken charges =   0.00000

 Dipole moment (field-independent basis, Debye):
    X=             -0.4044    Y=             -0.0236    Z=              0.5597  Tot=              0.6909

 Test job not archived.
 1\1\GINC-SE339\SP\RHF\Aug-CC-pVDZ\C7H18O1Si1\OHZDE\09-Apr-2025\0\\#t h
 f aug-cc-pvdz iop(5/13=1,5/36=2,99/5=2) pseudo=read geom=check guess=(
 read,tcheck) scf=(maxcycle=1)\\title\\0,1\O,0,-0.277076,-0.110997,0.41
 352\C,0,-1.662279,-0.226035,0.032523\C,0,-1.786906,-1.269646,-1.085153
 \H,0,-1.376459,-2.226326,-0.753989\H,0,-1.241853,-0.9519,-1.977274\C,0
 ,-2.394459,-0.695599,1.292933\H,0,-3.461278,-0.835479,1.097841\H,0,-2.
 278275,0.039688,2.092402\H,0,-1.974814,-1.642947,1.63814\C,0,-2.206654
 ,1.132544,-0.429115\H,0,-1.68743,1.48057,-1.32665\H,0,-2.083583,1.8812

 Normal termination of Gaussian 16 at Wed Apr  9 00:11:47 2025.
