 Gaussian 16, Revision C.01,

 ----------------------------------------------------------------------
 #t hf aug-cc-pvdz symm=none int=(grid=ultrafine) guess=(read,tcheck) s
 table=(opt,rrhf)
 ----------------------------------------------------------------------
 -----
 title
 -----
 Symbolic Z-matrix:
 Charge =  0 Multiplicity = 1

 SCF Done:  E(RHF) =  -143.522273833     A.U. after   12 cycles
 Normal termination of Gaussian 16 at Wed Apr  9 00:23:45 2025.
 Gaussian 16:  ES64L-G16RevC.01  3-Jul-2019

 ----------------------------------------------------------------------
 #t hf aug-cc-pvdz iop(5/13=1,5/36=2,99/5=2) pseudo=read geom=check gue
 ss=(read,tcheck) scf=(maxcycle=1)
 ----------------------------------------------------------------------
 -----
 title
 -----
 Structure from the checkpoint file:  "BDE49_nonexpt_268_mol1.chk"
 Charge =  0 Multiplicity = 1

                         Standard orientation:
 ---------------------------------------------------------------------
 Center     Atomic      Atomic             Coordinates (Angstroms)
 Number     Number       Type             X           Y           Z
 ---------------------------------------------------------------------
      1          5           0       -1.744349   -0.611687   -0.129407
      2          6           0       -0.783101    0.542631    0.271127
      3          6           0        1.527063   -0.539554    0.177237
      4          6           0        0.622626    0.579119   -0.349230
      5          1           0       -0.737241    0.668969    1.361471
      6          1           0        1.096534    1.547145   -0.151134
      7          1           0        0.538512    0.494462   -1.438462
      8          1           0        1.105246   -1.525590   -0.043682
      9          1           0       -1.361846    1.430305   -0.058547
     10          1           0        2.522065   -0.496846   -0.273965
     11          1           0        1.650982   -0.468173    1.262715
     12          1           0       -2.746610   -0.801716    0.492784
     13          1           0       -1.545428   -1.283291   -1.098947
 ---------------------------------------------------------------------

 SCF Done:  E(RHF) =  -144.279406882     A.U. after    2 cycles

 The electronic state is 1-A.
 Alpha  occ. eigenvalues --  -11.40459 -11.36445 -11.33062  -7.60082  -1.21606
 Alpha  occ. eigenvalues --   -1.02652  -0.86752  -0.75681  -0.61627  -0.60290
 Alpha  occ. eigenvalues --   -0.54939  -0.50340  -0.48155  -0.45544  -0.41955
 Alpha  occ. eigenvalues --   -0.40260
 Alpha virt. eigenvalues --    0.03618   0.03889   0.03984   0.04315   0.06346
 Alpha virt. eigenvalues --    0.06524   0.07180   0.07378   0.08276   0.09584
 Alpha virt. eigenvalues --    0.10894   0.12018   0.12893   0.13227   0.14189

 Mulliken charges:
               1
     1  B    7.634726
     2  C   -3.597544
     3  C   -3.565970
     4  C   -3.299495
     5  H    1.570889
     6  H    1.304245
     7  H    1.321711
     8  H    1.240804
     9  H    1.520537
    10  H    1.165360
    11  H    1.304222
    12  H   -3.562171
    13  H   -3.037313
 Sum of Mulliken charges =  -0.00000

 Dipole moment (field-independent basis, Debye):
    X=              0.4336    Y=              0.6191    Z=              0.1103  Tot=              0.7639

 Test job not archived.
 1\1\GINC-SE457\SP\RHF\Aug-CC-pVDZ\C3H9B1\OHZDE\09-Apr-2025\0\\#t hf au
 g-cc-pvdz iop(5/13=1,5/36=2,99/5=2) pseudo=read geom=check guess=(read
 ,tcheck) scf=(maxcycle=1)\\title\\0,1\B,0,-1.744349,-0.611687,-0.12940
 7\C,0,-0.783101,0.542631,0.271127\C,0,1.527063,-0.539554,0.177237\C,0,
 0.622626,0.579119,-0.34923\H,0,-0.737241,0.668969,1.361471\H,0,1.09653
 4,1.547145,-0.151134\H,0,0.538512,0.494462,-1.438462\H,0,1.105246,-1.5
 2559,-0.043682\H,0,-1.361846,1.430305,-0.058547\H,0,2.522065,-0.496846
 ,-0.273965\H,0,1.650982,-0.468173,1.262715\H,0,-2.74661,-0.801716,0.49

 Normal termination of Gaussian 16 at Wed Apr  9 00:23:48 2025.
