 Gaussian 16, Revision C.01,

 ----------------------------------------------------------------------
 #t hf aug-cc-pvdz symm=none int=(grid=ultrafine) guess=(read,tcheck) s
 table=(opt,rrhf)
 ----------------------------------------------------------------------
 -----
 title
 -----
 Symbolic Z-matrix:
 Charge =  0 Multiplicity = 1

 SCF Done:  E(RHF) =  -772.178800969     A.U. after   14 cycles
 Normal termination of Gaussian 16 at Wed Apr  9 00:11:05 2025.
 Gaussian 16:  ES64L-G16RevC.01  3-Jul-2019

 ----------------------------------------------------------------------
 #t hf aug-cc-pvdz iop(5/13=1,5/36=2,99/5=2) pseudo=read geom=check gue
 ss=(read,tcheck) scf=(maxcycle=1)
 ----------------------------------------------------------------------
 -----
 title
 -----
 Structure from the checkpoint file:  "BDE49_nonexpt_2343_mol1.chk"
 Charge =  0 Multiplicity = 1

                         Standard orientation:
 ---------------------------------------------------------------------
 Center     Atomic      Atomic             Coordinates (Angstroms)
 Number     Number       Type             X           Y           Z
 ---------------------------------------------------------------------
      1         14           0        2.219975   -0.708238   -0.088378
      2         14           0        0.806543    1.177488   -0.172619
      3          6           0       -1.559537   -0.355575    0.180060
      4          8           0       -1.085060   -1.466987    0.292773
      5          1           0        2.311619   -1.217386    1.299997
      6          1           0        1.748721   -1.781838   -0.989460
      7          1           0        3.579247   -0.294104   -0.522130
      8          6           0       -0.843203    0.857648    0.735538
      9          1           0       -0.581485    0.650911    1.778038
     10          1           0       -1.462248    1.757919    0.705614
     11          1           0        0.514639    1.548972   -1.581698
     12          1           0        1.454021    2.346302    0.475025
     13          6           0       -2.873411   -0.118822   -0.537040
     14          1           0       -3.238077   -1.053257   -0.961085
     15          1           0       -2.747292    0.627544   -1.327817
     16          1           0       -3.613015    0.281836    0.163945
 ---------------------------------------------------------------------

 SCF Done:  E(RHF) =  -773.392010524     A.U. after    2 cycles

 The electronic state is 1-A.
 Alpha  occ. eigenvalues --  -76.21996 -76.21004 -21.04986 -11.49763 -11.39406
 Alpha  occ. eigenvalues --  -11.37676  -5.55529  -5.54372  -2.19078  -2.17733
 Alpha  occ. eigenvalues --   -2.17242  -2.16484  -2.16407  -2.15445  -1.70855
 Alpha  occ. eigenvalues --   -1.15882  -1.04158  -0.80473  -0.75254  -0.70170
 Alpha  occ. eigenvalues --   -0.62978  -0.61818  -0.59758  -0.53900  -0.48500
 Alpha  occ. eigenvalues --   -0.47925  -0.47211  -0.45992  -0.45504  -0.38063
 Alpha  occ. eigenvalues --   -0.34494  -0.28830
 Alpha virt. eigenvalues --    0.03205   0.04721   0.05167   0.05540   0.05723
 Alpha virt. eigenvalues --    0.06234   0.06737   0.07094   0.08201   0.08659
 Alpha virt. eigenvalues --    0.09272   0.09677   0.10054   0.10330   0.10496

 Mulliken charges:
               1
     1  Si   4.857647
     2  Si   4.308424
     3  C    4.055008
     4  O   -3.202755
     5  H   -1.591224
     6  H   -1.551534
     7  H   -1.639497
     8  C   -4.348139
     9  H    1.536662
    10  H    1.619472
    11  H   -1.840168
    12  H   -1.794114
    13  C   -4.254341
    14  H    1.285111
    15  H    1.318527
    16  H    1.240921
 Sum of Mulliken charges =   0.00000

 Dipole moment (field-independent basis, Debye):
    X=             -1.2787    Y=              0.8848    Z=              0.2428  Tot=              1.5738

 Test job not archived.
 1\1\GINC-SE102\SP\RHF\Aug-CC-pVDZ\C3H10O1Si2\OHZDE\09-Apr-2025\0\\#t h
 f aug-cc-pvdz iop(5/13=1,5/36=2,99/5=2) pseudo=read geom=check guess=(
 read,tcheck) scf=(maxcycle=1)\\title\\0,1\Si,0,2.219975,-0.708238,-0.0
 88378\Si,0,0.806543,1.177488,-0.172619\C,0,-1.559537,-0.355575,0.18006
 \O,0,-1.08506,-1.466987,0.292773\H,0,2.311619,-1.217386,1.299997\H,0,1
 .748721,-1.781838,-0.98946\H,0,3.579247,-0.294104,-0.52213\C,0,-0.8432
 03,0.857648,0.735538\H,0,-0.581485,0.650911,1.778038\H,0,-1.462248,1.7
 57919,0.705614\H,0,0.514639,1.548972,-1.581698\H,0,1.454021,2.346302,0

 Normal termination of Gaussian 16 at Wed Apr  9 00:11:10 2025.
