 Gaussian 16, Revision C.01,

 ----------------------------------------------------------------------
 #t hf aug-cc-pvdz symm=none int=(grid=ultrafine) guess=(read,tcheck) s
 table=(opt,rrhf)
 ----------------------------------------------------------------------
 -----
 title
 -----
 Symbolic Z-matrix:
 Charge =  0 Multiplicity = 1

 SCF Done:  E(RHF) =  -535.978074018     A.U. after   13 cycles
 Normal termination of Gaussian 16 at Wed Apr  9 00:06:43 2025.
 Gaussian 16:  ES64L-G16RevC.01  3-Jul-2019

 ----------------------------------------------------------------------
 #t hf aug-cc-pvdz iop(5/13=1,5/36=2,99/5=2) pseudo=read geom=check gue
 ss=(read,tcheck) scf=(maxcycle=1)
 ----------------------------------------------------------------------
 -----
 title
 -----
 Structure from the checkpoint file:  "BDE49_nonexpt_2235_mol1.chk"
 Charge =  0 Multiplicity = 1

                         Standard orientation:
 ---------------------------------------------------------------------
 Center     Atomic      Atomic             Coordinates (Angstroms)
 Number     Number       Type             X           Y           Z
 ---------------------------------------------------------------------
      1         14           0       -1.446653   -0.362857    0.160401
      2          8           0       -0.056644   -1.012055   -0.501066
      3          6           0        1.215679   -1.067159    0.096024
      4          6           0        1.922998    0.225902    0.052869
      5          1           0        1.815238   -1.803271   -0.445868
      6          1           0        1.162094   -1.388349    1.144786
      7          7           0        2.459908    1.245197    0.026262
      8          6           0       -1.580478    1.478177   -0.105532
      9          1           0       -0.750693    2.015593    0.360442
     10          1           0       -2.513626    1.847897    0.332594
     11          1           0       -1.587510    1.722040   -1.171152
     12          1           0       -1.442466   -0.674307    1.613680
     13          1           0       -2.545283   -1.081058   -0.515564
 ---------------------------------------------------------------------

 SCF Done:  E(RHF) =  -537.248730567     A.U. after    2 cycles

 The electronic state is 1-A.
 Alpha  occ. eigenvalues --  -76.24035 -21.06913 -15.77132 -11.49946 -11.43431
 Alpha  occ. eigenvalues --  -11.35550  -5.57828  -2.24496  -2.20534  -2.19616
 Alpha  occ. eigenvalues --   -1.73399  -1.31375  -1.07498  -1.04121  -0.75151
 Alpha  occ. eigenvalues --   -0.72302  -0.67145  -0.58827  -0.56995  -0.56165
 Alpha  occ. eigenvalues --   -0.53214  -0.48816  -0.45919  -0.45074  -0.44118
 Alpha  occ. eigenvalues --   -0.38392  -0.36473
 Alpha virt. eigenvalues --    0.03041   0.04562   0.05084   0.05824   0.06162
 Alpha virt. eigenvalues --    0.07072   0.07345   0.08173   0.08896   0.09653
 Alpha virt. eigenvalues --    0.10752   0.11892   0.13045   0.13618   0.13823

 Mulliken charges:
               1
     1  Si   6.522061
     2  O   -3.156037
     3  C   -1.210037
     4  C    2.033431
     5  H    1.318460
     6  H    1.573998
     7  N   -2.236561
     8  C   -5.008743
     9  H    1.331065
    10  H    1.257313
    11  H    1.295191
    12  H   -1.792681
    13  H   -1.927460
 Sum of Mulliken charges =  -0.00000

 Dipole moment (field-independent basis, Debye):
    X=             -1.4533    Y=             -1.9884    Z=             -0.0482  Tot=              2.4634

 Test job not archived.
 1\1\GINC-SE332\SP\RHF\Aug-CC-pVDZ\C3H7N1O1Si1\OHZDE\09-Apr-2025\0\\#t
 hf aug-cc-pvdz iop(5/13=1,5/36=2,99/5=2) pseudo=read geom=check guess=
 (read,tcheck) scf=(maxcycle=1)\\title\\0,1\Si,0,-1.446653,-0.362857,0.
 160401\O,0,-0.056644,-1.012055,-0.501066\C,0,1.215679,-1.067159,0.0960
 24\C,0,1.922998,0.225902,0.052869\H,0,1.815238,-1.803271,-0.445868\H,0
 ,1.162094,-1.388349,1.144786\N,0,2.459908,1.245197,0.026262\C,0,-1.580
 478,1.478177,-0.105532\H,0,-0.750693,2.015593,0.360442\H,0,-2.513626,1
 .847897,0.332594\H,0,-1.58751,1.72204,-1.171152\H,0,-1.442466,-0.67430

 Normal termination of Gaussian 16 at Wed Apr  9 00:06:46 2025.
