 Gaussian 16, Revision C.01,

 ----------------------------------------------------------------------
 #t hf aug-cc-pvdz symm=none int=(grid=ultrafine) guess=(read,tcheck) s
 table=(opt,rrhf)
 ----------------------------------------------------------------------
 -----
 title
 -----
 Symbolic Z-matrix:
 Charge =  0 Multiplicity = 1

 SCF Done:  E(RHF) =  -1219.12797380     A.U. after   12 cycles
 Normal termination of Gaussian 16 at Wed Apr  9 00:49:58 2025.
 Gaussian 16:  ES64L-G16RevC.01  3-Jul-2019

 ----------------------------------------------------------------------
 #t hf aug-cc-pvdz iop(5/13=1,5/36=2,99/5=2) pseudo=read geom=check gue
 ss=(read,tcheck) scf=(maxcycle=1)
 ----------------------------------------------------------------------
 -----
 title
 -----
 Structure from the checkpoint file:  "BDE49_nonexpt_900_mol1.chk"
 Charge =  0 Multiplicity = 1

                         Standard orientation:
 ---------------------------------------------------------------------
 Center     Atomic      Atomic             Coordinates (Angstroms)
 Number     Number       Type             X           Y           Z
 ---------------------------------------------------------------------
      1         16           0       -1.177075   -1.388848   -0.000006
      2          5           0        0.009160   -0.010418   -0.000045
      3         16           0       -0.629001    1.695773    0.000010
      4         16           0        1.823968   -0.146940    0.000006
      5          1           0       -1.938375    1.390902    0.000026
      6          1           0       -0.305803   -2.411809    0.000015
      7          1           0        1.912123   -1.486777    0.000028
 ---------------------------------------------------------------------

 SCF Done:  E(RHF) =  -1219.92277866     A.U. after    2 cycles

 The electronic state is 1-A.
 Alpha  occ. eigenvalues --  -75.70772 -75.70516 -75.70137 -13.18032 -13.17503
 Alpha  occ. eigenvalues --  -13.15105 -13.11395 -13.10574 -13.07665 -13.04961
 Alpha  occ. eigenvalues --  -13.03735 -13.03606  -8.04792  -8.04595  -8.03869
 Alpha  occ. eigenvalues --   -7.68959  -1.25137  -1.11020  -1.10644  -0.68462
 Alpha  occ. eigenvalues --   -0.57249  -0.50366  -0.47446  -0.38770  -0.37126
 Alpha  occ. eigenvalues --   -0.33054  -0.26334  -0.25446
 Alpha virt. eigenvalues --    0.01407   0.02089   0.02746   0.02942   0.07963
 Alpha virt. eigenvalues --    0.09029   0.09687   0.10228   0.10993   0.12287
 Alpha virt. eigenvalues --    0.14703   0.15466   0.15657   0.16217   0.16706

 Mulliken charges:
               1
     1  S   -2.313552
     2  B    4.056086
     3  S   -2.266217
     4  S   -2.228545
     5  H    0.920500
     6  H    0.922598
     7  H    0.909130
 Sum of Mulliken charges =  -0.00000

 Dipole moment (field-independent basis, Debye):
    X=              0.2756    Y=              2.1022    Z=              0.0003  Tot=              2.1201

 Test job not archived.
 1\1\GINC-SE461\SP\RHF\Aug-CC-pVDZ\B1H3S3\OHZDE\09-Apr-2025\0\\#t hf au
 g-cc-pvdz iop(5/13=1,5/36=2,99/5=2) pseudo=read geom=check guess=(read
 ,tcheck) scf=(maxcycle=1)\\title\\0,1\S,0,1.177083,1.388841,-0.000006\
 B,0,-0.00916,0.010418,-0.000045\S,0,0.628992,-1.695777,0.00001\S,0,-1.
 823967,0.14695,0.000006\H,0,1.938367,-1.390913,0.000026\H,0,0.305816,2
 .411807,0.000015\H,0,-1.912115,1.486787,0.000028\\Version=ES64L-G16Rev
 C.01\State=1-A\HF=-1219.9227787\RMSD=1.143e-01\Dipole=-0.1084292,-0.82
 70532,0.0001001\Quadrupole=3.0945352,2.8374726,-5.9320078,0.7820709,-0

 Normal termination of Gaussian 16 at Wed Apr  9 00:50:00 2025.
