 Gaussian 16, Revision C.01,

 ----------------------------------------------------------------------
 #t hf aug-cc-pvdz symm=none int=(grid=ultrafine) guess=(read,tcheck) s
 table=(opt,rrhf)
 ----------------------------------------------------------------------
 -----
 title
 -----
 Symbolic Z-matrix:
 Charge =  0 Multiplicity = 1

 SCF Done:  E(RHF) =  -621.003231512     A.U. after   15 cycles
 Normal termination of Gaussian 16 at Wed Apr  9 00:49:10 2025.
 Gaussian 16:  ES64L-G16RevC.01  3-Jul-2019

 ----------------------------------------------------------------------
 #t hf aug-cc-pvdz iop(5/13=1,5/36=2,99/5=2) pseudo=read geom=check gue
 ss=(read,tcheck) scf=(maxcycle=1)
 ----------------------------------------------------------------------
 -----
 title
 -----
 Structure from the checkpoint file:  "BDE49_nonexpt_838_mol1.chk"
 Charge =  0 Multiplicity = 1

                         Standard orientation:
 ---------------------------------------------------------------------
 Center     Atomic      Atomic             Coordinates (Angstroms)
 Number     Number       Type             X           Y           Z
 ---------------------------------------------------------------------
      1          6           0       -2.890812    0.662637   -0.077557
      2          6           0       -1.810023    1.491888    0.214049
      3          6           0       -0.523584    0.962395    0.296372
      4          6           0       -2.679638   -0.698171   -0.290490
      5          6           0       -1.392686   -1.224709   -0.207075
      6          6           0       -0.290248   -0.407760    0.092281
      7          1           0       -3.891811    1.074902   -0.142952
      8          1           0       -1.967777    2.553142    0.373784
      9          1           0        0.309173    1.624396    0.505776
     10          1           0       -3.516167   -1.348287   -0.523141
     11          1           0       -1.245737   -2.286272   -0.380756
     12          5           0        2.969882    0.102517   -0.241818
     13          8           0        2.758603    1.441632   -0.270977
     14          1           0        3.544816    1.956101   -0.485726
     15         14           0        1.437592   -1.145619    0.236618
     16          1           0        4.071129   -0.320285   -0.471061
     17          1           0        1.678036   -1.611262    1.633634
     18          1           0        1.495776   -2.367100   -0.610780
 ---------------------------------------------------------------------

 SCF Done:  E(RHF) =  -622.693749851     A.U. after    2 cycles

 The electronic state is 1-A.
 Alpha  occ. eigenvalues --  -76.19266 -21.07880 -11.50352 -11.42011 -11.41740
 Alpha  occ. eigenvalues --  -11.39868 -11.39513 -11.35294  -7.63048  -5.53026
 Alpha  occ. eigenvalues --   -2.17949  -2.16512  -2.15034  -1.74859  -1.32816
 Alpha  occ. eigenvalues --   -1.08262  -1.08242  -0.86216  -0.85365  -0.81070
 Alpha  occ. eigenvalues --   -0.72130  -0.67961  -0.63412  -0.62485  -0.57438
 Alpha  occ. eigenvalues --   -0.55834  -0.52176  -0.50032  -0.46358  -0.44374
 Alpha  occ. eigenvalues --   -0.43846  -0.43387  -0.39510  -0.34779  -0.32288
 Alpha  occ. eigenvalues --   -0.32237
 Alpha virt. eigenvalues --    0.02929   0.03654   0.04199   0.04742   0.05632
 Alpha virt. eigenvalues --    0.05944   0.06824   0.07379   0.08255   0.08719
 Alpha virt. eigenvalues --    0.09154   0.09455   0.09947   0.10665   0.11401

 Mulliken charges:
               1
     1  C   -2.096225
     2  C   -1.061216
     3  C   -1.768548
     4  C   -0.697765
     5  C   -3.169162
     6  C    0.065544
     7  H    1.523704
     8  H    1.548328
     9  H    1.903726
    10  H    1.537250
    11  H    1.791190
    12  B    3.760580
    13  O   -3.563924
    14  H    1.316421
    15  Si   5.397101
    16  H   -2.641156
    17  H   -2.047384
    18  H   -1.798464
 Sum of Mulliken charges =   0.00000

 Dipole moment (field-independent basis, Debye):
    X=              0.1947    Y=              2.0291    Z=             -0.5746  Tot=              2.1179

 Test job not archived.
 1\1\GINC-SE103\SP\RHF\Aug-CC-pVDZ\C6H9B1O1Si1\OHZDE\09-Apr-2025\0\\#t
 hf aug-cc-pvdz iop(5/13=1,5/36=2,99/5=2) pseudo=read geom=check guess=
 (read,tcheck) scf=(maxcycle=1)\\title\\0,1\C,0,-2.890812,0.662637,-0.0
 77557\C,0,-1.810023,1.491888,0.214049\C,0,-0.523584,0.962395,0.296372\
 C,0,-2.679638,-0.698171,-0.29049\C,0,-1.392686,-1.224709,-0.207075\C,0
 ,-0.290248,-0.40776,0.092281\H,0,-3.891811,1.074902,-0.142952\H,0,-1.9
 67777,2.553142,0.373784\H,0,0.309173,1.624396,0.505776\H,0,-3.516167,-
 1.348287,-0.523141\H,0,-1.245737,-2.286272,-0.380756\B,0,2.969882,0.10

 Normal termination of Gaussian 16 at Wed Apr  9 00:49:19 2025.
