 Gaussian 16, Revision C.01,

 ----------------------------------------------------------------------
 #t hf aug-cc-pvdz symm=none int=(grid=ultrafine) guess=(read,tcheck) s
 table=(opt,rrhf)
 ----------------------------------------------------------------------
 -----
 title
 -----
 Symbolic Z-matrix:
 Charge =  0 Multiplicity = 1

 SCF Done:  E(RHF) =  -901.192677068     A.U. after   15 cycles
 Normal termination of Gaussian 16 at Tue Apr  8 23:44:50 2025.
 Gaussian 16:  ES64L-G16RevC.01  3-Jul-2019

 ----------------------------------------------------------------------
 #t hf aug-cc-pvdz iop(5/13=1,5/36=2,99/5=2) pseudo=read geom=check gue
 ss=(read,tcheck) scf=(maxcycle=1)
 ----------------------------------------------------------------------
 -----
 title
 -----
 Structure from the checkpoint file:  "BDE49_nonexpt_1687_mol1.chk"
 Charge =  0 Multiplicity = 1

                         Standard orientation:
 ---------------------------------------------------------------------
 Center     Atomic      Atomic             Coordinates (Angstroms)
 Number     Number       Type             X           Y           Z
 ---------------------------------------------------------------------
      1         14           0        2.449307    0.038707   -0.508264
      2         15           0        1.067107   -1.267265    0.759325
      3          6           0       -0.559883   -0.500450    0.333465
      4          6           0       -1.236875   -0.963522   -0.804470
      5          6           0       -1.174988    0.482744    1.121245
      6          6           0       -2.426291    0.989527    0.777577
      7          6           0       -3.081459    0.531754   -0.363620
      8          6           0       -2.480869   -0.445494   -1.154681
      9          1           0       -4.053848    0.929201   -0.631137
     10          1           0       -2.985483   -0.813985   -2.040976
     11          1           0       -0.790964   -1.740076   -1.417632
     12          1           0       -0.675703    0.853422    2.009455
     13          1           0       -2.887832    1.746344    1.402458
     14          6           0        2.181641    1.892427   -0.342132
     15          1           0        1.150099    2.160130   -0.582661
     16          1           0        2.843796    2.434844   -1.023662
     17          1           0        2.393652    2.229246    0.675998
     18          1           0        1.302806   -0.551100    1.961326
     19          1           0        2.242115   -0.384486   -1.915349
     20          1           0        3.836805   -0.318378   -0.116312
 ---------------------------------------------------------------------

 SCF Done:  E(RHF) =  -902.876883239     A.U. after    2 cycles

 The electronic state is 1-A.
 Alpha  occ. eigenvalues -- -105.16934 -76.21655 -11.51683 -11.43454 -11.43353
 Alpha  occ. eigenvalues --  -11.41108 -11.40729 -11.36514 -11.35306  -5.55214
 Alpha  occ. eigenvalues --   -2.74287  -2.18575  -2.17243  -2.17002  -1.50033
 Alpha  occ. eigenvalues --   -1.44839  -1.42086  -1.32691  -1.09368  -1.07887
 Alpha  occ. eigenvalues --   -1.03889  -0.86474  -0.85117  -0.76389  -0.70694
 Alpha  occ. eigenvalues --   -0.65939  -0.62122  -0.58470  -0.56787  -0.56452
 Alpha  occ. eigenvalues --   -0.55817  -0.50794  -0.49338  -0.46546  -0.44959
 Alpha  occ. eigenvalues --   -0.42475  -0.34357  -0.33363  -0.24891  -0.14425
 Alpha  occ. eigenvalues --   -0.02545
 Alpha virt. eigenvalues --    0.03291   0.04969   0.05130   0.05263   0.05931
 Alpha virt. eigenvalues --    0.06281   0.06960   0.07055   0.07579   0.08259
 Alpha virt. eigenvalues --    0.08578   0.09042   0.10195   0.10660   0.10899

 Mulliken charges:
               1
     1  Si   5.438799
     2  P    0.653587
     3  C    3.908433
     4  C   -4.526214
     5  C   -3.877020
     6  C   -0.481154
     7  C   -2.290752
     8  C   -0.881568
     9  H    1.487109
    10  H    1.571171
    11  H    1.896516
    12  H    1.973549
    13  H    1.524457
    14  C   -5.068858
    15  H    1.503723
    16  H    1.219474
    17  H    1.214887
    18  H   -1.441531
    19  H   -1.861745
    20  H   -1.962864
 Sum of Mulliken charges =   0.00000

 Dipole moment (field-independent basis, Debye):
    X=             -3.0801    Y=             -3.8481    Z=              1.4611  Tot=              5.1410

 Test job not archived.
 1\1\GINC-SE249\SP\RHF\Aug-CC-pVDZ\C7H11P1Si1\OHZDE\08-Apr-2025\0\\#t h
 f aug-cc-pvdz iop(5/13=1,5/36=2,99/5=2) pseudo=read geom=check guess=(
 read,tcheck) scf=(maxcycle=1)\\title\\0,1\Si,0,2.449307,0.038707,-0.50
 8264\P,0,1.067107,-1.267265,0.759325\C,0,-0.559883,-0.50045,0.333465\C
 ,0,-1.236875,-0.963522,-0.80447\C,0,-1.174988,0.482744,1.121245\C,0,-2
 .426291,0.989527,0.777577\C,0,-3.081459,0.531754,-0.36362\C,0,-2.48086
 9,-0.445494,-1.154681\H,0,-4.053848,0.929201,-0.631137\H,0,-2.985483,-
 0.813985,-2.040976\H,0,-0.790964,-1.740076,-1.417632\H,0,-0.675703,0.8

 Normal termination of Gaussian 16 at Tue Apr  8 23:45:02 2025.
