 Gaussian 16, Revision C.01,

 ----------------------------------------------------------------------
 #t hf aug-cc-pvdz symm=none int=(grid=ultrafine) guess=(read,tcheck) s
 table=opt
 ----------------------------------------------------------------------
 -----
 title
 -----
 Symbolic Z-matrix:
 Charge =  0 Multiplicity = 2

 SCF Done:  E(UHF) =  -664.917702143     A.U. after   22 cycles
 Normal termination of Gaussian 16 at Wed Apr  9 00:20:09 2025.
 Gaussian 16:  ES64L-G16RevC.01  3-Jul-2019

 ----------------------------------------------------------------------
 #t hf aug-cc-pvdz iop(5/13=1,5/36=2,99/5=2) pseudo=read geom=check gue
 ss=(read,tcheck) scf=(maxcycle=1)
 ----------------------------------------------------------------------
 -----
 title
 -----
 Structure from the checkpoint file:  "BDE49_nonexpt_2586_mol2.chk"
 Charge =  0 Multiplicity = 2

                         Standard orientation:
 ---------------------------------------------------------------------
 Center     Atomic      Atomic             Coordinates (Angstroms)
 Number     Number       Type             X           Y           Z
 ---------------------------------------------------------------------
      1         16           0       -1.484368   -1.098722   -0.100664
      2          6           0        0.013269   -0.195040    0.483801
      3          8           0       -0.196223    1.157259    0.721907
      4          8           0        0.967306   -0.457151   -0.506185
      5          6           0       -0.491920    1.970378   -0.421276
      6          1           0       -0.660570    2.972940   -0.032235
      7          1           0       -1.389408    1.613394   -0.932126
      8          1           0        0.344366    1.978349   -1.123546
      9          6           0        2.311239   -0.509332   -0.019390
     10          1           0        2.949487   -0.645209   -0.891121
     11          1           0        2.448228   -1.354695    0.664180
     12          1           0        2.579280    0.421695    0.489757
     13          1           0        0.314313   -0.603814    1.451130
 ---------------------------------------------------------------------

 SCF Done:  E(UHF) =  -666.309947033     A.U. after    2 cycles

 The electronic state is 2-A.
 Alpha  occ. eigenvalues --  -75.70357 -21.06826 -21.06285 -13.13744 -13.06123
 Alpha  occ. eigenvalues --  -13.04684 -11.47716 -11.41844 -11.40345  -8.03993
 Alpha  occ. eigenvalues --   -1.83454  -1.70731  -1.14746  -1.01858  -0.99324
 Alpha  occ. eigenvalues --   -0.84145  -0.68507  -0.64127  -0.62615  -0.60406
 Alpha  occ. eigenvalues --   -0.59458  -0.53655  -0.49090  -0.45394  -0.38481
 Alpha  occ. eigenvalues --   -0.32632  -0.29760  -0.27896  -0.25122
 Alpha virt. eigenvalues --    0.03299   0.05062   0.05480   0.05849   0.06135
 Alpha virt. eigenvalues --    0.06439   0.07074   0.08430   0.10987   0.11944
 Alpha virt. eigenvalues --    0.13894   0.14888   0.15326   0.15685   0.15880

  Beta  occ. eigenvalues --  -75.69358 -21.06684 -21.06260 -13.13021 -13.04243
  Beta  occ. eigenvalues --  -13.00076 -11.47848 -11.41836 -11.40350  -8.02874
  Beta  occ. eigenvalues --   -1.83315  -1.70581  -1.10026  -0.99618  -0.98129
  Beta  occ. eigenvalues --   -0.82731  -0.68357  -0.63729  -0.62225  -0.60341
  Beta  occ. eigenvalues --   -0.59223  -0.53563  -0.48568  -0.45066  -0.38135
  Beta  occ. eigenvalues --   -0.31101  -0.29079  -0.23631
  Beta virt. eigenvalues --    0.03286   0.04587   0.05098   0.05504   0.05884
  Beta virt. eigenvalues --    0.06380   0.06450   0.07150   0.08556   0.11153
  Beta virt. eigenvalues --    0.13058   0.14136   0.15114   0.15723   0.15960

 Mulliken charges and spin densities:
               1          2
     1  S    0.476175   1.139025
     2  C    1.037018   0.007430
     3  O   -2.987559   0.006575
     4  O   -2.582670  -0.113957
     5  C   -2.996507   0.007878
     6  H    1.220213   0.000982
     7  H    1.526531  -0.025917
     8  H    1.305846   0.002599
     9  C   -2.795929  -0.027196
    10  H    1.336235  -0.001690
    11  H    1.306756  -0.001588
    12  H    1.306759   0.001126
    13  H    1.847133   0.004733
 Sum of Mulliken charges =  -0.00000   1.00000

 Dipole moment (field-independent basis, Debye):
    X=              0.6120    Y=             -0.0310    Z=             -0.2431  Tot=              0.6593
                          Isotropic Fermi Contact Couplings
        Atom                 a.u.       MegaHertz       Gauss      10(-4) cm-1
     1  S(33)              0.27587      94.75478      33.81086      31.60679
     2  C(13)             -0.01418     -15.94362      -5.68908      -5.31822
     3  O(17)              0.00060      -0.36427      -0.12998      -0.12151
     4  O(17)              0.04891     -29.65161     -10.58043      -9.89071
     5  C(13)             -0.00112      -1.26244      -0.45047      -0.42110
     6  H(1)               0.00007       0.31822       0.11355       0.10615
     7  H(1)               0.00012       0.55525       0.19813       0.18521
     8  H(1)              -0.00001      -0.05103      -0.01821      -0.01702

 Normal termination of Gaussian 16 at Wed Apr  9 00:20:13 2025.
