 Gaussian 16, Revision C.01,

 ----------------------------------------------------------------------
 #t hf aug-cc-pvdz symm=none int=(grid=ultrafine) guess=(read,tcheck) s
 table=(opt,rrhf)
 ----------------------------------------------------------------------
 -----
 title
 -----
 Symbolic Z-matrix:
 Charge =  0 Multiplicity = 1

 SCF Done:  E(RHF) =  -530.161729055     A.U. after   12 cycles
 Normal termination of Gaussian 16 at Wed Apr  9 00:34:48 2025.
 Gaussian 16:  ES64L-G16RevC.01  3-Jul-2019

 ----------------------------------------------------------------------
 #t hf aug-cc-pvdz iop(5/13=1,5/36=2,99/5=2) pseudo=read geom=check gue
 ss=(read,tcheck) scf=(maxcycle=1)
 ----------------------------------------------------------------------
 -----
 title
 -----
 Structure from the checkpoint file:  "BDE49_nonexpt_416_mol1.chk"
 Charge =  0 Multiplicity = 1

                         Standard orientation:
 ---------------------------------------------------------------------
 Center     Atomic      Atomic             Coordinates (Angstroms)
 Number     Number       Type             X           Y           Z
 ---------------------------------------------------------------------
      1          9           0        1.663972   -1.359157   -0.938736
      2          5           0        1.308715   -0.348524   -0.167475
      3          9           0        2.282390    0.432226    0.280768
      4          6           0       -0.197312   -0.116607    0.302624
      5          8           0       -1.015443   -0.636380   -0.735814
      6          8           0       -0.495527    1.246567    0.574886
      7          6           0       -2.418217   -0.671276   -0.480073
      8          1           0       -2.896430   -0.854765   -1.442068
      9          1           0       -2.775170    0.279146   -0.072683
     10          1           0       -2.685731   -1.482877    0.205476
     11          6           0       -0.271922    2.143401   -0.509954
     12          1           0       -0.647291    3.114952   -0.190000
     13          1           0       -0.806947    1.823683   -1.409061
     14          1           0        0.797237    2.237834   -0.737112
     15          6           0       -0.387819   -0.838079    1.646146
     16          1           0       -0.292470   -1.918537    1.518646
     17          1           0       -1.372789   -0.606994    2.055938
     18          1           0        0.358138   -0.493574    2.364920
 ---------------------------------------------------------------------

 SCF Done:  E(RHF) =  -532.354043026     A.U. after    2 cycles

 The electronic state is 1-A.
 Alpha  occ. eigenvalues --  -29.25848 -29.25597 -21.05284 -21.05121 -11.47494
 Alpha  occ. eigenvalues --  -11.41243 -11.40682 -11.38103  -7.70301  -1.82151
 Alpha  occ. eigenvalues --   -1.69492  -1.20096  -1.08653  -1.00613  -0.97964
 Alpha  occ. eigenvalues --   -0.81827  -0.75321  -0.68717  -0.65203  -0.62514
 Alpha  occ. eigenvalues --   -0.61683  -0.59190  -0.56999  -0.56096  -0.51674
 Alpha  occ. eigenvalues --   -0.50397  -0.47370  -0.46561  -0.45664  -0.43717
 Alpha  occ. eigenvalues --   -0.38458  -0.34305  -0.32849  -0.32093  -0.29753
 Alpha  occ. eigenvalues --   -0.24262
 Alpha virt. eigenvalues --    0.03575   0.04274   0.05009   0.05328   0.05634
 Alpha virt. eigenvalues --    0.05927   0.05983   0.06447   0.07555   0.08951
 Alpha virt. eigenvalues --    0.09471   0.09660   0.09803   0.11476   0.13745

 Mulliken charges:
               1
     1  F   -0.615476
     2  B    1.945364
     3  F   -0.334313
     4  C    6.173792
     5  O   -3.700159
     6  O   -3.805807
     7  C   -3.334629
     8  H    1.311129
     9  H    1.401318
    10  H    1.535475
    11  C   -3.435223
    12  H    1.299669
    13  H    1.421340
    14  H    1.480579
    15  C   -4.988749
    16  H    1.161914
    17  H    1.267295
    18  H    1.216481
 Sum of Mulliken charges =  -0.00000

 Dipole moment (field-independent basis, Debye):
    X=              1.6263    Y=             -0.3472    Z=             -0.4431  Tot=              1.7209

 Test job not archived.
 1\1\GINC-SE126\SP\RHF\Aug-CC-pVDZ\C4H9B1F2O2\OHZDE\09-Apr-2025\0\\#t h
 f aug-cc-pvdz iop(5/13=1,5/36=2,99/5=2) pseudo=read geom=check guess=(
 read,tcheck) scf=(maxcycle=1)\\title\\0,1\F,0,1.663972,-1.359157,-0.93
 8736\B,0,1.308715,-0.348524,-0.167475\F,0,2.28239,0.432226,0.280768\C,
 0,-0.197312,-0.116607,0.302624\O,0,-1.015443,-0.63638,-0.735814\O,0,-0
 .495527,1.246567,0.574886\C,0,-2.418217,-0.671276,-0.480073\H,0,-2.896
 43,-0.854765,-1.442068\H,0,-2.77517,0.279146,-0.072683\H,0,-2.685731,-
 1.482877,0.205476\C,0,-0.271922,2.143401,-0.509954\H,0,-0.647291,3.114

 Normal termination of Gaussian 16 at Wed Apr  9 00:34:56 2025.
