 Gaussian 16, Revision C.01,

 ----------------------------------------------------------------------
 #t hf aug-cc-pvdz symm=none int=(grid=ultrafine) guess=(read,tcheck) s
 table=opt
 ----------------------------------------------------------------------
 -----
 title
 -----
 Symbolic Z-matrix:
 Charge =  0 Multiplicity = 2

 SCF Done:  E(UHF) =  -418.238979047     A.U. after   27 cycles

 1\1\GINC-SE097\Stability\UHF\Aug-CC-pVDZ\C8H11N2\OHZDE\08-Apr-2025\0\\
 #t hf aug-cc-pvdz symm=none int=(grid=ultrafine) guess=(read,tcheck) s
 table=opt\\title\\0,2\C,0,1.863291,-0.132895,-0.018938\N,0,2.888473,-0
 .660564,-0.046016\C,0,-0.574631,-0.584472,-0.066912\C,0,-1.882009,0.09
 0447,-0.0281\N,0,-2.90912,0.612705,0.012045\C,0,0.560705,0.549072,0.02
 0767\C,0,-0.454152,-1.367475,-1.346099\H,0,0.442944,-1.949443,-1.51426
 \H,0,-1.256586,-1.397027,-2.068669\C,0,-0.494985,-1.56351,1.140875\H,0
 ,-0.666297,-1.049558,2.087351\H,0,0.487359,-2.038345,1.163008\H,0,-1.2

 Normal termination of Gaussian 16 at Tue Apr  8 23:09:07 2025.
 Gaussian 16:  ES64L-G16RevC.01  3-Jul-2019

 ----------------------------------------------------------------------
 #t hf aug-cc-pvdz iop(5/13=1,5/36=2,99/5=2) pseudo=read geom=check gue
 ss=(read,tcheck) scf=(maxcycle=1)
 ----------------------------------------------------------------------
 -----
 title
 -----
 Structure from the checkpoint file:  "BDE49_expt_305_mol2.chk"
 Charge =  0 Multiplicity = 2

                         Standard orientation:
 ---------------------------------------------------------------------
 Center     Atomic      Atomic             Coordinates (Angstroms)
 Number     Number       Type             X           Y           Z
 ---------------------------------------------------------------------
      1          6           0        1.863291   -0.132895   -0.018938
      2          7           0        2.888473   -0.660564   -0.046016
      3          6           0       -0.574631   -0.584472   -0.066912
      4          6           0       -1.882009    0.090447   -0.028100
      5          7           0       -2.909120    0.612705    0.012045
      6          6           0        0.560705    0.549072    0.020767
      7          6           0       -0.454152   -1.367475   -1.346099
      8          1           0        0.442944   -1.949443   -1.514260
      9          1           0       -1.256586   -1.397027   -2.068669
     10          6           0       -0.494985   -1.563510    1.140875
     11          1           0       -0.666297   -1.049558    2.087351
     12          1           0        0.487359   -2.038345    1.163008
     13          1           0       -1.253436   -2.339297    1.031802
     14          6           0        0.469049    1.363589    1.330887
     15          1           0        0.638145    0.746473    2.213024
     16          1           0       -0.514282    1.831956    1.408174
     17          1           0        1.224757    2.151205    1.324634
     18          6           0        0.465694    1.503401   -1.191360
     19          1           0        0.546713    0.958538   -2.132836
     20          1           0        1.268162    2.241763   -1.149379
     21          1           0       -0.490719    2.029801   -1.171770
 ---------------------------------------------------------------------

 SCF Done:  E(UHF) =  -420.237909453     A.U. after    2 cycles

 The electronic state is 2-A.
 Alpha  occ. eigenvalues --  -15.77071 -15.76997 -11.53056 -11.50107 -11.46467
 Alpha  occ. eigenvalues --  -11.45093 -11.43298 -11.42246 -11.41407 -11.39999
 Alpha  occ. eigenvalues --   -1.41272  -1.31954  -1.26899  -1.18296  -1.05592
 Alpha  occ. eigenvalues --   -1.02832  -0.94941  -0.91959  -0.72419  -0.70233
 Alpha  occ. eigenvalues --   -0.65985  -0.63817  -0.61101  -0.59236  -0.58570
 Alpha  occ. eigenvalues --   -0.57946  -0.56713  -0.54710  -0.51511  -0.50695
 Alpha  occ. eigenvalues --   -0.49836  -0.48517  -0.46896  -0.44739  -0.42520
 Alpha  occ. eigenvalues --   -0.41717  -0.34629
 Alpha virt. eigenvalues --    0.03323   0.04728   0.04939   0.05430   0.05789
 Alpha virt. eigenvalues --    0.05973   0.06364   0.07206   0.07712   0.08282
 Alpha virt. eigenvalues --    0.08389   0.08755   0.10741   0.11643   0.12268

  Beta  occ. eigenvalues --  -15.77236 -15.76971 -11.53158 -11.50137 -11.46383
  Beta  occ. eigenvalues --  -11.44986 -11.42847 -11.41766 -11.40559 -11.39400
  Beta  occ. eigenvalues --   -1.40684  -1.31963  -1.26675  -1.17173  -1.04794
  Beta  occ. eigenvalues --   -1.00203  -0.93328  -0.89694  -0.71917  -0.69625
  Beta  occ. eigenvalues --   -0.65417  -0.63007  -0.60429  -0.59070  -0.58255
  Beta  occ. eigenvalues --   -0.57723  -0.56472  -0.54293  -0.51402  -0.50265
  Beta  occ. eigenvalues --   -0.49363  -0.48382  -0.46894  -0.44608  -0.41960
  Beta  occ. eigenvalues --   -0.40607
  Beta virt. eigenvalues --    0.03359   0.04716   0.04760   0.05425   0.05532
  Beta virt. eigenvalues --    0.05798   0.06211   0.07169   0.07468   0.08052
  Beta virt. eigenvalues --    0.08404   0.08564   0.09269   0.10778   0.11728

 Mulliken charges and spin densities:
               1          2
     1  C    1.093085   0.089859
     2  N   -2.599325  -0.009191
     3  C    1.362002  -0.522277
     4  C    1.828693   0.077060
     5  N   -2.655663  -0.059336
     6  C    4.368784   0.034244
     7  C   -3.783162   1.539472
     8  H    1.526748  -0.086017
     9  H    1.544223  -0.061593
    10  C   -4.740916   0.083280
    11  H    1.354152   0.008919
    12  H    1.233794  -0.011011
    13  H    1.316593  -0.018686
    14  C   -4.686870  -0.000566
    15  H    1.380437   0.000863
    16  H    1.209241  -0.000047
    17  H    1.223956   0.002189
    18  C   -4.849317  -0.015212
    19  H    1.323393  -0.053920
    20  H    1.292643   0.003982
    21  H    1.257510  -0.002013
 Sum of Mulliken charges =   0.00000   1.00000

 Dipole moment (field-independent basis, Debye):
    X=              0.0045    Y=              0.0897    Z=              0.0917  Tot=              0.1283
                          Isotropic Fermi Contact Couplings
        Atom                 a.u.       MegaHertz       Gauss      10(-4) cm-1
     1  C(13)             -0.00298      -3.35032      -1.19548      -1.11755
     2  N(14)              0.00200       0.64720       0.23094       0.21588
     3  C(13)             -0.04309     -48.44033     -17.28471     -16.15796
     4  C(13)              0.00983      11.04711       3.94189       3.68492
     5  N(14)             -0.00999      -3.22896      -1.15217      -1.07707
     6  C(13)              0.03174      35.68649      12.73383      11.90373
     7  C(13)              0.13495     151.70661      54.13269      50.60388
     8  H(1)              -0.01852     -82.78592     -29.54008     -27.61441

 Normal termination of Gaussian 16 at Tue Apr  8 23:09:21 2025.
