 Gaussian 16, Revision C.01,

 ----------------------------------------------------------------------
 #t hf aug-cc-pvdz symm=none int=(grid=ultrafine) guess=(read,tcheck) s
 table=(opt,rrhf)
 ----------------------------------------------------------------------
 -----
 title
 -----
 Symbolic Z-matrix:
 Charge =  0 Multiplicity = 1

 SCF Done:  E(RHF) =  -1662.50688726     A.U. after   15 cycles
 Normal termination of Gaussian 16 at Tue Apr  8 22:53:43 2025.
 Gaussian 16:  ES64L-G16RevC.01  3-Jul-2019

 ----------------------------------------------------------------------
 #t hf aug-cc-pvdz iop(5/13=1,5/36=2,99/5=2) pseudo=read geom=check gue
 ss=(read,tcheck) scf=(maxcycle=1)
 ----------------------------------------------------------------------
 -----
 title
 -----
 Structure from the checkpoint file:  "BDE49_expt_1736_mol1.chk"
 Charge =  0 Multiplicity = 1

                         Standard orientation:
 ---------------------------------------------------------------------
 Center     Atomic      Atomic             Coordinates (Angstroms)
 Number     Number       Type             X           Y           Z
 ---------------------------------------------------------------------
      1          6           0        2.703686   -1.156085   -0.000000
      2          6           0        1.317045   -1.187931   -0.000000
      3          6           0        3.352095    0.077651   -0.000001
      4          6           0        2.573906    1.228661   -0.000002
      5          7           0        1.236862    1.208905   -0.000002
      6          6           0        0.630943    0.031477   -0.000002
      7          1           0        3.269998   -2.080055    0.000001
      8          1           0        0.780828   -2.127538    0.000001
      9          6           0       -0.903230    0.028797   -0.000000
     10         17           0       -1.600737    1.663152   -0.000006
     11         17           0       -1.500252   -0.853586    1.467374
     12         17           0       -1.500256   -0.853597   -1.467365
     13          1           0        4.433046    0.145809   -0.000001
     14          1           0        3.032598    2.212568   -0.000003
 ---------------------------------------------------------------------

 SCF Done:  E(RHF) =  -1664.58332425     A.U. after    2 cycles

 The electronic state is 1-A.
 Alpha  occ. eigenvalues --  -99.91079 -99.91077 -99.90545 -15.75883 -11.57514
 Alpha  occ. eigenvalues --  -11.52255 -11.48092 -11.45769 -11.43233 -11.39900
 Alpha  occ. eigenvalues --  -10.48512 -10.48271 -10.47880  -9.68358  -9.68347
 Alpha  occ. eigenvalues --   -9.67819  -9.67626  -9.67532  -9.67510  -9.67410
 Alpha  occ. eigenvalues --   -9.67116  -9.66873  -1.50858  -1.41316  -1.29840
 Alpha  occ. eigenvalues --   -1.29786  -1.21137  -1.15297  -0.99979  -0.91603
 Alpha  occ. eigenvalues --   -0.87634  -0.75880  -0.70324  -0.69963  -0.68886
 Alpha  occ. eigenvalues --   -0.64022  -0.61568  -0.58226  -0.57866  -0.54424
 Alpha  occ. eigenvalues --   -0.54041  -0.51980  -0.50323  -0.50296  -0.49211
 Alpha  occ. eigenvalues --   -0.47048  -0.38987  -0.38314  -0.35747
 Alpha virt. eigenvalues --    0.01001   0.03027   0.04726   0.05023   0.05206
 Alpha virt. eigenvalues --    0.06616   0.07319   0.08348   0.09010   0.09551
 Alpha virt. eigenvalues --    0.09822   0.11713   0.11795   0.12481   0.13031

 Mulliken charges:
               1
     1  C    1.071075
     2  C   -1.888736
     3  C   -1.230223
     4  C   -1.144784
     5  N   -3.633737
     6  C    3.630748
     7  H    1.550347
     8  H    1.775020
     9  C   -3.717399
    10  Cl   0.014088
    11  Cl   0.217663
    12  Cl   0.217663
    13  H    1.480324
    14  H    1.657950
 Sum of Mulliken charges =  -0.00000

 Dipole moment (field-independent basis, Debye):
    X=              3.8668    Y=             -1.0595    Z=             -0.0000  Tot=              4.0093

 Test job not archived.
 1\1\GINC-SE058\SP\RHF\Aug-CC-pVDZ\C6H4Cl3N1\OHZDE\08-Apr-2025\0\\#t hf
  aug-cc-pvdz iop(5/13=1,5/36=2,99/5=2) pseudo=read geom=check guess=(r
 ead,tcheck) scf=(maxcycle=1)\\title\\0,1\C,0,2.703686,-1.156085,0.\C,0
 ,1.317045,-1.187931,0.\C,0,3.352095,0.077651,-0.000001\C,0,2.573906,1.
 228661,-0.000002\N,0,1.236862,1.208905,-0.000002\C,0,0.630943,0.031477
 ,-0.000002\H,0,3.269998,-2.080055,0.000001\H,0,0.780828,-2.127538,0.00
 0001\C,0,-0.90323,0.028797,0.\Cl,0,-1.600737,1.663152,-0.000006\Cl,0,-
 1.500252,-0.853586,1.467374\Cl,0,-1.500256,-0.853597,-1.467365\H,0,4.4

 Normal termination of Gaussian 16 at Tue Apr  8 22:53:51 2025.
