 Gaussian 16, Revision C.01,

 ----------------------------------------------------------------------
 #t hf aug-cc-pvdz symm=none int=(grid=ultrafine) guess=(read,tcheck) s
 table=opt
 ----------------------------------------------------------------------
 -----
 title
 -----
 Symbolic Z-matrix:
 Charge =  0 Multiplicity = 2

 SCF Done:  E(UHF) =  -727.230193575     A.U. after   16 cycles
 Normal termination of Gaussian 16 at Tue Apr  8 23:48:16 2025.
 Gaussian 16:  ES64L-G16RevC.01  3-Jul-2019

 ----------------------------------------------------------------------
 #t hf aug-cc-pvdz iop(5/13=1,5/36=2,99/5=2) pseudo=read geom=check gue
 ss=(read,tcheck) scf=(maxcycle=1)
 ----------------------------------------------------------------------
 -----
 title
 -----
 Structure from the checkpoint file:  "BDE49_nonexpt_1799_mol2.chk"
 Charge =  0 Multiplicity = 2

                         Standard orientation:
 ---------------------------------------------------------------------
 Center     Atomic      Atomic             Coordinates (Angstroms)
 Number     Number       Type             X           Y           Z
 ---------------------------------------------------------------------
      1         14           0        1.401497    0.288089   -0.102843
      2          6           0       -1.666536    0.684314   -0.032827
      3         16           0       -0.485898   -0.724679    0.042119
      4          1           0       -2.660416    0.261612    0.111193
      5          1           0       -1.623030    1.172989   -1.005255
      6          1           0       -1.464189    1.402639    0.760987
      7          1           0        2.416794   -0.758453    0.181902
      8          1           0        1.483470    1.376937    0.914040
 ---------------------------------------------------------------------

 SCF Done:  E(UHF) =  -727.805823810     A.U. after    2 cycles

 The electronic state is 2-A.
 Alpha  occ. eigenvalues --  -76.24943 -75.67645 -13.08981 -13.06007 -13.01046
 Alpha  occ. eigenvalues --  -11.40346  -8.01766  -5.58200  -2.20083  -2.19925
 Alpha  occ. eigenvalues --   -2.18745  -1.18254  -0.94503  -0.74422  -0.59353
 Alpha  occ. eigenvalues --   -0.59256  -0.49667  -0.42889  -0.37346  -0.29508
 Alpha  occ. eigenvalues --   -0.22169
 Alpha virt. eigenvalues --    0.02785   0.04133   0.05205   0.06167   0.06766
 Alpha virt. eigenvalues --    0.08185   0.08508   0.09955   0.11524   0.12219
 Alpha virt. eigenvalues --    0.13356   0.14830   0.15487   0.16225   0.17803

  Beta  occ. eigenvalues --  -76.24412 -75.67522 -13.08814 -13.05888 -13.00479
  Beta  occ. eigenvalues --  -11.40356  -8.01626  -5.57351  -2.19499  -2.19357
  Beta  occ. eigenvalues --   -2.15367  -1.17699  -0.93992  -0.70027  -0.59214
  Beta  occ. eigenvalues --   -0.59153  -0.48523  -0.42649  -0.33613  -0.26566
  Beta virt. eigenvalues --    0.02298   0.03932   0.04913   0.05474   0.06856
  Beta virt. eigenvalues --    0.07072   0.08502   0.09224   0.10335   0.11803
  Beta virt. eigenvalues --    0.12742   0.13840   0.15795   0.16188   0.16749

 Mulliken charges and spin densities:
               1          2
     1  Si   4.082868   0.848439
     2  C   -4.512852  -0.003883
     3  S   -0.755870   0.101899
     4  H    1.387027  -0.005360
     5  H    1.403237  -0.000615
     6  H    1.369029   0.006748
     7  H   -1.509258   0.015600
     8  H   -1.464180   0.037172
 Sum of Mulliken charges =  -0.00000   1.00000

 Dipole moment (field-independent basis, Debye):
    X=             -1.6310    Y=             -0.6516    Z=             -0.2349  Tot=              1.7720
                          Isotropic Fermi Contact Couplings
        Atom                 a.u.       MegaHertz       Gauss      10(-4) cm-1
     1  Si(29)             0.46005    -408.85973    -145.89132    -136.38092
     2  C(13)              0.00158       1.78141       0.63565       0.59421
     3  S(33)              0.06457      22.17802       7.91367       7.39779
     4  H(1)              -0.00008      -0.34419      -0.12281      -0.11481
     5  H(1)               0.00079       3.54661       1.26552       1.18302
     6  H(1)               0.00028       1.23617       0.44110       0.41234
     7  H(1)               0.00613      27.40477       9.77870       9.14125
     8  H(1)               0.01465      65.49493      23.37022      21.84676

 Normal termination of Gaussian 16 at Tue Apr  8 23:48:18 2025.
