 Gaussian 16, Revision C.01,

 ----------------------------------------------------------------------
 #t hf aug-cc-pvdz symm=none int=(grid=ultrafine) guess=(read,tcheck) s
 table=opt
 ----------------------------------------------------------------------
 -----
 title
 -----
 Symbolic Z-matrix:
 Charge =  0 Multiplicity = 2

 SCF Done:  E(UHF) =  -633.537673836     A.U. after   21 cycles
 Normal termination of Gaussian 16 at Tue Apr  8 23:37:14 2025.
 Gaussian 16:  ES64L-G16RevC.01  3-Jul-2019

 ----------------------------------------------------------------------
 #t hf aug-cc-pvdz iop(5/13=1,5/36=2,99/5=2) pseudo=read geom=check gue
 ss=(read,tcheck) scf=(maxcycle=1)
 ----------------------------------------------------------------------
 -----
 title
 -----
 Structure from the checkpoint file:  "BDE49_nonexpt_1518_mol2.chk"
 Charge =  0 Multiplicity = 2

                         Standard orientation:
 ---------------------------------------------------------------------
 Center     Atomic      Atomic             Coordinates (Angstroms)
 Number     Number       Type             X           Y           Z
 ---------------------------------------------------------------------
      1         15           0       -0.684646   -0.817639   -0.224115
      2          6           0       -1.959755    0.442049    0.192703
      3          1           0       -2.939501    0.010311   -0.022001
      4          1           0       -1.826252    1.346733   -0.405045
      5          1           0       -1.909682    0.708537    1.251766
      6          7           0        0.681565    0.122070    0.450881
      7          9           0        0.819955    1.335054   -0.290468
      8          9           0        1.839232   -0.591475    0.093203
 ---------------------------------------------------------------------

 SCF Done:  E(UHF) =  -634.816125022     A.U. after    2 cycles

 The electronic state is 2-A.
 Alpha  occ. eigenvalues -- -105.22437 -29.29768 -29.29565 -15.87966 -11.39590
 Alpha  occ. eigenvalues --   -2.81436  -1.61326  -1.52984  -1.51002  -1.35231
 Alpha  occ. eigenvalues --   -1.03111  -0.81283  -0.74471  -0.63654  -0.59577
 Alpha  occ. eigenvalues --   -0.59031  -0.45562  -0.42305  -0.40081  -0.30353
 Alpha  occ. eigenvalues --   -0.27902  -0.21750  -0.17073  -0.10185   0.02340
 Alpha virt. eigenvalues --    0.04128   0.06054   0.06777   0.08126   0.10783
 Alpha virt. eigenvalues --    0.12005   0.14066   0.16045   0.16818   0.17227
 Alpha virt. eigenvalues --    0.18573   0.20714   0.21520   0.23090   0.24359

  Beta  occ. eigenvalues -- -105.21786 -29.29769 -29.29200 -15.88040 -11.39717
  Beta  occ. eigenvalues --   -2.79460  -1.60456  -1.51318  -1.35069  -1.26277
  Beta  occ. eigenvalues --   -1.02715  -0.81411  -0.72029  -0.63205  -0.59114
  Beta  occ. eigenvalues --   -0.58386  -0.44649  -0.41299  -0.39603  -0.30186
  Beta  occ. eigenvalues --   -0.28047  -0.21573  -0.17179  -0.07304
  Beta virt. eigenvalues --    0.04182   0.06007   0.06533   0.08587   0.08639
  Beta virt. eigenvalues --    0.10898   0.12302   0.14449   0.16195   0.17458
  Beta virt. eigenvalues --    0.18385   0.19631   0.21261   0.23511   0.23994

 Mulliken charges and spin densities:
               1          2
     1  P    2.524399   1.492353
     2  C   -5.123317  -0.317313
     3  H    1.270888   0.003343
     4  H    1.029913  -0.005701
     5  H    1.009756   0.064086
     6  N   -0.478273  -0.260294
     7  F   -0.170805   0.015465
     8  F   -0.062561   0.008060
 Sum of Mulliken charges =  -0.00000   1.00000

 Dipole moment (field-independent basis, Debye):
    X=              1.9716    Y=             -0.2716    Z=             -2.5195  Tot=              3.2107
                          Isotropic Fermi Contact Couplings
        Atom                 a.u.       MegaHertz       Gauss      10(-4) cm-1
     1  P(31)              0.31504     570.56844     203.59301     190.32115
     2  C(13)             -0.00257      -2.89078      -1.03150      -0.96426
     3  H(1)               0.00001       0.02934       0.01047       0.00979
     4  H(1)               0.00698      31.19695      11.13185      10.40618
     5  H(1)               0.00663      29.62812      10.57205       9.88288
     6  N(14)              0.02444       7.89612       2.81753       2.63386
     7  F(19)              0.02116      89.03088      31.76843      29.69751
     8  F(19)             -0.00264     -11.09962      -3.96062      -3.70244

 Normal termination of Gaussian 16 at Tue Apr  8 23:37:17 2025.
