 Gaussian 16, Revision C.01,

 ----------------------------------------------------------------------
 #t hf aug-cc-pvdz symm=none int=(grid=ultrafine) guess=(read,tcheck) s
 table=(opt,rrhf)
 ----------------------------------------------------------------------
 -----
 title
 -----
 Symbolic Z-matrix:
 Charge =  0 Multiplicity = 1

 SCF Done:  E(RHF) =  -921.575273777     A.U. after   17 cycles
 Normal termination of Gaussian 16 at Tue Apr  8 23:34:24 2025.
 Gaussian 16:  ES64L-G16RevC.01  3-Jul-2019

 ----------------------------------------------------------------------
 #t hf aug-cc-pvdz iop(5/13=1,5/36=2,99/5=2) pseudo=read geom=check gue
 ss=(read,tcheck) scf=(maxcycle=1)
 ----------------------------------------------------------------------
 -----
 title
 -----
 Structure from the checkpoint file:  "BDE49_nonexpt_1382_mol1.chk"
 Charge =  0 Multiplicity = 1

                         Standard orientation:
 ---------------------------------------------------------------------
 Center     Atomic      Atomic             Coordinates (Angstroms)
 Number     Number       Type             X           Y           Z
 ---------------------------------------------------------------------
      1          6           0       -0.709852   -0.210966   -0.389971
      2          6           0       -1.442361    0.893753   -0.838783
      3          1           0       -1.002278    1.583603   -1.549920
      4          6           0       -2.735867    1.109935   -0.369969
      5          1           0       -3.297857    1.968984   -0.718473
      6          6           0       -3.311099    0.215954    0.530904
      7          1           0       -4.321914    0.379927    0.886843
      8          6           0       -2.589167   -0.894514    0.967976
      9          1           0       -3.036875   -1.594072    1.664873
     10          6           0       -1.290741   -1.108033    0.515719
     11          1           0       -0.728212   -1.971013    0.851245
     12         15           0        0.984543   -0.486124   -1.046326
     13          9           0        1.109236   -2.093917   -0.802594
     14          6           0        1.903982   -0.003016    0.552932
     15          8           0        2.411597   -0.817819    1.276612
     16          6           0        2.004113    1.489237    0.833973
     17          9           0        1.426951    2.205960   -0.214498
     18          1           0        3.054169    1.778384    0.925610
     19          1           0        1.472306    1.726121    1.758962
 ---------------------------------------------------------------------

 SCF Done:  E(RHF) =  -924.198704694     A.U. after    2 cycles

 The electronic state is 1-A.
 Alpha  occ. eigenvalues -- -105.24868 -29.28486 -29.26920 -21.08541 -11.53171
 Alpha  occ. eigenvalues --  -11.51347 -11.46246 -11.44843 -11.44469 -11.42529
 Alpha  occ. eigenvalues --  -11.41973 -11.37818  -2.83652  -1.73946  -1.58502
 Alpha  occ. eigenvalues --   -1.56418  -1.51889  -1.34170  -1.21334  -1.10652
 Alpha  occ. eigenvalues --   -1.09347  -0.90051  -0.87862  -0.83153  -0.77567
 Alpha  occ. eigenvalues --   -0.71567  -0.69806  -0.68314  -0.64309  -0.59858
 Alpha  occ. eigenvalues --   -0.58276  -0.57641  -0.52611  -0.52248  -0.49232
 Alpha  occ. eigenvalues --   -0.46627  -0.46268  -0.44079  -0.39297  -0.36120
 Alpha  occ. eigenvalues --   -0.34582  -0.31980  -0.31614  -0.29471  -0.27872
 Alpha  occ. eigenvalues --   -0.20987  -0.17702  -0.00948
 Alpha virt. eigenvalues --    0.03500   0.04972   0.05115   0.05278   0.05935
 Alpha virt. eigenvalues --    0.06898   0.08039   0.08616   0.08924   0.09743
 Alpha virt. eigenvalues --    0.10488   0.10890   0.11773   0.12104   0.12812

 Mulliken charges:
               1
     1  C    1.220985
     2  C   -3.194214
     3  H    1.903800
     4  C   -0.816568
     5  H    1.531940
     6  C   -2.476230
     7  H    1.466913
     8  C   -0.306377
     9  H    1.522570
    10  C   -3.580613
    11  H    1.902376
    12  P    2.980221
    13  F   -0.464224
    14  C    0.600940
    15  O   -2.905775
    16  C   -2.632241
    17  F    0.248221
    18  H    1.468108
    19  H    1.530166
 Sum of Mulliken charges =  -0.00000

 Dipole moment (field-independent basis, Debye):
    X=             -1.8983    Y=             -1.4764    Z=             -1.2179  Tot=              2.6956

 Test job not archived.
 1\1\GINC-SE048\SP\RHF\Aug-CC-pVDZ\C8H7F2O1P1\OHZDE\08-Apr-2025\0\\#t h
 f aug-cc-pvdz iop(5/13=1,5/36=2,99/5=2) pseudo=read geom=check guess=(
 read,tcheck) scf=(maxcycle=1)\\title\\0,1\C,0,-0.709852,-0.210966,-0.3
 89971\C,0,-1.442361,0.893753,-0.838783\H,0,-1.002278,1.583603,-1.54992
 \C,0,-2.735867,1.109935,-0.369969\H,0,-3.297857,1.968984,-0.718473\C,0
 ,-3.311099,0.215954,0.530904\H,0,-4.321914,0.379927,0.886843\C,0,-2.58
 9167,-0.894514,0.967976\H,0,-3.036875,-1.594072,1.664873\C,0,-1.290741
 ,-1.108033,0.515719\H,0,-0.728212,-1.971013,0.851245\P,0,0.984543,-0.4

 Normal termination of Gaussian 16 at Tue Apr  8 23:34:37 2025.
