 Gaussian 16, Revision C.01,

 ----------------------------------------------------------------------
 #t hf aug-cc-pvdz symm=none int=(grid=ultrafine) guess=(read,tcheck) s
 table=opt
 ----------------------------------------------------------------------
 -----
 title
 -----
 Symbolic Z-matrix:
 Charge =  0 Multiplicity = 2

 SCF Done:  E(UHF) =  -100.699916209     A.U. after   14 cycles
 Normal termination of Gaussian 16 at Wed Apr  9 00:00:21 2025.
 Gaussian 16:  ES64L-G16RevC.01  3-Jul-2019

 ----------------------------------------------------------------------
 #t hf aug-cc-pvdz iop(5/13=1,5/36=2,99/5=2) pseudo=read geom=check gue
 ss=(read,tcheck) scf=(maxcycle=1)
 ----------------------------------------------------------------------
 -----
 title
 -----
 Structure from the checkpoint file:  "BDE49_nonexpt_20_mol2.chk"
 Charge =  0 Multiplicity = 2

                         Standard orientation:
 ---------------------------------------------------------------------
 Center     Atomic      Atomic             Coordinates (Angstroms)
 Number     Number       Type             X           Y           Z
 ---------------------------------------------------------------------
      1          5           0        0.767248   -0.186605   -0.000001
      2          8           0       -0.558816   -0.077088    0.000000
      3          1           0       -0.914833    0.823671    0.000001
      4          1           0        1.549122    0.726062   -0.000001
 ---------------------------------------------------------------------

 SCF Done:  E(UHF) =  -101.104254529     A.U. after    2 cycles

 The electronic state is 2-A.
 Alpha  occ. eigenvalues --  -21.08004  -7.65284  -1.75202  -0.77015  -0.64486
 Alpha  occ. eigenvalues --   -0.44936  -0.44735  -0.31047
 Alpha virt. eigenvalues --    0.03229   0.04225   0.04803   0.05486   0.09760
 Alpha virt. eigenvalues --    0.12523   0.13970   0.18773   0.22664   0.23287
 Alpha virt. eigenvalues --    0.23716   0.24238   0.26349   0.31068   0.32914

  Beta  occ. eigenvalues --  -21.07971  -7.63401  -1.74727  -0.72527  -0.62683
  Beta  occ. eigenvalues --   -0.44741  -0.42771
  Beta virt. eigenvalues --    0.03315   0.04234   0.04393   0.04968   0.08821
  Beta virt. eigenvalues --    0.10090   0.16290   0.16368   0.19244   0.23028
  Beta virt. eigenvalues --    0.23266   0.24574   0.25457   0.26921   0.33030

 Mulliken charges and spin densities:
               1          2
     1  B    2.647594   1.082074
     2  O   -2.450357  -0.177763
     3  H    1.215042   0.024702
     4  H   -1.412280   0.070987
 Sum of Mulliken charges =   0.00000   1.00000

 Dipole moment (field-independent basis, Debye):
    X=             -0.9691    Y=              1.5178    Z=              0.0000  Tot=              1.8008
                          Isotropic Fermi Contact Couplings
        Atom                 a.u.       MegaHertz       Gauss      10(-4) cm-1
     1  B(11)              0.23970     343.82415     122.68501     114.68739
     2  O(17)              0.11482     -69.60607     -24.83718     -23.21809
     3  H(1)               0.01685      75.33929      26.88293      25.13048
     4  H(1)               0.02748     122.85317      43.83707      40.97941
 --------------------------------------------------------
       Center         ----  Spin Dipole Couplings  ----
                      3XX-RR        3YY-RR        3ZZ-RR
 --------------------------------------------------------

 Normal termination of Gaussian 16 at Wed Apr  9 00:00:23 2025.
