 Gaussian 16, Revision C.01,

 ----------------------------------------------------------------------
 #t hf aug-cc-pvdz symm=none int=(grid=ultrafine) guess=(read,tcheck) s
 table=(opt,rrhf)
 ----------------------------------------------------------------------
 -----
 title
 -----
 Symbolic Z-matrix:
 Charge =  0 Multiplicity = 1

 SCF Done:  E(RHF) =  -974.408087288     A.U. after   13 cycles
 Normal termination of Gaussian 16 at Tue Apr  8 23:42:19 2025.
 Gaussian 16:  ES64L-G16RevC.01  3-Jul-2019

 ----------------------------------------------------------------------
 #t hf aug-cc-pvdz iop(5/13=1,5/36=2,99/5=2) pseudo=read geom=check gue
 ss=(read,tcheck) scf=(maxcycle=1)
 ----------------------------------------------------------------------
 -----
 title
 -----
 Structure from the checkpoint file:  "BDE49_nonexpt_1639_mol1.chk"
 Charge =  0 Multiplicity = 1

                         Standard orientation:
 ---------------------------------------------------------------------
 Center     Atomic      Atomic             Coordinates (Angstroms)
 Number     Number       Type             X           Y           Z
 ---------------------------------------------------------------------
      1         14           0        0.841273    0.713131   -0.442401
      2         15           0       -1.106317   -0.386399    0.000188
      3          8           0       -1.136698   -1.843947   -0.241435
      4          8           0       -2.287793    0.388428   -0.814728
      5          6           0        2.246559   -0.210457    0.404299
      6          6           0        2.465873   -1.649963   -0.097237
      7          1           0        2.049653   -0.208122    1.482613
      8          1           0        3.157587    0.385360    0.265102
      9          1           0        2.732183   -1.661773   -1.157929
     10          1           0        1.563350   -2.253525    0.020053
     11          6           0        0.695240    2.505441    0.092691
     12          1           0        1.599981    3.058474   -0.177062
     13          1           0        0.556690    2.578908    1.173964
     14          1           0       -0.156234    2.989078   -0.391786
     15          1           0        3.276027   -2.137969    0.451751
     16          1           0       -2.609811   -0.162580   -1.539192
     17          8           0       -1.400521    0.092027    1.515026
     18          1           0       -2.163315   -0.350266    1.912421
     19          1           0        0.964894    0.612369   -1.918572
 ---------------------------------------------------------------------

 SCF Done:  E(RHF) =  -976.327406360     A.U. after    2 cycles

 The electronic state is 1-A.
 Alpha  occ. eigenvalues -- -105.28461 -76.21969 -21.10781 -21.10278 -21.01092
 Alpha  occ. eigenvalues --  -11.39678 -11.36103 -11.35002  -5.55947  -2.90205
 Alpha  occ. eigenvalues --   -2.20178  -2.18920  -2.17825  -1.94589  -1.86805
 Alpha  occ. eigenvalues --   -1.78210  -1.48840  -1.38915  -1.24897  -1.15174
 Alpha  occ. eigenvalues --   -1.04551  -0.89250  -0.72582  -0.66224  -0.61138
 Alpha  occ. eigenvalues --   -0.59776  -0.57101  -0.56841  -0.56383  -0.52312
 Alpha  occ. eigenvalues --   -0.49957  -0.48889  -0.44707  -0.44124  -0.40234
 Alpha  occ. eigenvalues --   -0.38488  -0.33208  -0.33106  -0.29006  -0.20826
 Alpha  occ. eigenvalues --   -0.11953
 Alpha virt. eigenvalues --    0.03588   0.04734   0.05051   0.05881   0.06049
 Alpha virt. eigenvalues --    0.06602   0.06718   0.07008   0.07523   0.08155
 Alpha virt. eigenvalues --    0.08935   0.09317   0.09962   0.11465   0.12496

 Mulliken charges:
               1
     1  Si   5.029344
     2  P    7.283678
     3  O   -3.096394
     4  O   -2.766064
     5  C   -4.288533
     6  C   -3.668361
     7  H    1.606478
     8  H    1.389001
     9  H    1.250144
    10  H    1.378719
    11  C   -5.364761
    12  H    1.309588
    13  H    1.527219
    14  H    1.275555
    15  H    1.129857
    16  H    0.721101
    17  O   -2.875547
    18  H    0.823503
    19  H   -2.664527
 Sum of Mulliken charges =  -0.00000

 Dipole moment (field-independent basis, Debye):
    X=             -0.7879    Y=              2.3907    Z=              1.3111  Tot=              2.8382

 Test job not archived.
 1\1\GINC-SE404\SP\RHF\Aug-CC-pVDZ\C3H11O3P1Si1\OHZDE\08-Apr-2025\0\\#t
  hf aug-cc-pvdz iop(5/13=1,5/36=2,99/5=2) pseudo=read geom=check guess
 =(read,tcheck) scf=(maxcycle=1)\\title\\0,1\Si,0,0.841273,0.713131,-0.
 442401\P,0,-1.106317,-0.386399,0.000188\O,0,-1.136698,-1.843947,-0.241
 435\O,0,-2.287793,0.388428,-0.814728\C,0,2.246559,-0.210457,0.404299\C
 ,0,2.465873,-1.649963,-0.097237\H,0,2.049653,-0.208122,1.482613\H,0,3.
 157587,0.38536,0.265102\H,0,2.732183,-1.661773,-1.157929\H,0,1.56335,-
 2.253525,0.020053\C,0,0.69524,2.505441,0.092691\H,0,1.599981,3.058474,

 Normal termination of Gaussian 16 at Tue Apr  8 23:42:28 2025.
