 Gaussian 16, Revision C.01,

 ----------------------------------------------------------------------
 #t hf aug-cc-pvdz symm=none int=(grid=ultrafine) guess=(read,tcheck) s
 table=(opt,rrhf)
 ----------------------------------------------------------------------
 -----
 title
 -----
 Symbolic Z-matrix:
 Charge =  0 Multiplicity = 1

 SCF Done:  E(RHF) =  -583.499593058     A.U. after   12 cycles
 Normal termination of Gaussian 16 at Wed Apr  9 00:45:34 2025.
 Gaussian 16:  ES64L-G16RevC.01  3-Jul-2019

 ----------------------------------------------------------------------
 #t hf aug-cc-pvdz iop(5/13=1,5/36=2,99/5=2) pseudo=read geom=check gue
 ss=(read,tcheck) scf=(maxcycle=1)
 ----------------------------------------------------------------------
 -----
 title
 -----
 Structure from the checkpoint file:  "BDE49_nonexpt_773_mol1.chk"
 Charge =  0 Multiplicity = 1

                         Standard orientation:
 ---------------------------------------------------------------------
 Center     Atomic      Atomic             Coordinates (Angstroms)
 Number     Number       Type             X           Y           Z
 ---------------------------------------------------------------------
      1         14           0        0.450572    1.233709   -0.140141
      2          5           0        1.765564   -0.321603   -0.027437
      3          8           0        2.917480   -0.323915    0.716202
      4          8           0        1.482940   -1.442541   -0.749895
      5          6           0       -1.319782    0.672478   -0.500880
      6          6           0       -1.903288   -0.310874    0.529546
      7          1           0       -1.323427    0.209295   -1.495163
      8          1           0       -1.958274    1.561162   -0.575760
      9          6           0       -3.340612   -0.736624    0.210867
     10          1           0       -1.875478    0.142506    1.527664
     11          1           0       -1.266565   -1.200983    0.578878
     12          1           0       -4.011744    0.127635    0.187254
     13          1           0       -3.724597   -1.437219    0.958227
     14          1           0       -3.396978   -1.226339   -0.766156
     15          1           0        3.052264    0.480686    1.223063
     16          1           0        2.161575   -2.122978   -0.646057
     17          1           0        0.894449    2.182286   -1.199525
     18          1           0        0.491668    2.001797    1.139079
 ---------------------------------------------------------------------

 SCF Done:  E(RHF) =  -585.005023985     A.U. after    2 cycles

 The electronic state is 1-A.
 Alpha  occ. eigenvalues --  -76.19026 -21.06729 -21.05785 -11.40795 -11.36938
 Alpha  occ. eigenvalues --  -11.33836  -7.63576  -5.52774  -2.16961  -2.15566
 Alpha  occ. eigenvalues --   -2.14934  -1.81025  -1.65389  -1.20045  -0.99185
 Alpha  occ. eigenvalues --   -0.84482  -0.78403  -0.70663  -0.63654  -0.62212
 Alpha  occ. eigenvalues --   -0.57183  -0.53774  -0.53291  -0.52340  -0.48613
 Alpha  occ. eigenvalues --   -0.46524  -0.45949  -0.44228  -0.42748  -0.38531
 Alpha  occ. eigenvalues --   -0.36690  -0.32992
 Alpha virt. eigenvalues --    0.03824   0.04125   0.04354   0.05085   0.06079
 Alpha virt. eigenvalues --    0.06487   0.06735   0.07115   0.07556   0.08356
 Alpha virt. eigenvalues --    0.08915   0.09244   0.09852   0.10073   0.10440

 Mulliken charges:
               1
     1  Si   4.701944
     2  B    5.499627
     3  O   -4.059676
     4  O   -4.126422
     5  C   -3.842838
     6  C   -2.776889
     7  H    1.622280
     8  H    1.464019
     9  C   -3.930923
    10  H    1.507773
    11  H    1.588212
    12  H    1.262851
    13  H    1.149110
    14  H    1.262174
    15  H    1.354625
    16  H    1.253219
    17  H   -1.998902
    18  H   -1.930184
 Sum of Mulliken charges =  -0.00000

 Dipole moment (field-independent basis, Debye):
    X=              0.0718    Y=             -0.4630    Z=              0.4488  Tot=              0.6488

 Test job not archived.
 1\1\GINC-SE072\SP\RHF\Aug-CC-pVDZ\C3H11B1O2Si1\OHZDE\09-Apr-2025\0\\#t
  hf aug-cc-pvdz iop(5/13=1,5/36=2,99/5=2) pseudo=read geom=check guess
 =(read,tcheck) scf=(maxcycle=1)\\title\\0,1\Si,0,0.450572,1.233709,-0.
 140141\B,0,1.765564,-0.321603,-0.027437\O,0,2.91748,-0.323915,0.716202
 \O,0,1.48294,-1.442541,-0.749895\C,0,-1.319782,0.672478,-0.50088\C,0,-
 1.903288,-0.310874,0.529546\H,0,-1.323427,0.209295,-1.495163\H,0,-1.95
 8274,1.561162,-0.57576\C,0,-3.340612,-0.736624,0.210867\H,0,-1.875478,
 0.142506,1.527664\H,0,-1.266565,-1.200983,0.578878\H,0,-4.011744,0.127

 Normal termination of Gaussian 16 at Wed Apr  9 00:45:41 2025.
