 Gaussian 16, Revision C.01,

 ----------------------------------------------------------------------
 #t hf aug-cc-pvdz symm=none int=(grid=ultrafine) guess=(read,tcheck) s
 table=(opt,rrhf)
 ----------------------------------------------------------------------
 -----
 title
 -----
 Symbolic Z-matrix:
 Charge =  0 Multiplicity = 1

 SCF Done:  E(RHF) =  -722.837722480     A.U. after   12 cycles
 Normal termination of Gaussian 16 at Tue Apr  8 23:40:09 2025.
 Gaussian 16:  ES64L-G16RevC.01  3-Jul-2019

 ----------------------------------------------------------------------
 #t hf aug-cc-pvdz iop(5/13=1,5/36=2,99/5=2) pseudo=read geom=check gue
 ss=(read,tcheck) scf=(maxcycle=1)
 ----------------------------------------------------------------------
 -----
 title
 -----
 Structure from the checkpoint file:  "BDE49_nonexpt_1625_mol1.chk"
 Charge =  0 Multiplicity = 1

                         Standard orientation:
 ---------------------------------------------------------------------
 Center     Atomic      Atomic             Coordinates (Angstroms)
 Number     Number       Type             X           Y           Z
 ---------------------------------------------------------------------
      1         15           0       -1.417833    0.331441   -0.096874
      2         15           0        0.562684   -0.733394    0.126841
      3          6           0        1.700168    0.740779   -0.036498
      4          1           0        1.430844    1.411617   -0.853482
      5          1           0        2.717797    0.374715   -0.193116
      6          1           0        1.690690    1.300814    0.901362
      7          1           0        0.587337   -1.116571   -1.241432
      8          1           0       -1.630139    0.486765    1.299545
      9          1           0       -2.170306   -0.872724   -0.143385
 ---------------------------------------------------------------------

 SCF Done:  E(RHF) =  -723.444032170     A.U. after    2 cycles

 The electronic state is 1-A.
 Alpha  occ. eigenvalues -- -105.18338-105.17922 -11.37531  -2.75631  -2.74668
 Alpha  occ. eigenvalues --   -1.50705  -1.46533  -1.44396  -1.43678  -1.42619
 Alpha  occ. eigenvalues --   -1.30816  -1.00798  -0.74662  -0.59774  -0.56658
 Alpha  occ. eigenvalues --   -0.56567  -0.25773  -0.23802  -0.08832  -0.06423
 Alpha  occ. eigenvalues --    0.03278
 Alpha virt. eigenvalues --    0.05423   0.06373   0.07207   0.07433   0.08318
 Alpha virt. eigenvalues --    0.09165   0.10118   0.10714   0.11507   0.13151
 Alpha virt. eigenvalues --    0.14327   0.16335   0.17405   0.17780   0.18861

 Mulliken charges:
               1
     1  P    2.946311
     2  P    4.186256
     3  C   -4.570383
     4  H    0.550560
     5  H   -0.178978
     6  H    0.623077
     7  H   -1.021676
     8  H   -1.326597
     9  H   -1.208569
 Sum of Mulliken charges =  -0.00000

 Dipole moment (field-independent basis, Debye):
    X=             -5.3163    Y=             -4.4634    Z=             -0.7189  Tot=              6.9787

 Test job not archived.
 1\1\GINC-SE072\SP\RHF\Aug-CC-pVDZ\C1H6P2\OHZDE\08-Apr-2025\0\\#t hf au
 g-cc-pvdz iop(5/13=1,5/36=2,99/5=2) pseudo=read geom=check guess=(read
 ,tcheck) scf=(maxcycle=1)\\title\\0,1\P,0,-1.417833,0.331441,-0.096874
 \P,0,0.562684,-0.733394,0.126841\C,0,1.700168,0.740779,-0.036498\H,0,1
 .430844,1.411617,-0.853482\H,0,2.717797,0.374715,-0.193116\H,0,1.69069
 ,1.300814,0.901362\H,0,0.587337,-1.116571,-1.241432\H,0,-1.630139,0.48
 6765,1.299545\H,0,-2.170306,-0.872724,-0.143385\\Version=ES64L-G16RevC
 .01\State=1-A\HF=-723.4440322\RMSD=3.548e-01\Dipole=-2.0915775,-1.7560

 Normal termination of Gaussian 16 at Tue Apr  8 23:40:11 2025.
