 Gaussian 16, Revision C.01,

 ----------------------------------------------------------------------
 #t hf aug-cc-pvdz symm=none int=(grid=ultrafine) guess=(read,tcheck) s
 table=(opt,rrhf)
 ----------------------------------------------------------------------
 -----
 title
 -----
 Symbolic Z-matrix:
 Charge =  0 Multiplicity = 1

 SCF Done:  E(RHF) =  -545.590327508     A.U. after   14 cycles

 1\1\GINC-SE457\Stability\RHF\Aug-CC-pVDZ\C9H10F2\OHZDE\08-Apr-2025\0\\
 #t hf aug-cc-pvdz symm=none int=(grid=ultrafine) guess=(read,tcheck) s
 table=(opt,rrhf)\\title\\0,1\C,0,-0.780237,-0.366559,0.592814\C,0,-1.6
 34247,-1.269989,-0.050361\C,0,-2.813824,-0.837321,-0.650424\C,0,-3.161
 642,0.511936,-0.616748\C,0,-2.322739,1.421589,0.022161\C,0,-1.142928,0
 .984359,0.62183\H,0,-0.495134,1.698396,1.120169\H,0,-4.081335,0.849915
 ,-1.080594\H,0,-2.587415,2.47254,0.058491\H,0,-1.376972,-2.324718,-0.0
 73538\H,0,-3.464732,-1.553992,-1.138971\C,0,1.668734,-1.036232,0.22583

 Normal termination of Gaussian 16 at Tue Apr  8 22:36:07 2025.
 Gaussian 16:  ES64L-G16RevC.01  3-Jul-2019

 ----------------------------------------------------------------------
 #t hf aug-cc-pvdz iop(5/13=1,5/36=2,99/5=2) pseudo=read geom=check gue
 ss=(read,tcheck) scf=(maxcycle=1)
 ----------------------------------------------------------------------
 -----
 title
 -----
 Structure from the checkpoint file:  "BDE49_expt_1045_mol1.chk"
 Charge =  0 Multiplicity = 1

                         Standard orientation:
 ---------------------------------------------------------------------
 Center     Atomic      Atomic             Coordinates (Angstroms)
 Number     Number       Type             X           Y           Z
 ---------------------------------------------------------------------
      1          6           0       -0.780237   -0.366559    0.592814
      2          6           0       -1.634247   -1.269989   -0.050361
      3          6           0       -2.813824   -0.837321   -0.650424
      4          6           0       -3.161642    0.511936   -0.616748
      5          6           0       -2.322739    1.421589    0.022161
      6          6           0       -1.142928    0.984359    0.621830
      7          1           0       -0.495134    1.698396    1.120169
      8          1           0       -4.081335    0.849915   -1.080594
      9          1           0       -2.587415    2.472540    0.058491
     10          1           0       -1.376972   -2.324718   -0.073538
     11          1           0       -3.464732   -1.553992   -1.138971
     12          6           0        1.668734   -1.036232    0.225839
     13          6           0        0.511894   -0.840838    1.226074
     14          1           0        0.829170   -0.130430    1.993088
     15          1           0        0.340816   -1.795139    1.732406
     16          6           0        2.095864    0.238053   -0.463247
     17          1           0        1.388334   -1.753940   -0.550852
     18          1           0        2.548190   -1.433702    0.741385
     19          9           0        3.180776   -0.012064   -1.266209
     20          9           0        2.491359    1.171979    0.469745
     21          1           0        1.324603    0.701848   -1.081039
 ---------------------------------------------------------------------

 SCF Done:  E(RHF) =  -547.960723673     A.U. after    2 cycles

 The electronic state is 1-A.
 Alpha  occ. eigenvalues --  -29.27118 -29.27039 -11.53162 -11.52339 -11.45447
 Alpha  occ. eigenvalues --  -11.43870 -11.43181 -11.41217 -11.40955 -11.39434
 Alpha  occ. eigenvalues --  -11.36534  -1.37292  -1.31127  -1.15996  -1.09507
 Alpha  occ. eigenvalues --   -1.05255  -0.92686  -0.86827  -0.83410  -0.78487
 Alpha  occ. eigenvalues --   -0.74602  -0.71052  -0.65949  -0.64940  -0.59557
 Alpha  occ. eigenvalues --   -0.58457  -0.57908  -0.55016  -0.52594  -0.50965
 Alpha  occ. eigenvalues --   -0.48760  -0.44589  -0.43236  -0.42349  -0.37075
 Alpha  occ. eigenvalues --   -0.33509  -0.32973  -0.30104  -0.28165  -0.25083
 Alpha  occ. eigenvalues --   -0.20926
 Alpha virt. eigenvalues --    0.03446   0.04577   0.04921   0.05587   0.05759
 Alpha virt. eigenvalues --    0.06330   0.06519   0.07337   0.07724   0.08339
 Alpha virt. eigenvalues --    0.10265   0.11134   0.11393   0.11870   0.12531

 Mulliken charges:
               1
     1  C    4.916213
     2  C   -3.139940
     3  C   -1.423844
     4  C   -3.030243
     5  C   -1.172144
     6  C   -2.694263
     7  H    1.860531
     8  H    1.539704
     9  H    1.504602
    10  H    1.809422
    11  H    1.524163
    12  C   -3.894340
    13  C   -4.158836
    14  H    1.223285
    15  H    1.130645
    16  C   -1.041714
    17  H    1.508499
    18  H    1.370681
    19  F    0.235457
    20  F    0.147808
    21  H    1.784314
 Sum of Mulliken charges =   0.00000

 Dipole moment (field-independent basis, Debye):
    X=              0.8124    Y=              0.4992    Z=              0.2499  Tot=              0.9857

 Test job not archived.
 1\1\GINC-SE457\SP\RHF\Aug-CC-pVDZ\C9H10F2\OHZDE\08-Apr-2025\0\\#t hf a
 ug-cc-pvdz iop(5/13=1,5/36=2,99/5=2) pseudo=read geom=check guess=(rea
 d,tcheck) scf=(maxcycle=1)\\title\\0,1\C,0,-0.780237,-0.366559,0.59281
 4\C,0,-1.634247,-1.269989,-0.050361\C,0,-2.813824,-0.837321,-0.650424\
 C,0,-3.161642,0.511936,-0.616748\C,0,-2.322739,1.421589,0.022161\C,0,-
 1.142928,0.984359,0.62183\H,0,-0.495134,1.698396,1.120169\H,0,-4.08133
 5,0.849915,-1.080594\H,0,-2.587415,2.47254,0.058491\H,0,-1.376972,-2.3
 24718,-0.073538\H,0,-3.464732,-1.553992,-1.138971\C,0,1.668734,-1.0362

 Normal termination of Gaussian 16 at Tue Apr  8 22:36:18 2025.
