 Gaussian 16, Revision C.01,

 ----------------------------------------------------------------------
 #t hf aug-cc-pvdz symm=none int=(grid=ultrafine) guess=(read,tcheck) s
 table=(opt,rrhf)
 ----------------------------------------------------------------------
 -----
 title
 -----
 Symbolic Z-matrix:
 Charge =  0 Multiplicity = 1

 SCF Done:  E(RHF) =  -675.032763692     A.U. after   16 cycles
 Normal termination of Gaussian 16 at Wed Apr  9 00:54:31 2025.
 Gaussian 16:  ES64L-G16RevC.01  3-Jul-2019

 ----------------------------------------------------------------------
 #t hf aug-cc-pvdz iop(5/13=1,5/36=2,99/5=2) pseudo=read geom=check gue
 ss=(read,tcheck) scf=(maxcycle=1)
 ----------------------------------------------------------------------
 -----
 title
 -----
 Structure from the checkpoint file:  "BDE49_nonexpt_965_mol1.chk"
 Charge =  0 Multiplicity = 1

                         Standard orientation:
 ---------------------------------------------------------------------
 Center     Atomic      Atomic             Coordinates (Angstroms)
 Number     Number       Type             X           Y           Z
 ---------------------------------------------------------------------
      1          6           0        0.972849    0.282347   -0.137414
      2          6           0       -0.483840    0.069104   -0.087556
      3          6           0       -1.315658    0.956517    0.609885
      4          1           0       -0.889981    1.814956    1.109081
      5          6           0       -2.684608    0.725853    0.660456
      6          1           0       -3.321935    1.411370    1.206375
      7          6           0       -3.237083   -0.378160    0.012760
      8          1           0       -4.306636   -0.549957    0.051389
      9          6           0       -2.414015   -1.260981   -0.682694
     10          1           0       -2.839474   -2.119585   -1.188518
     11          6           0       -1.041607   -1.045755   -0.730201
     12          1           0       -0.401417   -1.732889   -1.267785
     13          7           0        1.734758   -0.958561   -0.160607
     14          7           0        1.672895    1.344349   -0.251925
     15          9           0        1.538536   -1.528712    1.116588
     16          9           0        3.085536   -0.668261   -0.163155
     17          9           0        0.834777    2.461644   -0.386124
 ---------------------------------------------------------------------

 SCF Done:  E(RHF) =  -677.790040907     A.U. after    2 cycles

 The electronic state is 1-A.
 Alpha  occ. eigenvalues --  -29.32065 -29.31693 -29.28833 -15.91984 -15.84135
 Alpha  occ. eigenvalues --  -11.55396 -11.53182 -11.46456 -11.46359 -11.44264
 Alpha  occ. eigenvalues --  -11.43260 -11.39277  -1.60759  -1.42343  -1.36032
 Alpha  occ. eigenvalues --   -1.15065  -1.12205  -0.98921  -0.90002  -0.89314
 Alpha  occ. eigenvalues --   -0.85263  -0.76476  -0.74031  -0.70666  -0.67147
 Alpha  occ. eigenvalues --   -0.63775  -0.60808  -0.59375  -0.56172  -0.53089
 Alpha  occ. eigenvalues --   -0.51926  -0.48405  -0.47656  -0.45357  -0.41363
 Alpha  occ. eigenvalues --   -0.39031  -0.37044  -0.35863  -0.34505  -0.30860
 Alpha  occ. eigenvalues --   -0.25859  -0.24734  -0.22462  -0.21965
 Alpha virt. eigenvalues --    0.03040   0.04660   0.04742   0.06464   0.07044
 Alpha virt. eigenvalues --    0.07924   0.09626   0.09931   0.10970   0.11764
 Alpha virt. eigenvalues --    0.12360   0.12931   0.13087   0.13452   0.13672

 Mulliken charges:
               1
     1  C   -0.093460
     2  C    4.738987
     3  C   -1.857300
     4  H    1.689907
     5  C   -1.407560
     6  H    1.469763
     7  C   -2.875647
     8  H    1.558927
     9  C   -1.660816
    10  H    1.498880
    11  C   -1.967885
    12  H    1.655458
    13  N   -0.605561
    14  N   -1.608536
    15  F   -0.155468
    16  F   -0.231011
    17  F   -0.148677
 Sum of Mulliken charges =  -0.00000

 Dipole moment (field-independent basis, Debye):
    X=             -2.0551    Y=              0.5401    Z=              1.1450  Tot=              2.4138

 Test job not archived.
 1\1\GINC-SE419\SP\RHF\Aug-CC-pVDZ\C7H5F3N2\OHZDE\09-Apr-2025\0\\#t hf
 aug-cc-pvdz iop(5/13=1,5/36=2,99/5=2) pseudo=read geom=check guess=(re
 ad,tcheck) scf=(maxcycle=1)\\title\\0,1\C,0,0.972849,0.282347,-0.13741
 4\C,0,-0.48384,0.069104,-0.087556\C,0,-1.315658,0.956517,0.609885\H,0,
 -0.889981,1.814956,1.109081\C,0,-2.684608,0.725853,0.660456\H,0,-3.321
 935,1.41137,1.206375\C,0,-3.237083,-0.37816,0.01276\H,0,-4.306636,-0.5
 49957,0.051389\C,0,-2.414015,-1.260981,-0.682694\H,0,-2.839474,-2.1195
 85,-1.188518\C,0,-1.041607,-1.045755,-0.730201\H,0,-0.401417,-1.732889

 Normal termination of Gaussian 16 at Wed Apr  9 00:54:41 2025.
