 Gaussian 16, Revision C.01,

 ----------------------------------------------------------------------
 #t hf aug-cc-pvdz symm=none int=(grid=ultrafine) guess=(read,tcheck) s
 table=(opt,rrhf)
 ----------------------------------------------------------------------
 -----
 title
 -----
 Symbolic Z-matrix:
 Charge =  0 Multiplicity = 1

 SCF Done:  E(RHF) =  -1723.26331550     A.U. after   17 cycles
 Normal termination of Gaussian 16 at Tue Apr  8 23:44:46 2025.
 Gaussian 16:  ES64L-G16RevC.01  3-Jul-2019

 ----------------------------------------------------------------------
 #t hf aug-cc-pvdz iop(5/13=1,5/36=2,99/5=2) pseudo=read geom=check gue
 ss=(read,tcheck) scf=(maxcycle=1)
 ----------------------------------------------------------------------
 -----
 title
 -----
 Structure from the checkpoint file:  "BDE49_nonexpt_1695_mol1.chk"
 Charge =  0 Multiplicity = 1

                         Standard orientation:
 ---------------------------------------------------------------------
 Center     Atomic      Atomic             Coordinates (Angstroms)
 Number     Number       Type             X           Y           Z
 ---------------------------------------------------------------------
      1         14           0       -0.453274    0.037411    0.306467
      2          7           0       -1.301311   -1.411917   -0.519174
      3          7           0       -0.907920    1.452932   -0.839488
      4         15           0        1.793900   -0.283782    0.162489
      5         17           0       -1.297222    0.417845    2.101501
      6          8           0        2.021761   -0.419977   -1.412562
      7          8           0       -1.998416    1.499215   -1.374420
      8          8           0       -2.356964   -1.873957   -0.150286
      9          8           0       -0.014615    2.297710   -0.955336
     10          8           0       -0.634813   -1.809425   -1.485773
     11          8           0        2.209048   -1.368075    1.047112
     12          1           0        1.573465   -1.192179   -1.792141
     13          8           0        2.429833    1.137622    0.456987
     14          1           0        2.134598    1.829776   -0.156390
 ---------------------------------------------------------------------

 SCF Done:  E(RHF) =  -1726.45387762     A.U. after    2 cycles

 The electronic state is 1-A.
 Alpha  occ. eigenvalues -- -105.35874 -99.97180 -76.40247 -21.15995 -21.15711
 Alpha  occ. eigenvalues --  -21.15638 -21.15611 -21.14472 -21.14126 -21.06843
 Alpha  occ. eigenvalues --  -16.02261 -16.02227 -10.54580  -9.74497  -9.73854
 Alpha  occ. eigenvalues --   -9.73804  -5.74045  -2.98008  -2.37545  -2.37279
 Alpha  occ. eigenvalues --   -2.35841  -2.04436  -2.02877  -2.02846  -1.95354
 Alpha  occ. eigenvalues --   -1.81897  -1.74065  -1.73804  -1.55822  -1.43980
 Alpha  occ. eigenvalues --   -1.37748  -1.28920  -1.09364  -1.01415  -0.80786
 Alpha  occ. eigenvalues --   -0.75624  -0.74699  -0.72586  -0.69526  -0.68567
 Alpha  occ. eigenvalues --   -0.65893  -0.65476  -0.64431  -0.61539  -0.60977
 Alpha  occ. eigenvalues --   -0.56357  -0.48378  -0.46836  -0.42787  -0.40084
 Alpha  occ. eigenvalues --   -0.38967  -0.38140  -0.37249  -0.36657  -0.35768
 Alpha  occ. eigenvalues --   -0.35312  -0.31360  -0.28899  -0.19343
 Alpha virt. eigenvalues --    0.03724   0.04639   0.04900   0.05502   0.06282
 Alpha virt. eigenvalues --    0.06878   0.06929   0.09402   0.09806   0.10423
 Alpha virt. eigenvalues --    0.10871   0.11549   0.12129   0.12759   0.13429

 Mulliken charges:
               1
     1  Si   3.069647
     2  N    3.782668
     3  N    3.518652
     4  P    7.271597
     5  Cl  -1.028323
     6  O   -3.114718
     7  O   -2.388731
     8  O   -2.496682
     9  O   -2.193639
    10  O   -2.270184
    11  O   -3.140668
    12  H    1.144092
    13  O   -3.272120
    14  H    1.118407
 Sum of Mulliken charges =  -0.00000

 Dipole moment (field-independent basis, Debye):
    X=              2.0521    Y=              1.5357    Z=             -1.8844  Tot=              3.1813

 Test job not archived.
 1\1\GINC-SE454\SP\RHF\Aug-CC-pVDZ\Cl1H2N2O7P1Si1\OHZDE\08-Apr-2025\0\\
 #t hf aug-cc-pvdz iop(5/13=1,5/36=2,99/5=2) pseudo=read geom=check gue
 ss=(read,tcheck) scf=(maxcycle=1)\\title\\0,1\Si,0,-0.453274,0.037411,
 0.306467\N,0,-1.301312,-1.411916,-0.519174\N,0,-0.90792,1.452932,-0.83
 9488\P,0,1.7939,-0.283782,0.162489\Cl,0,-1.297222,0.417846,2.101501\O,
 0,2.021761,-0.419977,-1.412562\O,0,-1.998416,1.499216,-1.37442\O,0,-2.
 356965,-1.873956,-0.150286\O,0,-0.014614,2.29771,-0.955336\O,0,-0.6348
 14,-1.809425,-1.485773\O,0,2.209048,-1.368076,1.047112\H,0,1.573465,-1

 Normal termination of Gaussian 16 at Tue Apr  8 23:44:54 2025.
