 Gaussian 16, Revision C.01,

 ----------------------------------------------------------------------
 #t hf aug-cc-pvdz symm=none int=(grid=ultrafine) guess=(read,tcheck) s
 table=(opt,rrhf)
 ----------------------------------------------------------------------
 -----
 title
 -----
 Symbolic Z-matrix:
 Charge =  0 Multiplicity = 1

 SCF Done:  E(RHF) =  -651.995604223     A.U. after   14 cycles
 Normal termination of Gaussian 16 at Tue Apr  8 23:17:55 2025.
 Gaussian 16:  ES64L-G16RevC.01  3-Jul-2019

 ----------------------------------------------------------------------
 #t hf aug-cc-pvdz iop(5/13=1,5/36=2,99/5=2) pseudo=read geom=check gue
 ss=(read,tcheck) scf=(maxcycle=1)
 ----------------------------------------------------------------------
 -----
 title
 -----
 Structure from the checkpoint file:  "BDE49_nonexpt_1039_mol1.chk"
 Charge =  0 Multiplicity = 1

                         Standard orientation:
 ---------------------------------------------------------------------
 Center     Atomic      Atomic             Coordinates (Angstroms)
 Number     Number       Type             X           Y           Z
 ---------------------------------------------------------------------
      1         17           0       -2.098452   -0.166139    0.067273
      2          8           0       -0.437983   -0.210201   -0.437300
      3          6           0        0.346608    0.762415    0.271848
      4          6           0        1.778292    0.576455   -0.218785
      5          1           0       -0.022514    1.768624    0.047669
      6          6           0        2.393683   -0.773361    0.160003
      7          1           0        2.366916    1.396478    0.208390
      8          1           0        1.794586    0.712755   -1.304619
      9          1           0        2.420914   -0.902292    1.246275
     10          1           0        3.418358   -0.851182   -0.211281
     11          1           0        0.271591    0.586534    1.350938
     12          1           0        1.816202   -1.598003   -0.260997
 ---------------------------------------------------------------------

 SCF Done:  E(RHF) =  -653.159832012     A.U. after    2 cycles

 The electronic state is 1-A.
 Alpha  occ. eigenvalues --  -99.92913 -21.10659 -11.44948 -11.40182 -11.36044
 Alpha  occ. eigenvalues --  -10.49668  -9.69599  -9.68751  -9.68625  -1.77537
 Alpha  occ. eigenvalues --   -1.26057  -1.17192  -0.98454  -0.85008  -0.66540
 Alpha  occ. eigenvalues --   -0.66383  -0.60800  -0.58067  -0.56377  -0.54804
 Alpha  occ. eigenvalues --   -0.49472  -0.48019  -0.45783  -0.42805  -0.34231
 Alpha virt. eigenvalues --    0.03231   0.05173   0.05494   0.05805   0.06272
 Alpha virt. eigenvalues --    0.06300   0.07015   0.07447   0.09605   0.10825
 Alpha virt. eigenvalues --    0.13725   0.14305   0.15163   0.15547   0.16240

 Mulliken charges:
               1
     1  Cl   0.493135
     2  O   -1.881536
     3  C   -1.090903
     4  C   -3.388555
     5  H    1.344907
     6  C   -3.638689
     7  H    1.335008
     8  H    1.462972
     9  H    1.293875
    10  H    1.154734
    11  H    1.536014
    12  H    1.379037
 Sum of Mulliken charges =   0.00000

 Dipole moment (field-independent basis, Debye):
    X=              3.1249    Y=              0.6857    Z=             -0.1783  Tot=              3.2042

 Test job not archived.
 1\1\GINC-SE340\SP\RHF\Aug-CC-pVDZ\C3H7Cl1O1\OHZDE\08-Apr-2025\0\\#t hf
  aug-cc-pvdz iop(5/13=1,5/36=2,99/5=2) pseudo=read geom=check guess=(r
 ead,tcheck) scf=(maxcycle=1)\\title\\0,1\Cl,0,-2.098452,-0.166139,0.06
 7273\O,0,-0.437983,-0.210201,-0.4373\C,0,0.346608,0.762415,0.271848\C,
 0,1.778292,0.576455,-0.218785\H,0,-0.022514,1.768624,0.047669\C,0,2.39
 3683,-0.773361,0.160003\H,0,2.366916,1.396478,0.20839\H,0,1.794586,0.7
 12755,-1.304619\H,0,2.420914,-0.902292,1.246275\H,0,3.418358,-0.851182
 ,-0.211281\H,0,0.271591,0.586534,1.350938\H,0,1.816202,-1.598003,-0.26

 Normal termination of Gaussian 16 at Tue Apr  8 23:17:58 2025.
