 Gaussian 16, Revision C.01,

 ----------------------------------------------------------------------
 #t hf aug-cc-pvdz symm=none int=(grid=ultrafine) guess=(read,tcheck) s
 table=(opt,rrhf)
 ----------------------------------------------------------------------
 -----
 title
 -----
 Symbolic Z-matrix:
 Charge =  0 Multiplicity = 1

 SCF Done:  E(RHF) =  -794.680132139     A.U. after   15 cycles
 Normal termination of Gaussian 16 at Tue Apr  8 23:27:45 2025.
 Gaussian 16:  ES64L-G16RevC.01  3-Jul-2019

 ----------------------------------------------------------------------
 #t hf aug-cc-pvdz iop(5/13=1,5/36=2,99/5=2) pseudo=read geom=check gue
 ss=(read,tcheck) scf=(maxcycle=1)
 ----------------------------------------------------------------------
 -----
 title
 -----
 Structure from the checkpoint file:  "BDE49_nonexpt_1275_mol1.chk"
 Charge =  0 Multiplicity = 1

                         Standard orientation:
 ---------------------------------------------------------------------
 Center     Atomic      Atomic             Coordinates (Angstroms)
 Number     Number       Type             X           Y           Z
 ---------------------------------------------------------------------
      1          8           0       -1.255166   -1.062935    0.050504
      2          6           0       -2.574643   -0.755121    0.061105
      3          6           0       -0.573147    0.123565   -0.021723
      4          6           0       -2.759866    0.591918   -0.000187
      5          6           0       -1.454078    1.166158   -0.053422
      6          1           0       -3.705189    1.110063   -0.009049
      7          1           0       -3.249577   -1.593119    0.113378
      8          1           0       -1.186583    2.208598   -0.113136
      9         15           0        1.202350    0.142359   -0.033313
     10          8           0        1.719181   -0.727122    1.224911
     11          8           0        1.742286    1.504596   -0.076510
     12          1           0        1.936877   -0.157231    1.972504
     13          8           0        1.531338   -0.872218   -1.220547
     14          1           0        2.438512   -1.201366   -1.205500
 ---------------------------------------------------------------------

 SCF Done:  E(RHF) =  -796.840931960     A.U. after    2 cycles

 The electronic state is 1-A.
 Alpha  occ. eigenvalues -- -105.31247 -21.13154 -21.11713 -21.11625 -21.02051
 Alpha  occ. eigenvalues --  -11.49975 -11.45783 -11.43828 -11.38881  -2.93599
 Alpha  occ. eigenvalues --   -1.99003  -1.89405  -1.86445  -1.80808  -1.56197
 Alpha  occ. eigenvalues --   -1.40328  -1.25840  -1.21392  -1.05284  -0.82360
 Alpha  occ. eigenvalues --   -0.78978  -0.75197  -0.66897  -0.61852  -0.59266
 Alpha  occ. eigenvalues --   -0.55295  -0.54638  -0.52389  -0.45292  -0.44676
 Alpha  occ. eigenvalues --   -0.41836  -0.35878  -0.35042  -0.34721  -0.33253
 Alpha  occ. eigenvalues --   -0.29403  -0.27783  -0.15977
 Alpha virt. eigenvalues --    0.03089   0.04858   0.05465   0.05992   0.06290
 Alpha virt. eigenvalues --    0.08999   0.10325   0.10506   0.12005   0.12076
 Alpha virt. eigenvalues --    0.12847   0.13294   0.13430   0.14466   0.15036

 Mulliken charges:
               1
     1  O   -4.168072
     2  C   -0.257058
     3  C    0.252175
     4  C   -0.826978
     5  C   -2.481698
     6  H    1.274931
     7  H    1.560981
     8  H    1.393713
     9  P   10.279646
    10  O   -2.772286
    11  O   -2.985549
    12  H    0.728672
    13  O   -2.959392
    14  H    0.960915
 Sum of Mulliken charges =   0.00000

 Dipole moment (field-independent basis, Debye):
    X=             -1.7904    Y=             -2.8481    Z=              0.5053  Tot=              3.4018

 Test job not archived.
 1\1\GINC-SE227\SP\RHF\Aug-CC-pVDZ\C4H5O4P1\OHZDE\08-Apr-2025\0\\#t hf
 aug-cc-pvdz iop(5/13=1,5/36=2,99/5=2) pseudo=read geom=check guess=(re
 ad,tcheck) scf=(maxcycle=1)\\title\\0,1\O,0,-1.255166,-1.062935,0.0505
 04\C,0,-2.574643,-0.755121,0.061105\C,0,-0.573147,0.123565,-0.021723\C
 ,0,-2.759866,0.591918,-0.000187\C,0,-1.454078,1.166158,-0.053422\H,0,-
 3.705189,1.110063,-0.009049\H,0,-3.249577,-1.593119,0.113378\H,0,-1.18
 6583,2.208598,-0.113136\P,0,1.20235,0.142359,-0.033313\O,0,1.719181,-0
 .727122,1.224911\O,0,1.742286,1.504596,-0.07651\H,0,1.936877,-0.157231

 Normal termination of Gaussian 16 at Tue Apr  8 23:27:51 2025.
