 Gaussian 16, Revision C.01,

 ----------------------------------------------------------------------
 #t hf aug-cc-pvdz symm=none int=(grid=ultrafine) guess=(read,tcheck) s
 table=(opt,rrhf)
 ----------------------------------------------------------------------
 -----
 title
 -----
 Symbolic Z-matrix:
 Charge =  0 Multiplicity = 1

 SCF Done:  E(RHF) =  -958.753393527     A.U. after   14 cycles
 Normal termination of Gaussian 16 at Wed Apr  9 00:12:05 2025.
 Gaussian 16:  ES64L-G16RevC.01  3-Jul-2019

 ----------------------------------------------------------------------
 #t hf aug-cc-pvdz iop(5/13=1,5/36=2,99/5=2) pseudo=read geom=check gue
 ss=(read,tcheck) scf=(maxcycle=1)
 ----------------------------------------------------------------------
 -----
 title
 -----
 Structure from the checkpoint file:  "BDE49_nonexpt_2366_mol1.chk"
 Charge =  0 Multiplicity = 1

                         Standard orientation:
 ---------------------------------------------------------------------
 Center     Atomic      Atomic             Coordinates (Angstroms)
 Number     Number       Type             X           Y           Z
 ---------------------------------------------------------------------
      1         14           0       -0.803743   -1.240924    0.866937
      2         14           0        0.803743   -1.240924   -0.866937
      3          8           0       -1.630351    0.236285    0.912415
      4          1           0       -0.204190   -1.286657    2.218971
      5          1           0       -1.751247   -2.371325    0.706936
      6          8           0       -2.298056    0.361560   -0.392539
      7          6           0       -2.081264    1.696575   -0.820677
      8          1           0       -2.641637    1.773692   -1.755466
      9          1           0       -1.020145    1.890086   -1.004110
     10          1           0       -2.479249    2.404924   -0.088805
     11          8           0        1.630351    0.236285   -0.912415
     12          1           0        0.204190   -1.286658   -2.218971
     13          1           0        1.751247   -2.371325   -0.706936
     14          8           0        2.298056    0.361560    0.392539
     15          6           0        2.081264    1.696576    0.820677
     16          1           0        2.641637    1.773693    1.755466
     17          1           0        1.020145    1.890087    1.004110
     18          1           0        2.479248    2.404924    0.088804
 ---------------------------------------------------------------------

 SCF Done:  E(RHF) =  -960.687983143     A.U. after    2 cycles

 The electronic state is 1-A.
 Alpha  occ. eigenvalues --  -76.24260 -76.24244 -21.10475 -21.10467 -21.08403
 Alpha  occ. eigenvalues --  -21.08395 -11.41385 -11.41297  -5.57813  -5.57805
 Alpha  occ. eigenvalues --   -2.23753  -2.23735  -2.19748  -2.19495  -2.19333
 Alpha  occ. eigenvalues --   -2.18284  -1.92034  -1.92011  -1.43899  -1.43813
 Alpha  occ. eigenvalues --   -0.97020  -0.96954  -0.78734  -0.70923  -0.63425
 Alpha  occ. eigenvalues --   -0.62887  -0.62561  -0.61808  -0.57109  -0.56490
 Alpha  occ. eigenvalues --   -0.50959  -0.48836  -0.47943  -0.47431  -0.44241
 Alpha  occ. eigenvalues --   -0.43527  -0.36587  -0.35688  -0.34627  -0.28881
 Alpha  occ. eigenvalues --   -0.28215
 Alpha virt. eigenvalues --    0.04039   0.04817   0.04935   0.05161   0.05829
 Alpha virt. eigenvalues --    0.05970   0.06969   0.07021   0.08297   0.08534
 Alpha virt. eigenvalues --    0.08794   0.09443   0.09844   0.09859   0.11706

 Mulliken charges:
               1
     1  Si   4.955100
     2  Si   4.955099
     3  O   -1.332224
     4  H   -1.669467
     5  H   -1.902196
     6  O   -1.501810
     7  C   -2.760243
     8  H    1.278779
     9  H    1.568962
    10  H    1.363100
    11  O   -1.332224
    12  H   -1.669467
    13  H   -1.902196
    14  O   -1.501808
    15  C   -2.760247
    16  H    1.278779
    17  H    1.568962
    18  H    1.363101
 Sum of Mulliken charges =  -0.00000

 Dipole moment (field-independent basis, Debye):
    X=              0.0000    Y=              1.9901    Z=              0.0000  Tot=              1.9901

 Test job not archived.
 1\1\GINC-SE162\SP\RHF\Aug-CC-pVDZ\C2H10O4Si2\OHZDE\09-Apr-2025\0\\#t h
 f aug-cc-pvdz iop(5/13=1,5/36=2,99/5=2) pseudo=read geom=check guess=(
 read,tcheck) scf=(maxcycle=1)\\title\\0,1\Si,0,-0.803743,-1.240924,0.8
 66937\Si,0,0.803743,-1.240924,-0.866937\O,0,-1.630351,0.236285,0.91241
 5\H,0,-0.20419,-1.286657,2.218971\H,0,-1.751247,-2.371325,0.706936\O,0
 ,-2.298056,0.36156,-0.392539\C,0,-2.081264,1.696575,-0.820677\H,0,-2.6
 41637,1.773692,-1.755466\H,0,-1.020145,1.890086,-1.00411\H,0,-2.479249
 ,2.404924,-0.088805\O,0,1.630351,0.236285,-0.912415\H,0,0.20419,-1.286

 Normal termination of Gaussian 16 at Wed Apr  9 00:12:13 2025.
