 Gaussian 16, Revision C.01,

 ----------------------------------------------------------------------
 #t hf aug-cc-pvdz symm=none int=(grid=ultrafine) guess=(read,tcheck) s
 table=(opt,rrhf)
 ----------------------------------------------------------------------
 -----
 title
 -----
 Symbolic Z-matrix:
 Charge =  0 Multiplicity = 1

 SCF Done:  E(RHF) =  -972.347768885     A.U. after   17 cycles
 Normal termination of Gaussian 16 at Wed Apr  9 00:49:30 2025.
 Gaussian 16:  ES64L-G16RevC.01  3-Jul-2019

 ----------------------------------------------------------------------
 #t hf aug-cc-pvdz iop(5/13=1,5/36=2,99/5=2) pseudo=read geom=check gue
 ss=(read,tcheck) scf=(maxcycle=1)
 ----------------------------------------------------------------------
 -----
 title
 -----
 Structure from the checkpoint file:  "BDE49_nonexpt_857_mol1.chk"
 Charge =  0 Multiplicity = 1

                         Standard orientation:
 ---------------------------------------------------------------------
 Center     Atomic      Atomic             Coordinates (Angstroms)
 Number     Number       Type             X           Y           Z
 ---------------------------------------------------------------------
      1         14           0        0.063794   -0.140628    0.480032
      2          7           0        1.131376   -1.229558   -0.562389
      3          5           0       -1.909000   -0.248421    0.007210
      4          7           0        0.727838    1.540000   -0.018207
      5          9           0        0.513672   -0.309513    1.993186
      6          8           0       -0.110778    2.330356   -0.476420
      7          8           0       -2.531195    0.803205   -0.552755
      8          8           0        0.847631   -1.022112   -1.749462
      9          8           0       -2.512758   -1.421423    0.290299
     10          8           0        1.951617   -2.022044   -0.148830
     11          8           0        1.905682    1.795766    0.140927
     12          1           0       -3.444584   -1.449639    0.035544
     13          1           0       -1.942664    1.563087   -0.696626
 ---------------------------------------------------------------------

 SCF Done:  E(RHF) =  -975.211878681     A.U. after    2 cycles

 The electronic state is 1-A.
 Alpha  occ. eigenvalues --  -76.37021 -29.34516 -21.14548 -21.14148 -21.13154
 Alpha  occ. eigenvalues --  -21.12791 -21.11068 -21.10067 -16.00636 -16.00345
 Alpha  occ. eigenvalues --   -7.71397  -5.71827  -2.37714  -2.34747  -2.34035
 Alpha  occ. eigenvalues --   -2.01646  -2.01174  -1.85714  -1.72733  -1.72303
 Alpha  occ. eigenvalues --   -1.71034  -1.11049  -1.00298  -0.87796  -0.80483
 Alpha  occ. eigenvalues --   -0.74911  -0.73773  -0.70260  -0.68897  -0.67388
 Alpha  occ. eigenvalues --   -0.64869  -0.63839  -0.62419  -0.54410  -0.49221
 Alpha  occ. eigenvalues --   -0.46407  -0.43597  -0.43231  -0.40826  -0.37490
 Alpha  occ. eigenvalues --   -0.36796  -0.35355  -0.34924  -0.34548  -0.33581
 Alpha  occ. eigenvalues --   -0.32916
 Alpha virt. eigenvalues --    0.02688   0.04626   0.05032   0.06109   0.06478
 Alpha virt. eigenvalues --    0.07143   0.07873   0.08493   0.08972   0.09141
 Alpha virt. eigenvalues --    0.09776   0.12192   0.13785   0.14135   0.16287

 Mulliken charges:
               1
     1  Si   2.922887
     2  N    3.525977
     3  B    5.602066
     4  N    3.802581
     5  F   -1.120803
     6  O   -2.271026
     7  O   -4.446371
     8  O   -2.169672
     9  O   -3.944217
    10  O   -2.436913
    11  O   -2.507274
    12  H    1.251247
    13  H    1.791520
 Sum of Mulliken charges =  -0.00000

 Dipole moment (field-independent basis, Debye):
    X=             -1.5359    Y=             -0.5826    Z=              3.3616  Tot=              3.7415

 Test job not archived.
 1\1\GINC-SE049\SP\RHF\Aug-CC-pVDZ\B1F1H2N2O6Si1\OHZDE\09-Apr-2025\0\\#
 t hf aug-cc-pvdz iop(5/13=1,5/36=2,99/5=2) pseudo=read geom=check gues
 s=(read,tcheck) scf=(maxcycle=1)\\title\\0,1\Si,0,0.063794,-0.140628,0
 .480032\N,0,1.131376,-1.229558,-0.562389\B,0,-1.909,-0.248422,0.00721\
 N,0,0.727837,1.54,-0.018207\F,0,0.513672,-0.309513,1.993186\O,0,-0.110
 779,2.330356,-0.47642\O,0,-2.531195,0.803204,-0.552755\O,0,0.847631,-1
 .022112,-1.749462\O,0,-2.512758,-1.421424,0.290299\O,0,1.951618,-2.022
 043,-0.14883\O,0,1.905681,1.795767,0.140927\H,0,-3.444584,-1.44964,0.0

 Normal termination of Gaussian 16 at Wed Apr  9 00:49:36 2025.
