 Gaussian 16, Revision C.01,

 ----------------------------------------------------------------------
 #t hf aug-cc-pvdz symm=none int=(grid=ultrafine) guess=(read,tcheck) s
 table=(opt,rrhf)
 ----------------------------------------------------------------------
 -----
 title
 -----
 Symbolic Z-matrix:
 Charge =  0 Multiplicity = 1

 SCF Done:  E(RHF) =  -989.530718684     A.U. after   14 cycles
 Normal termination of Gaussian 16 at Wed Apr  9 00:19:38 2025.
 Gaussian 16:  ES64L-G16RevC.01  3-Jul-2019

 ----------------------------------------------------------------------
 #t hf aug-cc-pvdz iop(5/13=1,5/36=2,99/5=2) pseudo=read geom=check gue
 ss=(read,tcheck) scf=(maxcycle=1)
 ----------------------------------------------------------------------
 -----
 title
 -----
 Structure from the checkpoint file:  "BDE49_nonexpt_2581_mol1.chk"
 Charge =  0 Multiplicity = 1

                         Standard orientation:
 ---------------------------------------------------------------------
 Center     Atomic      Atomic             Coordinates (Angstroms)
 Number     Number       Type             X           Y           Z
 ---------------------------------------------------------------------
      1         17           0       -2.175586   -0.547768   -0.000032
      2         16           0       -0.654220    0.866745    0.000026
      3          6           0        0.779905   -0.194874    0.000003
      4          7           0        1.901350    0.365416    0.000025
      5          1           0        0.563346   -1.270493   -0.000037
      6          6           0        3.100877   -0.454342   -0.000000
      7          1           0        3.701414   -0.207179    0.879682
      8          1           0        3.701418   -0.207120   -0.879662
      9          1           0        2.892166   -1.533695   -0.000037
 ---------------------------------------------------------------------

 SCF Done:  E(RHF) =  -990.624315952     A.U. after    2 cycles

 The electronic state is 1-A.
 Alpha  occ. eigenvalues --  -99.91646 -75.75261 -15.75502 -13.17380 -13.11360
 Alpha  occ. eigenvalues --  -13.06365 -11.45901 -11.40291 -10.48780  -9.68531
 Alpha  occ. eigenvalues --   -9.67930  -9.67759  -8.09155  -1.42602  -1.33722
 Alpha  occ. eigenvalues --   -1.13124  -0.99750  -0.82360  -0.66339  -0.62917
 Alpha  occ. eigenvalues --   -0.60911  -0.56195  -0.56166  -0.54937  -0.45762
 Alpha  occ. eigenvalues --   -0.44942  -0.37081  -0.25713
 Alpha virt. eigenvalues --    0.03246   0.04689   0.05393   0.06279   0.06374
 Alpha virt. eigenvalues --    0.07154   0.10363   0.11361   0.12527   0.12656
 Alpha virt. eigenvalues --    0.13932   0.14190   0.14909   0.16292   0.16496

 Mulliken charges:
               1
     1  Cl  -0.432975
     2  S    1.084329
     3  C   -0.398925
     4  N   -2.446104
     5  H    1.390787
     6  C   -3.095610
     7  H    1.338374
     8  H    1.338373
     9  H    1.221751
 Sum of Mulliken charges =  -0.00000

 Dipole moment (field-independent basis, Debye):
    X=              2.0596    Y=              1.3344    Z=              0.0000  Tot=              2.4541

 Test job not archived.
 1\1\GINC-SE090\SP\RHF\Aug-CC-pVDZ\C2H4Cl1N1S1\OHZDE\09-Apr-2025\0\\#t
 hf aug-cc-pvdz iop(5/13=1,5/36=2,99/5=2) pseudo=read geom=check guess=
 (read,tcheck) scf=(maxcycle=1)\\title\\0,1\Cl,0,-2.175586,-0.547768,-0
 .000032\S,0,-0.65422,0.866745,0.000026\C,0,0.779905,-0.194874,0.000003
 \N,0,1.90135,0.365416,0.000025\H,0,0.563346,-1.270493,-0.000037\C,0,3.
 100877,-0.454342,0.\H,0,3.701414,-0.207179,0.879682\H,0,3.701418,-0.20
 712,-0.879662\H,0,2.892166,-1.533695,-0.000037\\Version=ES64L-G16RevC.
 01\State=1-A\HF=-990.624316\RMSD=7.385e-02\Dipole=0.810327,0.5249952,0

 Normal termination of Gaussian 16 at Wed Apr  9 00:19:42 2025.
