 Gaussian 16, Revision C.01,

 ----------------------------------------------------------------------
 #t hf aug-cc-pvdz symm=none int=(grid=ultrafine) guess=(read,tcheck) s
 table=(opt,rrhf)
 ----------------------------------------------------------------------
 -----
 title
 -----
 Symbolic Z-matrix:
 Charge =  0 Multiplicity = 1

 SCF Done:  E(RHF) =  -1046.82270683     A.U. after   15 cycles
 Normal termination of Gaussian 16 at Wed Apr  9 00:22:42 2025.
 Gaussian 16:  ES64L-G16RevC.01  3-Jul-2019

 ----------------------------------------------------------------------
 #t hf aug-cc-pvdz iop(5/13=1,5/36=2,99/5=2) pseudo=read geom=check gue
 ss=(read,tcheck) scf=(maxcycle=1)
 ----------------------------------------------------------------------
 -----
 title
 -----
 Structure from the checkpoint file:  "BDE49_nonexpt_2669_mol1.chk"
 Charge =  0 Multiplicity = 1

                         Standard orientation:
 ---------------------------------------------------------------------
 Center     Atomic      Atomic             Coordinates (Angstroms)
 Number     Number       Type             X           Y           Z
 ---------------------------------------------------------------------
      1          9           0        2.263064    0.902719    0.000156
      2         16           0        1.425447   -0.551278   -0.000022
      3          6           0       -0.234114   -0.100964   -0.000254
      4         16           0       -1.222181   -1.421031    0.000128
      5          8           0       -0.513437    1.182745   -0.000182
      6          6           0       -1.904530    1.583132   -0.000025
      7          1           0       -1.877039    2.669314    0.000009
      8          1           0       -2.401628    1.204068    0.892958
      9          1           0       -2.401806    1.204126   -0.892933
 ---------------------------------------------------------------------

 SCF Done:  E(RHF) =  -1048.28699138     A.U. after    2 cycles

 The electronic state is 1-A.
 Alpha  occ. eigenvalues --  -75.79498 -75.67835 -29.28449 -21.14578 -13.24482
 Alpha  occ. eigenvalues --  -13.20928 -13.14616 -13.09854 -13.03047 -12.99345
 Alpha  occ. eigenvalues --  -11.54165 -11.44619  -8.13606  -8.02049  -1.85798
 Alpha  occ. eigenvalues --   -1.29881  -1.13365  -1.05082  -0.81669  -0.71814
 Alpha  occ. eigenvalues --   -0.65839  -0.64676  -0.57395  -0.53823  -0.52718
 Alpha  occ. eigenvalues --   -0.41568  -0.41028  -0.35470  -0.30650  -0.30648
 Alpha  occ. eigenvalues --   -0.24146  -0.18470
 Alpha virt. eigenvalues --    0.02547   0.05699   0.05994   0.06385   0.07652
 Alpha virt. eigenvalues --    0.08095   0.08545   0.11822   0.13686   0.14126
 Alpha virt. eigenvalues --    0.15152   0.15278   0.15447   0.16367   0.17750

 Mulliken charges:
               1
     1  F   -0.365634
     2  S    1.849977
     3  C   -0.939551
     4  S    0.911566
     5  O   -2.760325
     6  C   -2.804405
     7  H    1.389289
     8  H    1.359619
     9  H    1.359465
 Sum of Mulliken charges =   0.00000

 Dipole moment (field-independent basis, Debye):
    X=              1.5768    Y=              2.2477    Z=              0.0018  Tot=              2.7456

 Test job not archived.
 1\1\GINC-SE459\SP\RHF\Aug-CC-pVDZ\C2H3F1O1S2\OHZDE\09-Apr-2025\0\\#t h
 f aug-cc-pvdz iop(5/13=1,5/36=2,99/5=2) pseudo=read geom=check guess=(
 read,tcheck) scf=(maxcycle=1)\\title\\0,1\F,0,2.263065,0.902718,0.0001
 56\S,0,1.425447,-0.551279,-0.000022\C,0,-0.234114,-0.100964,-0.000254\
 S,0,-1.222182,-1.42103,0.000128\O,0,-0.513436,1.182745,-0.000182\C,0,-
 1.904529,1.583133,-0.000025\H,0,-1.877037,2.669315,0.000009\H,0,-2.401
 627,1.20407,0.892958\H,0,-2.401805,1.204128,-0.892933\\Version=ES64L-G
 16RevC.01\State=1-A\HF=-1048.2869914\RMSD=1.085e-01\Dipole=0.6203751,0

 Normal termination of Gaussian 16 at Wed Apr  9 00:22:44 2025.
