 Gaussian 16, Revision C.01,

 ----------------------------------------------------------------------
 #t hf aug-cc-pvdz symm=none int=(grid=ultrafine) guess=(read,tcheck) s
 table=opt
 ----------------------------------------------------------------------
 -----
 title
 -----
 Symbolic Z-matrix:
 Charge =  0 Multiplicity = 2

 SCF Done:  E(UHF) =  -446.781407177     A.U. after   15 cycles
 Normal termination of Gaussian 16 at Tue Apr  8 23:41:42 2025.
 Gaussian 16:  ES64L-G16RevC.01  3-Jul-2019

 ----------------------------------------------------------------------
 #t hf aug-cc-pvdz iop(5/13=1,5/36=2,99/5=2) pseudo=read geom=check gue
 ss=(read,tcheck) scf=(maxcycle=1)
 ----------------------------------------------------------------------
 -----
 title
 -----
 Structure from the checkpoint file:  "BDE49_nonexpt_1647_mol2.chk"
 Charge =  0 Multiplicity = 2

                         Standard orientation:
 ---------------------------------------------------------------------
 Center     Atomic      Atomic             Coordinates (Angstroms)
 Number     Number       Type             X           Y           Z
 ---------------------------------------------------------------------
      1          6           0        0.342246    0.000000   -0.002808
      2          6           0        0.690788   -0.000001    1.502320
      3          1           0        0.298673   -0.884644    2.012465
      4          1           0        0.298673    0.884642    2.012466
      5          6           0        0.929124    1.260692   -0.667124
      6          1           0        0.531186    2.178064   -0.222631
      7          1           0        0.717867    1.289345   -1.740140
      8          1           0        2.019037    1.281154   -0.543336
      9          1           0        1.781446   -0.000001    1.633378
     10          6           0        0.929124   -1.260691   -0.667125
     11          1           0        2.019037   -1.281153   -0.543337
     12          1           0        0.717867   -1.289343   -1.740141
     13          1           0        0.531187   -2.178064   -0.222633
     14         14           0       -1.567100    0.000000   -0.180915
     15          1           0       -2.161629    1.212784    0.447578
     16          1           0       -2.161629   -1.212784    0.447577
 ---------------------------------------------------------------------

 SCF Done:  E(UHF) =  -447.758124840     A.U. after    2 cycles

 The electronic state is 2-A.
 Alpha  occ. eigenvalues --  -76.21436 -11.40321 -11.38858 -11.38840 -11.34567
 Alpha  occ. eigenvalues --   -5.54855  -2.18921  -2.17352  -2.17035  -1.25503
 Alpha  occ. eigenvalues --   -1.00469  -1.00409  -0.81676  -0.72070  -0.60685
 Alpha  occ. eigenvalues --   -0.60217  -0.59973  -0.54114  -0.54073  -0.51391
 Alpha  occ. eigenvalues --   -0.46911  -0.44001  -0.43579  -0.37156  -0.26448
 Alpha virt. eigenvalues --    0.03663   0.05330   0.05896   0.05934   0.06161
 Alpha virt. eigenvalues --    0.06307   0.06322   0.06358   0.06538   0.08886
 Alpha virt. eigenvalues --    0.09594   0.09708   0.10018   0.11074   0.12420

  Beta  occ. eigenvalues --  -76.20898 -11.40275 -11.38857 -11.38800 -11.34535
  Beta  occ. eigenvalues --   -5.54014  -2.18214  -2.16733  -2.13649  -1.25242
  Beta  occ. eigenvalues --   -1.00398  -1.00319  -0.80248  -0.69335  -0.60261
  Beta  occ. eigenvalues --   -0.60134  -0.59363  -0.54081  -0.53756  -0.51364
  Beta  occ. eigenvalues --   -0.46255  -0.43749  -0.43484  -0.35857
  Beta virt. eigenvalues --    0.03604   0.04226   0.05574   0.05940   0.05991
  Beta virt. eigenvalues --    0.06247   0.06317   0.06354   0.06405   0.08210
  Beta virt. eigenvalues --    0.08892   0.09824   0.09848   0.10769   0.11292

 Mulliken charges and spin densities:
               1          2
     1  C    0.027056  -0.123807
     2  C   -3.915207  -0.060740
     3  H    1.312934  -0.012726
     4  H    1.312933  -0.012726
     5  C   -4.011516   0.061204
     6  H    1.290450  -0.006767
     7  H    1.310278  -0.023761
     8  H    1.290034  -0.000663
     9  H    1.271921   0.001540
    10  C   -4.011514   0.061204
    11  H    1.290034  -0.000663
    12  H    1.310278  -0.023761
    13  H    1.290450  -0.006767
    14  Si   3.465328   1.182151
    15  H   -1.616728  -0.016858
    16  H   -1.616729  -0.016858
 Sum of Mulliken charges =  -0.00000   1.00000

 Dipole moment (field-independent basis, Debye):
    X=              0.9568    Y=             -0.0000    Z=             -0.2049  Tot=              0.9785
                          Isotropic Fermi Contact Couplings
        Atom                 a.u.       MegaHertz       Gauss      10(-4) cm-1
     1  C(13)              0.01168      13.13442       4.68669       4.38117
     2  C(13)              0.01766      19.84846       7.08242       6.62073
     3  H(1)               0.00032       1.44986       0.51735       0.48362
     4  H(1)               0.00032       1.44986       0.51735       0.48362
     5  C(13)             -0.00008      -0.09528      -0.03400      -0.03178
     6  H(1)              -0.00006      -0.26152      -0.09332      -0.08723
     7  H(1)              -0.00017      -0.76817      -0.27410      -0.25623
     8  H(1)              -0.00045      -2.03099      -0.72471      -0.67746

 Normal termination of Gaussian 16 at Tue Apr  8 23:41:48 2025.
