 Gaussian 16, Revision C.01,

 ----------------------------------------------------------------------
 #t hf aug-cc-pvdz symm=none int=(grid=ultrafine) guess=(read,tcheck) s
 table=(opt,rrhf)
 ----------------------------------------------------------------------
 -----
 title
 -----
 Symbolic Z-matrix:
 Charge =  0 Multiplicity = 1

 SCF Done:  E(RHF) =  -728.692970637     A.U. after   15 cycles

 1\1\GINC-SE110\Stability\RHF\Aug-CC-pVDZ\C7H7Cl1\OHZDE\08-Apr-2025\0\\
 #t hf aug-cc-pvdz symm=none int=(grid=ultrafine) guess=(read,tcheck) s
 table=(opt,rrhf)\\title\\0,1\C,0,-0.021557,0.000003,0.445629\C,0,0.657
 738,-1.204991,0.241653\C,0,1.991024,-1.205924,-0.157203\C,0,2.660366,-
 0.000004,-0.357192\C,0,1.991028,1.205921,-0.157208\C,0,0.657742,1.2049
 94,0.241648\H,0,0.137366,2.144925,0.392912\H,0,3.699409,-0.000006,-0.6
 66422\H,0,2.508044,2.146395,-0.310255\H,0,0.137358,-2.144919,0.392921\
 H,0,2.508036,-2.146401,-0.310246\C,0,-1.452931,0.000007,0.882066\Cl,0,

 Normal termination of Gaussian 16 at Tue Apr  8 22:34:22 2025.
 Gaussian 16:  ES64L-G16RevC.01  3-Jul-2019

 ----------------------------------------------------------------------
 #t hf aug-cc-pvdz iop(5/13=1,5/36=2,99/5=2) pseudo=read geom=check gue
 ss=(read,tcheck) scf=(maxcycle=1)
 ----------------------------------------------------------------------
 -----
 title
 -----
 Structure from the checkpoint file:  "BDE49_expt_1040_mol1.chk"
 Charge =  0 Multiplicity = 1

                         Standard orientation:
 ---------------------------------------------------------------------
 Center     Atomic      Atomic             Coordinates (Angstroms)
 Number     Number       Type             X           Y           Z
 ---------------------------------------------------------------------
      1          6           0       -0.021557    0.000003    0.445629
      2          6           0        0.657738   -1.204991    0.241653
      3          6           0        1.991024   -1.205924   -0.157203
      4          6           0        2.660366   -0.000004   -0.357192
      5          6           0        1.991028    1.205921   -0.157208
      6          6           0        0.657742    1.204994    0.241648
      7          1           0        0.137366    2.144925    0.392912
      8          1           0        3.699409   -0.000006   -0.666422
      9          1           0        2.508044    2.146395   -0.310255
     10          1           0        0.137358   -2.144919    0.392921
     11          1           0        2.508036   -2.146401   -0.310246
     12          6           0       -1.452931    0.000007    0.882066
     13         17           0       -2.616087   -0.000003   -0.543622
     14          1           0       -1.708596    0.889513    1.453145
     15          1           0       -1.708597   -0.889491    1.453158
 ---------------------------------------------------------------------

 SCF Done:  E(RHF) =  -730.245944127     A.U. after    2 cycles

 The electronic state is 1-A.
 Alpha  occ. eigenvalues --  -99.87320 -11.52427 -11.45855 -11.43798 -11.43578
 Alpha  occ. eigenvalues --  -11.41549 -11.41153 -11.36953 -10.44496  -9.64448
 Alpha  occ. eigenvalues --   -9.63759  -9.63682  -1.37787  -1.29152  -1.13184
 Alpha  occ. eigenvalues --   -1.09992  -0.98880  -0.87309  -0.84310  -0.71790
 Alpha  occ. eigenvalues --   -0.66309  -0.65499  -0.60846  -0.58801  -0.58140
 Alpha  occ. eigenvalues --   -0.55242  -0.49937  -0.49465  -0.47535  -0.44830
 Alpha  occ. eigenvalues --   -0.43931  -0.33717  -0.33336
 Alpha virt. eigenvalues --    0.03106   0.04669   0.04904   0.05435   0.06279
 Alpha virt. eigenvalues --    0.07092   0.07421   0.08079   0.09901   0.10125
 Alpha virt. eigenvalues --    0.10894   0.12313   0.12441   0.13661   0.13825

 Mulliken charges:
               1
     1  C    4.646047
     2  C   -2.473391
     3  C   -1.144808
     4  C   -3.029362
     5  C   -1.144888
     6  C   -2.473393
     7  H    1.727573
     8  H    1.521987
     9  H    1.489113
    10  H    1.727572
    11  H    1.489114
    12  C   -5.121276
    13  Cl   0.153372
    14  H    1.316172
    15  H    1.316168
 Sum of Mulliken charges =   0.00000

 Dipole moment (field-independent basis, Debye):
    X=              2.2544    Y=              0.0000    Z=              1.5150  Tot=              2.7161

 Test job not archived.
 1\1\GINC-SE110\SP\RHF\Aug-CC-pVDZ\C7H7Cl1\OHZDE\08-Apr-2025\0\\#t hf a
 ug-cc-pvdz iop(5/13=1,5/36=2,99/5=2) pseudo=read geom=check guess=(rea
 d,tcheck) scf=(maxcycle=1)\\title\\0,1\C,0,-0.021557,0.000003,0.445629
 \C,0,0.657738,-1.204991,0.241653\C,0,1.991024,-1.205924,-0.157203\C,0,
 2.660366,-0.000004,-0.357192\C,0,1.991028,1.205921,-0.157208\C,0,0.657
 742,1.204994,0.241648\H,0,0.137366,2.144925,0.392912\H,0,3.699409,-0.0
 00006,-0.666422\H,0,2.508044,2.146395,-0.310255\H,0,0.137358,-2.144919
 ,0.392921\H,0,2.508036,-2.146401,-0.310246\C,0,-1.452931,0.000007,0.88

 Normal termination of Gaussian 16 at Tue Apr  8 22:34:28 2025.
