 Gaussian 16, Revision C.01,

 ----------------------------------------------------------------------
 #t hf aug-cc-pvdz symm=none int=(grid=ultrafine) guess=(read,tcheck) s
 table=(opt,rrhf)
 ----------------------------------------------------------------------
 -----
 title
 -----
 Symbolic Z-matrix:
 Charge =  0 Multiplicity = 1

 SCF Done:  E(RHF) =  -1423.40178940     A.U. after   12 cycles
 Normal termination of Gaussian 16 at Wed Apr  9 00:46:09 2025.
 Gaussian 16:  ES64L-G16RevC.01  3-Jul-2019

 ----------------------------------------------------------------------
 #t hf aug-cc-pvdz iop(5/13=1,5/36=2,99/5=2) pseudo=read geom=check gue
 ss=(read,tcheck) scf=(maxcycle=1)
 ----------------------------------------------------------------------
 -----
 title
 -----
 Structure from the checkpoint file:  "BDE49_nonexpt_791_mol1.chk"
 Charge =  0 Multiplicity = 1

                         Standard orientation:
 ---------------------------------------------------------------------
 Center     Atomic      Atomic             Coordinates (Angstroms)
 Number     Number       Type             X           Y           Z
 ---------------------------------------------------------------------
      1         14           0       -0.317301   -0.125083    0.302789
      2          5           0        1.681297    0.008763   -0.032913
      3          8           0        2.250207    1.067433   -0.669932
      4          8           0        2.456247   -1.013353    0.410204
      5          6           0       -0.883758   -0.666904    1.989084
      6          1           0       -0.490893   -1.664964    2.201531
      7          1           0       -1.973974   -0.698892    2.046035
      8          1           0       -0.511917    0.022505    2.751984
      9         17           0       -1.088831    1.800498   -0.073398
     10         17           0       -1.167144   -1.403277   -1.115690
     11          1           0        3.392345   -0.888803    0.205296
     12          1           0        1.622658    1.753520   -0.921503
 ---------------------------------------------------------------------

 SCF Done:  E(RHF) =  -1424.95675334     A.U. after    2 cycles

 The electronic state is 1-A.
 Alpha  occ. eigenvalues --  -99.88959 -99.88634 -76.28359 -21.07874 -21.07538
 Alpha  occ. eigenvalues --  -11.37072 -10.46311 -10.46009  -9.66237  -9.65929
 Alpha  occ. eigenvalues --   -9.65744  -9.65654  -9.65414  -9.65277  -7.66037
 Alpha  occ. eigenvalues --   -5.62175  -2.25136  -2.24154  -2.23856  -1.82583
 Alpha  occ. eigenvalues --   -1.67456  -1.30626  -1.27777  -1.05949  -0.80887
 Alpha  occ. eigenvalues --   -0.73071  -0.65233  -0.60884  -0.59714  -0.57404
 Alpha  occ. eigenvalues --   -0.56642  -0.56146  -0.53431  -0.52433  -0.50961
 Alpha  occ. eigenvalues --   -0.49915  -0.46476  -0.44587  -0.38079  -0.35607
 Alpha virt. eigenvalues --    0.03076   0.03862   0.04826   0.05339   0.07107
 Alpha virt. eigenvalues --    0.07385   0.07645   0.07984   0.08259   0.09257
 Alpha virt. eigenvalues --    0.09320   0.10139   0.10844   0.11185   0.13025

 Mulliken charges:
               1
     1  Si   2.402020
     2  B    5.977346
     3  O   -4.018735
     4  O   -3.986103
     5  C   -4.978133
     6  H    1.334635
     7  H    1.128809
     8  H    1.345831
     9  Cl  -0.892275
    10  Cl  -0.980950
    11  H    1.282873
    12  H    1.384682
 Sum of Mulliken charges =  -0.00000

 Dipole moment (field-independent basis, Debye):
    X=              1.7475    Y=             -0.0861    Z=              1.6427  Tot=              2.3999

 Test job not archived.
 1\1\GINC-SE322\SP\RHF\Aug-CC-pVDZ\C1H5B1Cl2O2Si1\OHZDE\09-Apr-2025\0\\
 #t hf aug-cc-pvdz iop(5/13=1,5/36=2,99/5=2) pseudo=read geom=check gue
 ss=(read,tcheck) scf=(maxcycle=1)\\title\\0,1\Si,0,-0.317301,-0.125083
 ,0.302789\B,0,1.681297,0.008763,-0.032913\O,0,2.250207,1.067433,-0.669
 932\O,0,2.456247,-1.013353,0.410204\C,0,-0.883758,-0.666904,1.989084\H
 ,0,-0.490892,-1.664964,2.201531\H,0,-1.973974,-0.698893,2.046035\H,0,-
 0.511917,0.022505,2.751984\Cl,0,-1.088831,1.800498,-0.073398\Cl,0,-1.1
 67143,-1.403277,-1.11569\H,0,3.392345,-0.888802,0.205296\H,0,1.622658,

 Normal termination of Gaussian 16 at Wed Apr  9 00:46:14 2025.
