 Gaussian 16, Revision C.01,

 ----------------------------------------------------------------------
 #t hf aug-cc-pvdz symm=none int=(grid=ultrafine) guess=(read,tcheck) s
 table=(opt,rrhf)
 ----------------------------------------------------------------------
 -----
 title
 -----
 Symbolic Z-matrix:
 Charge =  0 Multiplicity = 1

 SCF Done:  E(RHF) =  -554.841689283     A.U. after   12 cycles

 1\1\GINC-SE460\Stability\RHF\Aug-CC-pVDZ\C4H10S1\OHZDE\08-Apr-2025\0\\
 #t hf aug-cc-pvdz symm=none int=(grid=ultrafine) guess=(read,tcheck) s
 table=(opt,rrhf)\\title\\0,1\S,0,-1.053298,-0.687025,-0.244747\C,0,-1.
 930681,0.908756,-0.178573\H,0,-2.257062,1.131541,0.839306\H,0,-2.81031
 5,0.805171,-0.815102\H,0,-1.318504,1.726249,-0.561509\C,0,0.312091,-0.
 374867,0.939556\C,0,1.421245,0.566985,0.456989\H,0,0.722064,-1.367737,
 1.146837\H,0,-0.131275,-0.010318,1.870424\C,0,2.235894,0.025558,-0.719
 431\H,0,2.087704,0.754505,1.308216\H,0,0.989903,1.539001,0.195061\H,0,

 Normal termination of Gaussian 16 at Tue Apr  8 22:46:43 2025.
 Gaussian 16:  ES64L-G16RevC.01  3-Jul-2019

 ----------------------------------------------------------------------
 #t hf aug-cc-pvdz iop(5/13=1,5/36=2,99/5=2) pseudo=read geom=check gue
 ss=(read,tcheck) scf=(maxcycle=1)
 ----------------------------------------------------------------------
 -----
 title
 -----
 Structure from the checkpoint file:  "BDE49_expt_1564_mol1.chk"
 Charge =  0 Multiplicity = 1

                         Standard orientation:
 ---------------------------------------------------------------------
 Center     Atomic      Atomic             Coordinates (Angstroms)
 Number     Number       Type             X           Y           Z
 ---------------------------------------------------------------------
      1         16           0       -1.053298   -0.687025   -0.244747
      2          6           0       -1.930681    0.908756   -0.178573
      3          1           0       -2.257062    1.131541    0.839306
      4          1           0       -2.810315    0.805171   -0.815102
      5          1           0       -1.318504    1.726249   -0.561509
      6          6           0        0.312091   -0.374867    0.939556
      7          6           0        1.421245    0.566985    0.456989
      8          1           0        0.722064   -1.367737    1.146837
      9          1           0       -0.131275   -0.010318    1.870424
     10          6           0        2.235894    0.025558   -0.719431
     11          1           0        2.087704    0.754505    1.308216
     12          1           0        0.989903    1.539001    0.195061
     13          1           0        2.728355   -0.915832   -0.455340
     14          1           0        3.012397    0.734812   -1.017466
     15          1           0        1.598201   -0.163587   -1.585728
 ---------------------------------------------------------------------

 SCF Done:  E(RHF) =  -555.904838319     A.U. after    2 cycles

 The electronic state is 1-A.
 Alpha  occ. eigenvalues --  -75.66559 -13.10336 -13.07328 -13.02081 -11.42519
 Alpha  occ. eigenvalues --  -11.39089 -11.38846 -11.35152  -8.00579  -1.25827
 Alpha  occ. eigenvalues --   -1.13839  -1.00712  -0.90927  -0.81745  -0.63138
 Alpha  occ. eigenvalues --   -0.62062  -0.57946  -0.57915  -0.56457  -0.49618
 Alpha  occ. eigenvalues --   -0.47501  -0.46468  -0.42146  -0.34778  -0.21578
 Alpha virt. eigenvalues --    0.03391   0.04201   0.05062   0.05840   0.06223
 Alpha virt. eigenvalues --    0.06418   0.06975   0.07226   0.07960   0.09082
 Alpha virt. eigenvalues --    0.10515   0.12214   0.13416   0.14188   0.14868

 Mulliken charges:
               1
     1  S    0.950007
     2  C   -4.771024
     3  H    1.379354
     4  H    1.367380
     5  H    1.539416
     6  C   -3.679970
     7  C   -2.825012
     8  H    1.575468
     9  H    1.464850
    10  C   -3.712218
    11  H    1.283899
    12  H    1.590317
    13  H    1.225702
    14  H    1.167459
    15  H    1.444373
 Sum of Mulliken charges =   0.00000

 Dipole moment (field-independent basis, Debye):
    X=             -0.0863    Y=             -0.1546    Z=             -0.0045  Tot=              0.1772

 Test job not archived.
 1\1\GINC-SE460\SP\RHF\Aug-CC-pVDZ\C4H10S1\OHZDE\08-Apr-2025\0\\#t hf a
 ug-cc-pvdz iop(5/13=1,5/36=2,99/5=2) pseudo=read geom=check guess=(rea
 d,tcheck) scf=(maxcycle=1)\\title\\0,1\S,0,-1.053298,-0.687025,-0.2447
 47\C,0,-1.930681,0.908756,-0.178573\H,0,-2.257062,1.131541,0.839306\H,
 0,-2.810315,0.805171,-0.815102\H,0,-1.318504,1.726249,-0.561509\C,0,0.
 312091,-0.374867,0.939556\C,0,1.421245,0.566985,0.456989\H,0,0.722064,
 -1.367737,1.146837\H,0,-0.131275,-0.010318,1.870424\C,0,2.235894,0.025
 558,-0.719431\H,0,2.087704,0.754505,1.308216\H,0,0.989903,1.539001,0.1

 Normal termination of Gaussian 16 at Tue Apr  8 22:46:47 2025.
