 Gaussian 16, Revision C.01,

 ----------------------------------------------------------------------
 #t hf aug-cc-pvdz symm=none int=(grid=ultrafine) guess=(read,tcheck) s
 table=(opt,rrhf)
 ----------------------------------------------------------------------
 -----
 title
 -----
 Symbolic Z-matrix:
 Charge =  0 Multiplicity = 1

 SCF Done:  E(RHF) =  -644.459605920     A.U. after   18 cycles
 Normal termination of Gaussian 16 at Wed Apr  9 00:54:45 2025.
 Gaussian 16:  ES64L-G16RevC.01  3-Jul-2019

 ----------------------------------------------------------------------
 #t hf aug-cc-pvdz iop(5/13=1,5/36=2,99/5=2) pseudo=read geom=check gue
 ss=(read,tcheck) scf=(maxcycle=1)
 ----------------------------------------------------------------------
 -----
 title
 -----
 Structure from the checkpoint file:  "BDE49_nonexpt_994_mol1.chk"
 Charge =  0 Multiplicity = 1

                         Standard orientation:
 ---------------------------------------------------------------------
 Center     Atomic      Atomic             Coordinates (Angstroms)
 Number     Number       Type             X           Y           Z
 ---------------------------------------------------------------------
      1         16           0       -0.390111   -0.915369   -0.516958
      2          7           0       -1.995470   -0.163967    0.018565
      3          8           0       -1.933811    0.804648    0.691872
      4          6           0        0.837234    0.202413    0.264473
      5          6           0        2.083624   -0.594874    0.660021
      6          1           0        2.594829   -1.001227   -0.216826
      7          1           0        1.836199   -1.423669    1.325903
      8          6           0        1.150950    1.399769   -0.636310
      9          1           0        0.325032    0.559052    1.164880
     10          1           0        1.845182    2.076569   -0.127514
     11          1           0        0.247024    1.961984   -0.876201
     12          1           0        1.613563    1.077782   -1.572809
     13          1           0        2.787876    0.062152    1.179862
 ---------------------------------------------------------------------

 SCF Done:  E(RHF) =  -645.843032591     A.U. after    2 cycles

 The electronic state is 1-A.
 Alpha  occ. eigenvalues --  -75.70917 -21.15309 -15.90887 -13.13932 -13.11424
 Alpha  occ. eigenvalues --  -13.05634 -11.44119 -11.39951 -11.37201  -8.04924
 Alpha  occ. eigenvalues --   -1.89448  -1.28188  -1.13192  -1.01983  -0.92993
 Alpha  occ. eigenvalues --   -0.81282  -0.67204  -0.61278  -0.60532  -0.58054
 Alpha  occ. eigenvalues --   -0.56189  -0.55374  -0.54972  -0.48424  -0.47924
 Alpha  occ. eigenvalues --   -0.37394  -0.25857  -0.25382
 Alpha virt. eigenvalues --    0.03273   0.05094   0.05655   0.06149   0.06662
 Alpha virt. eigenvalues --    0.07024   0.07409   0.08117   0.10158   0.11834
 Alpha virt. eigenvalues --    0.12087   0.13716   0.14648   0.14929   0.15380

 Mulliken charges:
               1
     1  S    1.297044
     2  N    0.948567
     3  O   -1.904464
     4  C   -2.520637
     5  C   -3.688865
     6  H    1.305466
     7  H    1.256640
     8  C   -3.543076
     9  H    1.854576
    10  H    1.240302
    11  H    1.273948
    12  H    1.319652
    13  H    1.160846
 Sum of Mulliken charges =  -0.00000

 Dipole moment (field-independent basis, Debye):
    X=              2.0208    Y=             -0.1336    Z=              0.0194  Tot=              2.0253

 Test job not archived.
 1\1\GINC-SE460\SP\RHF\Aug-CC-pVDZ\C3H7N1O1S1\OHZDE\09-Apr-2025\0\\#t h
 f aug-cc-pvdz iop(5/13=1,5/36=2,99/5=2) pseudo=read geom=check guess=(
 read,tcheck) scf=(maxcycle=1)\\title\\0,1\S,0,-0.390111,-0.915369,-0.5
 16958\N,0,-1.99547,-0.163967,0.018565\O,0,-1.933811,0.804648,0.691872\
 C,0,0.837234,0.202413,0.264473\C,0,2.083624,-0.594874,0.660021\H,0,2.5
 94829,-1.001227,-0.216826\H,0,1.836199,-1.423669,1.325903\C,0,1.15095,
 1.399769,-0.63631\H,0,0.325032,0.559052,1.16488\H,0,1.845182,2.076569,
 -0.127514\H,0,0.247024,1.961984,-0.876201\H,0,1.613563,1.077782,-1.572

 Normal termination of Gaussian 16 at Wed Apr  9 00:54:48 2025.
