 Gaussian 16, Revision C.01,

 ----------------------------------------------------------------------
 #t hf aug-cc-pvdz symm=none int=(grid=ultrafine) guess=(read,tcheck) s
 table=opt
 ----------------------------------------------------------------------
 -----
 title
 -----
 Symbolic Z-matrix:
 Charge =  0 Multiplicity = 2

 SCF Done:  E(UHF) =  -515.404086491     A.U. after   14 cycles

 1\1\GINC-SE455\Stability\UHF\Aug-CC-pVDZ\H3O3Si1\OHZDE\09-Apr-2025\0\\
 #t hf aug-cc-pvdz symm=none int=(grid=ultrafine) guess=(read,tcheck) s
 table=opt\\title\\0,2\Si,0,0.000003,-0.000008,0.371703\O,0,1.366702,-0
 .710525,-0.215498\H,0,2.206962,-0.291046,-0.010648\O,0,-0.068013,1.538
 852,-0.215489\H,0,-0.851421,2.0568,-0.010647\O,0,-1.298685,-0.828318,-
 0.215512\H,0,-1.355622,-1.765712,-0.010552\\Version=ES64L-G16RevC.01\H
 F=-515.4040865\S2=0.753874\S2-1=0.\S2A=0.75001\RMSD=6.542e-09\Dipole=-
 0.0000486,0.000008,0.6775153\Quadrupole=1.5440433,1.5435281,-3.0875714

 Normal termination of Gaussian 16 at Wed Apr  9 00:09:31 2025.
 Gaussian 16:  ES64L-G16RevC.01  3-Jul-2019

 ----------------------------------------------------------------------
 #t hf aug-cc-pvdz iop(5/13=1,5/36=2,99/5=2) pseudo=read geom=check gue
 ss=(read,tcheck) scf=(maxcycle=1)
 ----------------------------------------------------------------------
 -----
 title
 -----
 Structure from the checkpoint file:  "BDE49_nonexpt_2332_mol3.chk"
 Charge =  0 Multiplicity = 2

                         Standard orientation:
 ---------------------------------------------------------------------
 Center     Atomic      Atomic             Coordinates (Angstroms)
 Number     Number       Type             X           Y           Z
 ---------------------------------------------------------------------
      1         14           0        0.000003   -0.000008    0.371703
      2          8           0        1.368148   -0.707736   -0.215498
      3          1           0        2.207551   -0.286545   -0.010648
      4          8           0       -0.071151    1.538710   -0.215489
      5          1           0       -0.855614    2.055059   -0.010647
      6          8           0       -1.296993   -0.830965   -0.215512
      7          1           0       -1.352018   -1.768473   -0.010552
 ---------------------------------------------------------------------

 SCF Done:  E(UHF) =  -516.467479386     A.U. after    2 cycles

 The electronic state is 2-A.
 Alpha  occ. eigenvalues --  -76.26987 -21.08547 -21.08546 -21.08516  -5.61486
 Alpha  occ. eigenvalues --   -2.28394  -2.28394  -2.21972  -1.71306  -1.64793
 Alpha  occ. eigenvalues --   -1.64793  -0.73222  -0.61529  -0.61529  -0.52853
 Alpha  occ. eigenvalues --   -0.43265  -0.43265  -0.41559  -0.39665  -0.39664
 Alpha  occ. eigenvalues --   -0.24618
 Alpha virt. eigenvalues --    0.04224   0.05799   0.05799   0.07273   0.07807
 Alpha virt. eigenvalues --    0.07807   0.13074   0.17940   0.17941   0.19132
 Alpha virt. eigenvalues --    0.20621   0.20622   0.23680   0.23680   0.24237

  Beta  occ. eigenvalues --  -76.26460 -21.08118 -21.08118 -21.08087  -5.60582
  Beta  occ. eigenvalues --   -2.27894  -2.27894  -2.19041  -1.70215  -1.63848
  Beta  occ. eigenvalues --   -1.63847  -0.71013  -0.61194  -0.61194  -0.47976
  Beta  occ. eigenvalues --   -0.41712  -0.41712  -0.41138  -0.38675  -0.38675
  Beta virt. eigenvalues --    0.02832   0.05938   0.05938   0.07032   0.07911
  Beta virt. eigenvalues --    0.07911   0.09321   0.16990   0.19261   0.19261
  Beta virt. eigenvalues --    0.19916   0.21352   0.21352   0.24296   0.24650

 Mulliken charges and spin densities:
               1          2
     1  Si   4.517517   1.043426
     2  O   -2.528016  -0.014564
     3  H    1.022174   0.000088
     4  O   -2.528029  -0.014561
     5  H    1.022180   0.000089
     6  O   -2.527992  -0.014560
     7  H    1.022166   0.000083
 Sum of Mulliken charges =  -0.00000   1.00000

 Dipole moment (field-independent basis, Debye):
    X=             -0.0001    Y=              0.0000    Z=              0.2220  Tot=              0.2220
                          Isotropic Fermi Contact Couplings
        Atom                 a.u.       MegaHertz       Gauss      10(-4) cm-1
     1  Si(29)             0.64779    -575.71279    -205.42864    -192.03712
     2  O(17)              0.06152     -37.29200     -13.30671     -12.43927
     3  H(1)              -0.00129      -5.78707      -2.06497      -1.93036
     4  O(17)              0.06151     -37.28984     -13.30594     -12.43855
     5  H(1)              -0.00129      -5.78684      -2.06489      -1.93028
     6  O(17)              0.06151     -37.28854     -13.30548     -12.43812
     7  H(1)              -0.00129      -5.78663      -2.06482      -1.93021
 --------------------------------------------------------

 Normal termination of Gaussian 16 at Wed Apr  9 00:09:33 2025.
