 Gaussian 16, Revision C.01,

 ----------------------------------------------------------------------
 #t hf aug-cc-pvdz symm=none int=(grid=ultrafine) guess=(read,tcheck) s
 table=opt
 ----------------------------------------------------------------------
 -----
 title
 -----
 Symbolic Z-matrix:
 Charge =  0 Multiplicity = 2

 SCF Done:  E(UHF) =  -899.460904209     A.U. after   15 cycles
 Normal termination of Gaussian 16 at Tue Apr  8 23:47:15 2025.
 Gaussian 16:  ES64L-G16RevC.01  3-Jul-2019

 ----------------------------------------------------------------------
 #t hf aug-cc-pvdz iop(5/13=1,5/36=2,99/5=2) pseudo=read geom=check gue
 ss=(read,tcheck) scf=(maxcycle=1)
 ----------------------------------------------------------------------
 -----
 title
 -----
 Structure from the checkpoint file:  "BDE49_nonexpt_1780_mol2.chk"
 Charge =  0 Multiplicity = 2

                         Standard orientation:
 ---------------------------------------------------------------------
 Center     Atomic      Atomic             Coordinates (Angstroms)
 Number     Number       Type             X           Y           Z
 ---------------------------------------------------------------------
      1         14           0        0.426388   -0.011067    0.434335
      2         17           0       -1.612020   -0.051267   -0.106895
      3          8           0        1.215371   -1.307687   -0.168680
      4          1           0        1.850702   -1.162230   -0.878119
      5          8           0        1.144712    1.310936   -0.233629
      6          1           0        0.703531    2.162709   -0.166876
 ---------------------------------------------------------------------

 SCF Done:  E(UHF) =  -900.453807095     A.U. after    2 cycles

 The electronic state is 2-A.
 Alpha  occ. eigenvalues --  -99.88733 -76.30800 -21.10720 -21.09988 -10.46092
 Alpha  occ. eigenvalues --   -9.66138  -9.65277  -9.65254  -5.64895  -2.31601
 Alpha  occ. eigenvalues --   -2.28893  -2.24102  -1.71354  -1.66286  -1.29140
 Alpha  occ. eigenvalues --   -0.76013  -0.64577  -0.60938  -0.54866  -0.54246
 Alpha  occ. eigenvalues --   -0.47968  -0.44661  -0.43450  -0.40618  -0.30025
 Alpha virt. eigenvalues --    0.03776   0.05810   0.06456   0.06604   0.07844
 Alpha virt. eigenvalues --    0.10530   0.12886   0.14682   0.15771   0.16412
 Alpha virt. eigenvalues --    0.16650   0.18524   0.20902   0.21792   0.22098

  Beta  occ. eigenvalues --  -99.88560 -76.30192 -21.10327 -21.09685 -10.45897
  Beta  occ. eigenvalues --   -9.65588  -9.65180  -9.65012  -5.63843  -2.30950
  Beta  occ. eigenvalues --   -2.27898  -2.21414  -1.70421  -1.65524  -1.27684
  Beta  occ. eigenvalues --   -0.72731  -0.64040  -0.59459  -0.53758  -0.53382
  Beta  occ. eigenvalues --   -0.45069  -0.44114  -0.42576  -0.40041
  Beta virt. eigenvalues --    0.01489   0.05688   0.05999   0.06717   0.07489
  Beta virt. eigenvalues --    0.08045   0.11792   0.13446   0.15441   0.16328
  Beta virt. eigenvalues --    0.17348   0.18642   0.19823   0.21125   0.22090

 Mulliken charges and spin densities:
               1          2
     1  Si   3.780449   0.992248
     2  Cl  -0.842808   0.078476
     3  O   -2.530657  -0.080121
     4  H    1.014079  -0.000006
     5  O   -2.430207   0.010255
     6  H    1.009144  -0.000852
 Sum of Mulliken charges =  -0.00000   1.00000

 Dipole moment (field-independent basis, Debye):
    X=              2.2650    Y=              0.8895    Z=             -0.0232  Tot=              2.4335
                          Isotropic Fermi Contact Couplings
        Atom                 a.u.       MegaHertz       Gauss      10(-4) cm-1
     1  Si(29)             0.91761    -815.50187    -290.99135    -272.02214
     2  Cl(35)             0.15240      66.82309      23.84414      22.28978
     3  O(17)              0.09754     -59.13062     -21.09928     -19.72385
     4  H(1)               0.00386      17.26045       6.15896       5.75747
     5  O(17)              0.05198     -31.51047     -11.24372     -10.51076
     6  H(1)              -0.00129      -5.78380      -2.06380      -1.92927
 --------------------------------------------------------
       Center         ----  Spin Dipole Couplings  ----

 Normal termination of Gaussian 16 at Tue Apr  8 23:47:18 2025.
