 Gaussian 16, Revision C.01,

 ----------------------------------------------------------------------
 #t hf aug-cc-pvdz symm=none int=(grid=ultrafine) guess=(read,tcheck) s
 table=(opt,rrhf)
 ----------------------------------------------------------------------
 -----
 title
 -----
 Symbolic Z-matrix:
 Charge =  0 Multiplicity = 1

 SCF Done:  E(RHF) =  -271.221272752     A.U. after   12 cycles

 1\1\GINC-SE328\Stability\RHF\Aug-CC-pVDZ\C5H12O1\OHZDE\08-Apr-2025\0\\
 #t hf aug-cc-pvdz symm=none int=(grid=ultrafine) guess=(read,tcheck) s
 table=(opt,rrhf)\\title\\0,1\C,0,-0.408342,0.00474,0.009196\C,0,-0.479
 68,-0.422552,1.484786\H,0,0.414725,-0.099481,2.021356\H,0,-0.547998,-1
 .511333,1.574017\H,0,-1.355927,0.010046,1.976961\C,0,-1.605339,-0.5687
 15,-0.767475\H,0,-1.610993,-1.662773,-0.7343\H,0,-1.582803,-0.264489,-
 1.818965\H,0,-2.549729,-0.218983,-0.340365\C,0,-0.417035,1.540958,-0.0
 90242\H,0,-1.345308,1.952507,0.315919\H,0,-0.3337,1.873605,-1.130674\H

 Normal termination of Gaussian 16 at Tue Apr  8 22:49:02 2025.
 Gaussian 16:  ES64L-G16RevC.01  3-Jul-2019

 ----------------------------------------------------------------------
 #t hf aug-cc-pvdz iop(5/13=1,5/36=2,99/5=2) pseudo=read geom=check gue
 ss=(read,tcheck) scf=(maxcycle=1)
 ----------------------------------------------------------------------
 -----
 title
 -----
 Structure from the checkpoint file:  "BDE49_expt_163_mol1.chk"
 Charge =  0 Multiplicity = 1

                         Standard orientation:
 ---------------------------------------------------------------------
 Center     Atomic      Atomic             Coordinates (Angstroms)
 Number     Number       Type             X           Y           Z
 ---------------------------------------------------------------------
      1          6           0       -0.408342    0.004740    0.009196
      2          6           0       -0.479680   -0.422552    1.484786
      3          1           0        0.414725   -0.099481    2.021356
      4          1           0       -0.547998   -1.511333    1.574017
      5          1           0       -1.355927    0.010046    1.976961
      6          6           0       -1.605339   -0.568715   -0.767475
      7          1           0       -1.610993   -1.662773   -0.734300
      8          1           0       -1.582803   -0.264489   -1.818965
      9          1           0       -2.549729   -0.218983   -0.340365
     10          6           0       -0.417035    1.540958   -0.090242
     11          1           0       -1.345308    1.952507    0.315919
     12          1           0       -0.333700    1.873605   -1.130674
     13          1           0        0.406350    1.983007    0.479207
     14          6           0        0.883748   -0.553556   -0.626603
     15          8           0        2.083132   -0.115934    0.005972
     16          1           0        0.897840   -0.308068   -1.698837
     17          1           0        0.889478   -1.643567   -0.539377
     18          1           0        2.212894    0.811743   -0.210688
 ---------------------------------------------------------------------

 SCF Done:  E(RHF) =  -272.561264905     A.U. after    2 cycles

 The electronic state is 1-A.
 Alpha  occ. eigenvalues --  -21.06303 -11.43388 -11.40212 -11.38818 -11.38205
 Alpha  occ. eigenvalues --  -11.34572  -1.70384  -1.27023  -1.00758  -1.00145
 Alpha  occ. eigenvalues --   -0.96427  -0.77212  -0.65776  -0.63228  -0.60874
 Alpha  occ. eigenvalues --   -0.58808  -0.55169  -0.52678  -0.51610  -0.50815
 Alpha  occ. eigenvalues --   -0.47318  -0.43223  -0.42332  -0.38824  -0.30507
 Alpha virt. eigenvalues --    0.03855   0.05097   0.05434   0.05537   0.05750
 Alpha virt. eigenvalues --    0.05891   0.06286   0.06637   0.07263   0.08964
 Alpha virt. eigenvalues --    0.09172   0.09329   0.11997   0.13230   0.13475

 Mulliken charges:
               1
     1  C    3.193281
     2  C   -4.867284
     3  H    1.342882
     4  H    1.177795
     5  H    1.214050
     6  C   -4.444575
     7  H    1.236238
     8  H    1.229594
     9  H    1.185194
    10  C   -4.510848
    11  H    1.201896
    12  H    1.119956
    13  H    1.337789
    14  C   -0.936816
    15  O   -2.780332
    16  H    1.387193
    17  H    1.258430
    18  H    0.655556
 Sum of Mulliken charges =  -0.00000

 Dipole moment (field-independent basis, Debye):
    X=             -0.4416    Y=              0.3920    Z=             -0.3036  Tot=              0.6640

 Test job not archived.
 1\1\GINC-SE328\SP\RHF\Aug-CC-pVDZ\C5H12O1\OHZDE\08-Apr-2025\0\\#t hf a
 ug-cc-pvdz iop(5/13=1,5/36=2,99/5=2) pseudo=read geom=check guess=(rea
 d,tcheck) scf=(maxcycle=1)\\title\\0,1\C,0,-0.408342,0.00474,0.009196\
 C,0,-0.47968,-0.422552,1.484786\H,0,0.414725,-0.099481,2.021356\H,0,-0
 .547998,-1.511333,1.574017\H,0,-1.355927,0.010046,1.976961\C,0,-1.6053
 39,-0.568715,-0.767475\H,0,-1.610993,-1.662773,-0.7343\H,0,-1.582803,-
 0.264489,-1.818965\H,0,-2.549729,-0.218983,-0.340365\C,0,-0.417035,1.5
 40958,-0.090242\H,0,-1.345308,1.952507,0.315919\H,0,-0.3337,1.873605,-

 Normal termination of Gaussian 16 at Tue Apr  8 22:49:08 2025.
