 Gaussian 16, Revision C.01,

 ----------------------------------------------------------------------
 #t hf aug-cc-pvdz symm=none int=(grid=ultrafine) guess=(read,tcheck) s
 table=(opt,rrhf)
 ----------------------------------------------------------------------
 -----
 title
 -----
 Symbolic Z-matrix:
 Charge =  0 Multiplicity = 1

 SCF Done:  E(RHF) =  -673.098284491     A.U. after   12 cycles
 Normal termination of Gaussian 16 at Wed Apr  9 00:12:35 2025.
 Gaussian 16:  ES64L-G16RevC.01  3-Jul-2019

 ----------------------------------------------------------------------
 #t hf aug-cc-pvdz iop(5/13=1,5/36=2,99/5=2) pseudo=read geom=check gue
 ss=(read,tcheck) scf=(maxcycle=1)
 ----------------------------------------------------------------------
 -----
 title
 -----
 Structure from the checkpoint file:  "BDE49_nonexpt_2401_mol1.chk"
 Charge =  0 Multiplicity = 1

                         Standard orientation:
 ---------------------------------------------------------------------
 Center     Atomic      Atomic             Coordinates (Angstroms)
 Number     Number       Type             X           Y           Z
 ---------------------------------------------------------------------
      1         14           0        1.752370   -0.469226    0.000001
      2         14           0       -0.166507    0.902349   -0.000004
      3          1           0        2.951283    0.401214    0.000013
      4          1           0        1.754251   -1.317705   -1.212228
      5          1           0        1.754233   -1.317714    1.212223
      6          6           0       -1.672640   -0.183007   -0.000014
      7          1           0       -0.255408    1.746838   -1.209834
      8          1           0       -0.255429    1.746811    1.209845
      9          7           0       -2.587882   -0.889302    0.000016
 ---------------------------------------------------------------------

 SCF Done:  E(RHF) =  -673.821614075     A.U. after    2 cycles

 The electronic state is 1-A.
 Alpha  occ. eigenvalues --  -76.26131 -76.24036 -15.77320 -11.40235  -5.59702
 Alpha  occ. eigenvalues --   -5.57458  -2.23546  -2.21686  -2.20852  -2.19543
 Alpha  occ. eigenvalues --   -2.19533  -2.18476  -1.30033  -0.87465  -0.77380
 Alpha  occ. eigenvalues --   -0.62569  -0.52327  -0.51005  -0.48896  -0.48830
 Alpha  occ. eigenvalues --   -0.47045  -0.44971  -0.37076
 Alpha virt. eigenvalues --    0.03592   0.04020   0.05539   0.05798   0.06776
 Alpha virt. eigenvalues --    0.07348   0.07429   0.08437   0.08723   0.08955
 Alpha virt. eigenvalues --    0.08979   0.10773   0.11861   0.12105   0.12983

 Mulliken charges:
               1
     1  Si   4.464585
     2  Si   4.644270
     3  H   -1.505218
     4  H   -1.440536
     5  H   -1.440534
     6  C    0.453322
     7  H   -1.654622
     8  H   -1.654615
     9  N   -1.866653
 Sum of Mulliken charges =  -0.00000

 Dipole moment (field-independent basis, Debye):
    X=              2.6975    Y=              1.1852    Z=             -0.0000  Tot=              2.9464

 Test job not archived.
 1\1\GINC-SE212\SP\RHF\Aug-CC-pVDZ\C1H5N1Si2\OHZDE\09-Apr-2025\0\\#t hf
  aug-cc-pvdz iop(5/13=1,5/36=2,99/5=2) pseudo=read geom=check guess=(r
 ead,tcheck) scf=(maxcycle=1)\\title\\0,1\Si,0,1.75237,-0.469227,0.0000
 01\Si,0,-0.166507,0.902349,-0.000004\H,0,2.951283,0.401213,0.000013\H,
 0,1.754251,-1.317706,-1.212228\H,0,1.754233,-1.317715,1.212223\C,0,-1.
 67264,-0.183007,-0.000014\H,0,-0.255408,1.746838,-1.209834\H,0,-0.2554
 29,1.746811,1.209845\N,0,-2.587882,-0.889302,0.000016\\Version=ES64L-G
 16RevC.01\State=1-A\HF=-673.8216141\RMSD=1.179e-01\Dipole=1.0612849,0.

 Normal termination of Gaussian 16 at Wed Apr  9 00:12:38 2025.
