 Gaussian 16, Revision C.01,

 ----------------------------------------------------------------------
 #t hf aug-cc-pvdz symm=none int=(grid=ultrafine) guess=(read,tcheck) s
 table=(opt,rrhf)
 ----------------------------------------------------------------------
 -----
 title
 -----
 Symbolic Z-matrix:
 Charge =  0 Multiplicity = 1

 SCF Done:  E(RHF) =  -686.940947772     A.U. after   16 cycles
 Normal termination of Gaussian 16 at Tue Apr  8 23:12:53 2025.
 Gaussian 16:  ES64L-G16RevC.01  3-Jul-2019

 ----------------------------------------------------------------------
 #t hf aug-cc-pvdz iop(5/13=1,5/36=2,99/5=2) pseudo=read geom=check gue
 ss=(read,tcheck) scf=(maxcycle=1)
 ----------------------------------------------------------------------
 -----
 title
 -----
 Structure from the checkpoint file:  "BDE49_expt_242_mol1.chk"
 Charge =  0 Multiplicity = 1

                         Standard orientation:
 ---------------------------------------------------------------------
 Center     Atomic      Atomic             Coordinates (Angstroms)
 Number     Number       Type             X           Y           Z
 ---------------------------------------------------------------------
      1          6           0       -2.899623   -1.762219    0.468211
      2          6           0       -1.938394   -0.811148    0.799009
      3          6           0       -3.783726   -1.528252   -0.582554
      4          6           0       -3.709800   -0.336776   -1.306429
      5          6           0       -2.756560    0.615873   -0.976132
      6          6           0       -1.860435    0.389215    0.079140
      7          1           0       -1.240916   -1.011303    1.601044
      8          1           0       -2.955431   -2.688302    1.028719
      9          1           0       -4.528878   -2.273042   -0.839261
     10          1           0       -4.396985   -0.154739   -2.124786
     11          1           0       -2.684980    1.550888   -1.517785
     12          6           0       -0.884006    1.470587    0.403985
     13          8           0       -0.915684    2.549289   -0.156788
     14          6           0        0.155061    1.265084    1.522776
     15          8           0        0.875463    0.040689    1.482711
     16          1           0       -0.370030    1.255706    2.482130
     17          1           0        0.824490    2.128630    1.504898
     18          6           0        1.879126   -0.109080    0.555545
     19          6           0        2.190379    0.825628   -0.433826
     20          6           0        2.611801   -1.296296    0.655179
     21          6           0        3.650987   -1.545126   -0.230456
     22          6           0        3.973976   -0.617045   -1.222498
     23          6           0        3.240832    0.560010   -1.315175
     24          1           0        1.628653    1.744010   -0.537731
     25          1           0        3.477074    1.288692   -2.082502
     26          1           0        2.351576   -2.002012    1.434756
     27          1           0        4.213675   -2.468030   -0.144800
     28          1           0        4.785805   -0.813041   -1.912721
 ---------------------------------------------------------------------

 SCF Done:  E(RHF) =  -690.110656986     A.U. after    2 cycles

 The electronic state is 1-A.
 Alpha  occ. eigenvalues --  -21.08485 -21.05933 -11.53909 -11.53642 -11.51635
 Alpha  occ. eigenvalues --  -11.46328 -11.45918 -11.44611 -11.43979 -11.42954
 Alpha  occ. eigenvalues --  -11.42425 -11.41763 -11.40765 -11.40602 -11.37701
 Alpha  occ. eigenvalues --  -11.36619  -1.80349  -1.71383  -1.35055  -1.31989
 Alpha  occ. eigenvalues --   -1.14015  -1.10444  -1.09910  -1.09022  -1.02595
 Alpha  occ. eigenvalues --   -0.91014  -0.87503  -0.87125  -0.83971  -0.78478
 Alpha  occ. eigenvalues --   -0.72670  -0.70894  -0.66903  -0.65712  -0.65279
 Alpha  occ. eigenvalues --   -0.61024  -0.60742  -0.59111  -0.58315  -0.56530
 Alpha  occ. eigenvalues --   -0.55234  -0.54327  -0.52105  -0.51614  -0.48356
 Alpha  occ. eigenvalues --   -0.46685  -0.46027  -0.45024  -0.43551  -0.41534
 Alpha  occ. eigenvalues --   -0.40163  -0.33938  -0.33388  -0.32563  -0.30204
 Alpha  occ. eigenvalues --   -0.25814
 Alpha virt. eigenvalues --    0.03250   0.04496   0.04692   0.05045   0.05195
 Alpha virt. eigenvalues --    0.05871   0.06049   0.06513   0.06899   0.07434
 Alpha virt. eigenvalues --    0.08241   0.08320   0.09060   0.09668   0.10522

 Mulliken charges:
               1
     1  C   -2.018371
     2  C   -0.326923
     3  C   -3.719363
     4  C   -0.949633
     5  C   -4.236160
     6  C    4.566371
     7  H    2.234902
     8  H    1.484914
     9  H    1.550972
    10  H    1.484371
    11  H    1.824663
    12  C    3.837647
    13  O   -4.220814
    14  C   -3.752163
    15  O   -4.792273
    16  H    1.406078
    17  H    1.437597
    18  C    7.475473
    19  C   -3.455449
    20  C   -4.800117
    21  C   -0.015153
    22  C   -2.879982
    23  C   -0.737033
    24  H    2.067105
    25  H    1.504450
    26  H    1.922478
    27  H    1.531378
    28  H    1.575035
 Sum of Mulliken charges =  -0.00000

 Dipole moment (field-independent basis, Debye):
    X=             -0.8149    Y=             -1.0943    Z=              0.2896  Tot=              1.3948

 Test job not archived.
 1\1\GINC-SE403\SP\RHF\Aug-CC-pVDZ\C14H12O2\OHZDE\08-Apr-2025\0\\#t hf
 aug-cc-pvdz iop(5/13=1,5/36=2,99/5=2) pseudo=read geom=check guess=(re
 ad,tcheck) scf=(maxcycle=1)\\title\\0,1\C,0,2.899623,-1.762219,-0.4682
 11\C,0,1.938394,-0.811148,-0.799009\C,0,3.783726,-1.528252,0.582554\C,
 0,3.7098,-0.336776,1.306429\C,0,2.75656,0.615873,0.976132\C,0,1.860435
 ,0.389215,-0.07914\H,0,1.240916,-1.011303,-1.601044\H,0,2.955431,-2.68
 8302,-1.028719\H,0,4.528878,-2.273042,0.839261\H,0,4.396985,-0.154739,
 2.124786\H,0,2.68498,1.550888,1.517785\C,0,0.884006,1.470587,-0.403985

 Normal termination of Gaussian 16 at Tue Apr  8 23:13:26 2025.
