 Gaussian 16, Revision C.01,

 ----------------------------------------------------------------------
 #t hf aug-cc-pvdz symm=none int=(grid=ultrafine) guess=(read,tcheck) s
 table=(opt,rrhf)
 ----------------------------------------------------------------------
 -----
 title
 -----
 Symbolic Z-matrix:
 Charge =  0 Multiplicity = 1

 SCF Done:  E(RHF) =  -409.947812650     A.U. after   13 cycles
 Normal termination of Gaussian 16 at Tue Apr  8 22:41:00 2025.
 Gaussian 16:  ES64L-G16RevC.01  3-Jul-2019

 ----------------------------------------------------------------------
 #t hf aug-cc-pvdz iop(5/13=1,5/36=2,99/5=2) pseudo=read geom=check gue
 ss=(read,tcheck) scf=(maxcycle=1)
 ----------------------------------------------------------------------
 -----
 title
 -----
 Structure from the checkpoint file:  "BDE49_expt_1276_mol1.chk"
 Charge =  0 Multiplicity = 1

                         Standard orientation:
 ---------------------------------------------------------------------
 Center     Atomic      Atomic             Coordinates (Angstroms)
 Number     Number       Type             X           Y           Z
 ---------------------------------------------------------------------
      1          6           0        0.583909    0.000000    0.030603
      2          7           0       -0.773088   -0.000000   -0.625460
      3          9           0       -1.475099   -1.094429   -0.066201
      4          9           0       -1.475099    1.094429   -0.066201
      5          6           0        0.491719   -0.000004    1.560339
      6          1           0       -0.032714    0.885457    1.920498
      7          1           0        1.499429   -0.000004    1.982559
      8          1           0       -0.032713   -0.885466    1.920494
      9          6           0        1.277509    1.262186   -0.501168
     10          1           0        0.787131    2.164710   -0.135326
     11          1           0        1.269305    1.279549   -1.593504
     12          1           0        2.316313    1.269034   -0.163815
     13          6           0        1.277512   -1.262182   -0.501174
     14          1           0        0.787139   -2.164708   -0.135334
     15          1           0        2.316317   -1.269026   -0.163822
     16          1           0        1.269306   -1.279541   -1.593510
 ---------------------------------------------------------------------

 SCF Done:  E(RHF) =  -411.682651668     A.U. after    2 cycles

 The electronic state is 1-A.
 Alpha  occ. eigenvalues --  -29.27983 -29.27952 -15.87746 -11.46178 -11.40716
 Alpha  occ. eigenvalues --  -11.40323 -11.36598  -1.52864  -1.22056  -1.03764
 Alpha  occ. eigenvalues --   -1.03649  -0.85557  -0.80579  -0.69185  -0.67178
 Alpha  occ. eigenvalues --   -0.61183  -0.59871  -0.55415  -0.54262  -0.53385
 Alpha  occ. eigenvalues --   -0.51547  -0.46925  -0.46034  -0.41993  -0.37812
 Alpha  occ. eigenvalues --   -0.29899  -0.27645  -0.21300  -0.19522
 Alpha virt. eigenvalues --    0.03908   0.05591   0.05623   0.05750   0.06056
 Alpha virt. eigenvalues --    0.06309   0.06737   0.07012   0.09126   0.11736
 Alpha virt. eigenvalues --    0.13330   0.13987   0.14047   0.15043   0.15859

 Mulliken charges:
               1
     1  C    2.583979
     2  N   -0.808513
     3  F   -0.305539
     4  F   -0.305539
     5  C   -4.126090
     6  H    1.170100
     7  H    1.116412
     8  H    1.170099
     9  C   -3.808815
    10  H    1.237181
    11  H    1.172317
    12  H    1.151865
    13  C   -3.808819
    14  H    1.237183
    15  H    1.151864
    16  H    1.172317
 Sum of Mulliken charges =  -0.00000

 Dipole moment (field-independent basis, Debye):
    X=             -0.4066    Y=             -0.0000    Z=              1.3877  Tot=              1.4460

 Test job not archived.
 1\1\GINC-SE226\SP\RHF\Aug-CC-pVDZ\C4H9F2N1\OHZDE\08-Apr-2025\0\\#t hf
 aug-cc-pvdz iop(5/13=1,5/36=2,99/5=2) pseudo=read geom=check guess=(re
 ad,tcheck) scf=(maxcycle=1)\\title\\0,1\C,0,-0.583909,0.,0.030603\N,0,
 0.773088,0.,-0.62546\F,0,1.475099,1.094429,-0.066201\F,0,1.475099,-1.0
 94429,-0.066201\C,0,-0.491719,0.000004,1.560339\H,0,0.032714,-0.885457
 ,1.920498\H,0,-1.499429,0.000004,1.982559\H,0,0.032713,0.885466,1.9204
 94\C,0,-1.277509,-1.262186,-0.501168\H,0,-0.787132,-2.16471,-0.135326\
 H,0,-1.269305,-1.279549,-1.593504\H,0,-2.316313,-1.269033,-0.163815\C,

 Normal termination of Gaussian 16 at Tue Apr  8 22:41:05 2025.
