 Gaussian 16, Revision C.01,

 ----------------------------------------------------------------------
 #t hf aug-cc-pvdz symm=none int=(grid=ultrafine) guess=(read,tcheck) s
 table=(opt,rrhf)
 ----------------------------------------------------------------------
 -----
 title
 -----
 Symbolic Z-matrix:
 Charge =  0 Multiplicity = 1

 SCF Done:  E(RHF) =  -1510.06412459     A.U. after   16 cycles
 Normal termination of Gaussian 16 at Wed Apr  9 00:51:20 2025.
 Gaussian 16:  ES64L-G16RevC.01  3-Jul-2019

 ----------------------------------------------------------------------
 #t hf aug-cc-pvdz iop(5/13=1,5/36=2,99/5=2) pseudo=read geom=check gue
 ss=(read,tcheck) scf=(maxcycle=1)
 ----------------------------------------------------------------------
 -----
 title
 -----
 Structure from the checkpoint file:  "BDE49_nonexpt_896_mol1.chk"
 Charge =  0 Multiplicity = 1

                         Standard orientation:
 ---------------------------------------------------------------------
 Center     Atomic      Atomic             Coordinates (Angstroms)
 Number     Number       Type             X           Y           Z
 ---------------------------------------------------------------------
      1         17           0        4.127381   -0.002058    0.000643
      2         16           0       -3.015271    1.473630    0.327028
      3         16           0       -2.836440   -1.561999   -0.368774
      4          5           0       -1.992472    0.006023    0.004346
      5          6           0       -0.432939    0.013530    0.006097
      6          6           0        0.296287   -1.104828    0.450654
      7          1           0       -0.231071   -1.980034    0.813075
      8          6           0        1.686718   -1.116140    0.460679
      9          1           0        2.232988   -1.979631    0.817659
     10          6           0        2.374056    0.002481    0.001069
     11          6           0        1.693264    1.125227   -0.459950
     12          1           0        2.245173    1.982645   -0.822902
     13          6           0        0.303269    1.123539   -0.446175
     14          1           0       -0.215357    1.999487   -0.819889
     15          1           0       -2.029839    2.309638    0.697503
     16          1           0       -4.101552   -1.176176   -0.124400
 ---------------------------------------------------------------------

 SCF Done:  E(RHF) =  -1511.96639616     A.U. after    2 cycles

 The electronic state is 1-A.
 Alpha  occ. eigenvalues --  -99.90293 -75.70088 -75.69850 -13.17954 -13.17281
 Alpha  occ. eigenvalues --  -13.11789 -13.10208 -13.06447 -13.04406 -11.52700
 Alpha  occ. eigenvalues --  -11.47014 -11.45567 -11.43458 -11.42924 -11.38404
 Alpha  occ. eigenvalues --  -10.47643  -9.67672  -9.66775  -9.66604  -8.04182
 Alpha  occ. eigenvalues --   -8.03654  -7.69212  -1.41505  -1.30201  -1.20871
 Alpha  occ. eigenvalues --   -1.11973  -1.09988  -1.08997  -0.89472  -0.88430
 Alpha  occ. eigenvalues --   -0.75678  -0.69830  -0.64330  -0.62735  -0.60284
 Alpha  occ. eigenvalues --   -0.58162  -0.58136  -0.53463  -0.51237  -0.50653
 Alpha  occ. eigenvalues --   -0.46655  -0.46231  -0.38749  -0.37400  -0.35249
 Alpha  occ. eigenvalues --   -0.34671  -0.31119  -0.25710
 Alpha virt. eigenvalues --    0.02080   0.02756   0.03303   0.03938   0.05733
 Alpha virt. eigenvalues --    0.06609   0.06752   0.07312   0.07854   0.08747
 Alpha virt. eigenvalues --    0.09171   0.09834   0.10248   0.11402   0.11433

 Mulliken charges:
               1
     1  Cl  -0.785789
     2  S   -2.995971
     3  S   -2.972427
     4  B    3.311061
     5  C   -2.529949
     6  C   -0.066492
     7  H    1.877293
     8  C   -1.536666
     9  H    1.812724
    10  C   -0.739292
    11  C   -1.287553
    12  H    1.825508
    13  C    0.518984
    14  H    1.838746
    15  H    0.915632
    16  H    0.814193
 Sum of Mulliken charges =  -0.00000

 Dipole moment (field-independent basis, Debye):
    X=             -2.6417    Y=             -1.1629    Z=             -0.4669  Tot=              2.9238

 Test job not archived.
 1\1\GINC-SE343\SP\RHF\Aug-CC-pVDZ\C6H6B1Cl1S2\OHZDE\09-Apr-2025\0\\#t
 hf aug-cc-pvdz iop(5/13=1,5/36=2,99/5=2) pseudo=read geom=check guess=
 (read,tcheck) scf=(maxcycle=1)\\title\\0,1\Cl,0,4.127381,-0.002058,0.0
 00643\S,0,-3.015271,1.47363,0.327028\S,0,-2.83644,-1.561999,-0.368774\
 B,0,-1.992472,0.006023,0.004346\C,0,-0.432939,0.01353,0.006097\C,0,0.2
 96287,-1.104828,0.450654\H,0,-0.231071,-1.980034,0.813075\C,0,1.686718
 ,-1.11614,0.460679\H,0,2.232988,-1.979631,0.817659\C,0,2.374056,0.0024
 81,0.001069\C,0,1.693264,1.125227,-0.45995\H,0,2.245173,1.982645,-0.82

 Normal termination of Gaussian 16 at Wed Apr  9 00:51:29 2025.
