 Gaussian 16, Revision C.01,

 ----------------------------------------------------------------------
 #t hf aug-cc-pvdz symm=none int=(grid=ultrafine) guess=(read,tcheck) s
 table=(opt,rrhf)
 ----------------------------------------------------------------------
 -----
 title
 -----
 Symbolic Z-matrix:
 Charge =  0 Multiplicity = 1

 SCF Done:  E(RHF) =  -616.568022435     A.U. after   16 cycles
 Normal termination of Gaussian 16 at Wed Apr  9 00:28:56 2025.
 Gaussian 16:  ES64L-G16RevC.01  3-Jul-2019

 ----------------------------------------------------------------------
 #t hf aug-cc-pvdz iop(5/13=1,5/36=2,99/5=2) pseudo=read geom=check gue
 ss=(read,tcheck) scf=(maxcycle=1)
 ----------------------------------------------------------------------
 -----
 title
 -----
 Structure from the checkpoint file:  "BDE49_nonexpt_304_mol1.chk"
 Charge =  0 Multiplicity = 1

                         Standard orientation:
 ---------------------------------------------------------------------
 Center     Atomic      Atomic             Coordinates (Angstroms)
 Number     Number       Type             X           Y           Z
 ---------------------------------------------------------------------
      1          6           0       -0.058362   -0.493532    0.234214
      2          5           0        1.340562    0.240891   -0.144149
      3          7           0       -1.315672    0.327449   -0.227217
      4          8           0        2.339432   -0.582796   -0.516175
      5          8           0        1.478827    1.576800   -0.047482
      6          8           0       -1.305307    1.506596    0.113467
      7          8           0       -2.177828   -0.236350   -0.851354
      8          9           0       -0.201055   -1.717495   -0.273356
      9          9           0       -0.203334   -0.566423    1.586491
     10          1           0        0.651124    2.021062    0.190827
     11          1           0        3.164458   -0.115206   -0.690716
 ---------------------------------------------------------------------

 SCF Done:  E(RHF) =  -618.962694233     A.U. after    2 cycles

 The electronic state is 1-A.
 Alpha  occ. eigenvalues --  -29.33738 -29.33670 -21.14428 -21.12553 -21.09740
 Alpha  occ. eigenvalues --  -21.09194 -16.02478 -11.57595  -7.69921  -2.03531
 Alpha  occ. eigenvalues --   -1.85997  -1.73581  -1.70459  -1.38126  -1.00623
 Alpha  occ. eigenvalues --   -0.88266  -0.87503  -0.78218  -0.73449  -0.67784
 Alpha  occ. eigenvalues --   -0.64666  -0.63055  -0.53542  -0.51851  -0.48856
 Alpha  occ. eigenvalues --   -0.46122  -0.44660  -0.41829  -0.39924  -0.38359
 Alpha  occ. eigenvalues --   -0.35319  -0.32926  -0.30846  -0.27522  -0.26051
 Alpha virt. eigenvalues --    0.03037   0.04809   0.05170   0.06740   0.07987
 Alpha virt. eigenvalues --    0.08469   0.10976   0.11138   0.13656   0.14674
 Alpha virt. eigenvalues --    0.15880   0.16238   0.17204   0.17650   0.20218

 Mulliken charges:
               1
     1  C   -1.263386
     2  B    7.270817
     3  N    4.017412
     4  O   -3.774459
     5  O   -3.977265
     6  O   -2.837812
     7  O   -2.746403
     8  F    0.658522
     9  F    0.147121
    10  H    1.518407
    11  H    0.987045
 Sum of Mulliken charges =  -0.00000

 Dipole moment (field-independent basis, Debye):
    X=              1.3158    Y=             -2.1229    Z=              1.1872  Tot=              2.7654

 Test job not archived.
 1\1\GINC-SE368\SP\RHF\Aug-CC-pVDZ\C1H2B1F2N1O4\OHZDE\09-Apr-2025\0\\#t
  hf aug-cc-pvdz iop(5/13=1,5/36=2,99/5=2) pseudo=read geom=check guess
 =(read,tcheck) scf=(maxcycle=1)\\title\\0,1\C,0,-0.058362,-0.493532,0.
 234214\B,0,1.340562,0.240891,-0.144149\N,0,-1.315672,0.327449,-0.22721
 7\O,0,2.339432,-0.582796,-0.516175\O,0,1.478827,1.5768,-0.047482\O,0,-
 1.305307,1.506596,0.113467\O,0,-2.177828,-0.23635,-0.851354\F,0,-0.201
 055,-1.717495,-0.273356\F,0,-0.203334,-0.566423,1.586491\H,0,0.651124,
 2.021062,0.190827\H,0,3.164458,-0.115205,-0.690716\\Version=ES64L-G16R

 Normal termination of Gaussian 16 at Wed Apr  9 00:29:00 2025.
