 Gaussian 16, Revision C.01,

 ----------------------------------------------------------------------
 #t hf aug-cc-pvdz symm=none int=(grid=ultrafine) guess=(read,tcheck) s
 table=(opt,rrhf)
 ----------------------------------------------------------------------
 -----
 title
 -----
 Symbolic Z-matrix:
 Charge =  0 Multiplicity = 1

 SCF Done:  E(RHF) =  -381.511989963     A.U. after   11 cycles
 Normal termination of Gaussian 16 at Tue Apr  8 23:13:45 2025.
 Gaussian 16:  ES64L-G16RevC.01  3-Jul-2019

 ----------------------------------------------------------------------
 #t hf aug-cc-pvdz iop(5/13=1,5/36=2,99/5=2) pseudo=read geom=check gue
 ss=(read,tcheck) scf=(maxcycle=1)
 ----------------------------------------------------------------------
 -----
 title
 -----
 Structure from the checkpoint file:  "BDE49_expt_817_mol1.chk"
 Charge =  0 Multiplicity = 1

                         Standard orientation:
 ---------------------------------------------------------------------
 Center     Atomic      Atomic             Coordinates (Angstroms)
 Number     Number       Type             X           Y           Z
 ---------------------------------------------------------------------
      1         15           0        0.070326   -0.675971   -0.000000
      2          1           0       -0.886515   -0.865209    1.032015
      3          6           0        0.070326    1.192480   -0.000000
      4          1           0       -0.886515   -0.865209   -1.032015
      5          1           0        0.612025    1.542422    0.881396
      6          1           0       -0.927861    1.630256    0.000000
      7          1           0        0.612025    1.542422   -0.881396
 ---------------------------------------------------------------------

 SCF Done:  E(RHF) =  -381.928241806     A.U. after    2 cycles

 The electronic state is 1-A'.
 Alpha  occ. eigenvalues -- -105.17198 -11.37086  -2.74284  -1.45496  -1.42932
 Alpha  occ. eigenvalues --   -1.41887  -1.00647  -0.69801  -0.56278  -0.56110
 Alpha  occ. eigenvalues --   -0.25039  -0.22163  -0.02158
 Alpha virt. eigenvalues --    0.04064   0.05891   0.06358   0.06759   0.09030
 Alpha virt. eigenvalues --    0.10335   0.10952   0.13377   0.16110   0.16345
 Alpha virt. eigenvalues --    0.17751   0.18101   0.21517   0.24588   0.26875

 Mulliken charges:
               1
     1  P    2.606315
     2  H   -0.521413
     3  C   -5.105491
     4  H   -0.521413
     5  H    1.165887
     6  H    1.210228
     7  H    1.165887
 Sum of Mulliken charges =  -0.00000

 Dipole moment (field-independent basis, Debye):
    X=              1.6318    Y=             -0.6730    Z=             -0.0000  Tot=              1.7651

 Test job not archived.
 1\1\GINC-SE362\SP\RHF\Aug-CC-pVDZ\C1H5P1\OHZDE\08-Apr-2025\0\\#t hf au
 g-cc-pvdz iop(5/13=1,5/36=2,99/5=2) pseudo=read geom=check guess=(read
 ,tcheck) scf=(maxcycle=1)\\title\\0,1\P,0,0.070326,-0.675971,0.\H,0,-0
 .886515,-0.865209,1.032015\C,0,0.070326,1.19248,0.\H,0,-0.886515,-0.86
 5209,-1.032015\H,0,0.612025,1.542422,0.881396\H,0,-0.927861,1.630256,0
 .\H,0,0.612025,1.542422,-0.881396\\Version=ES64L-G16RevC.01\State=1-A'
 \HF=-381.9282418\RMSD=3.559e-01\Dipole=0.6419862,-0.2647812,0.\Quadrup
 ole=-2.7607913,-0.8392653,3.6000565,1.8240972,0.,0.\PG=CS [SG(C1H1P1),

 Normal termination of Gaussian 16 at Tue Apr  8 23:13:47 2025.
