 Gaussian 16, Revision C.01,

 ----------------------------------------------------------------------
 #t hf aug-cc-pvdz symm=none int=(grid=ultrafine) guess=(read,tcheck) s
 table=opt
 ----------------------------------------------------------------------
 -----
 title
 -----
 Symbolic Z-matrix:
 Charge =  0 Multiplicity = 2

 SCF Done:  E(UHF) =  -495.554109437     A.U. after   15 cycles
 Normal termination of Gaussian 16 at Tue Apr  8 23:43:13 2025.
 Gaussian 16:  ES64L-G16RevC.01  3-Jul-2019

 ----------------------------------------------------------------------
 #t hf aug-cc-pvdz iop(5/13=1,5/36=2,99/5=2) pseudo=read geom=check gue
 ss=(read,tcheck) scf=(maxcycle=1)
 ----------------------------------------------------------------------
 -----
 title
 -----
 Structure from the checkpoint file:  "BDE49_nonexpt_1686_mol2.chk"
 Charge =  0 Multiplicity = 2

                         Standard orientation:
 ---------------------------------------------------------------------
 Center     Atomic      Atomic             Coordinates (Angstroms)
 Number     Number       Type             X           Y           Z
 ---------------------------------------------------------------------
      1         14           0       -0.039397   -0.055882   -0.392783
      2          7           0        0.711742    1.379235    0.191637
      3          8           0       -1.612015   -0.080825    0.119207
      4          1           0        0.326580    2.278759   -0.060547
      5          1           0        1.722300    1.410795    0.219876
      6          1           0       -1.765394    0.140825    1.045692
      7          8           0        0.921829   -1.241138    0.261273
      8          1           0        0.807360   -2.126964   -0.091362
 ---------------------------------------------------------------------

 SCF Done:  E(UHF) =  -496.570996576     A.U. after    2 cycles

 The electronic state is 2-A.
 Alpha  occ. eigenvalues --  -76.25381 -21.07775 -21.07275 -15.73726  -5.59797
 Alpha  occ. eigenvalues --   -2.27166  -2.24721  -2.20460  -1.68151  -1.63947
 Alpha  occ. eigenvalues --   -1.25810  -0.72769  -0.66046  -0.61038  -0.55176
 Alpha  occ. eigenvalues --   -0.47987  -0.46323  -0.40100  -0.39513  -0.35636
 Alpha  occ. eigenvalues --   -0.25746
 Alpha virt. eigenvalues --    0.04012   0.05405   0.06078   0.06712   0.07353
 Alpha virt. eigenvalues --    0.08086   0.09153   0.13414   0.16803   0.18569
 Alpha virt. eigenvalues --    0.18964   0.19528   0.21231   0.22097   0.22842

  Beta  occ. eigenvalues --  -76.24844 -21.07391 -21.07028 -15.73294  -5.58886
  Beta  occ. eigenvalues --   -2.26614  -2.24138  -2.17491  -1.67281  -1.63255
  Beta  occ. eigenvalues --   -1.24669  -0.70153  -0.65602  -0.60008  -0.54494
  Beta  occ. eigenvalues --   -0.46418  -0.43735  -0.39143  -0.37803  -0.35390
  Beta virt. eigenvalues --    0.02831   0.05460   0.06138   0.06730   0.07167
  Beta virt. eigenvalues --    0.08213   0.08920   0.09510   0.16785   0.17328
  Beta virt. eigenvalues --    0.19395   0.20003   0.20684   0.21985   0.22684

 Mulliken charges and spin densities:
               1          2
     1  Si   4.056977   1.074327
     2  N   -2.320466   0.070986
     3  O   -2.528235  -0.083487
     4  H    0.649551  -0.004546
     5  H    0.634432  -0.010354
     6  H    0.941487   0.004530
     7  O   -2.483898  -0.027973
     8  H    1.050150  -0.023483
 Sum of Mulliken charges =  -0.00000   1.00000

 Dipole moment (field-independent basis, Debye):
    X=              0.5646    Y=              0.3905    Z=              0.1089  Tot=              0.6950
                          Isotropic Fermi Contact Couplings
        Atom                 a.u.       MegaHertz       Gauss      10(-4) cm-1
     1  Si(29)             0.65992    -586.48696    -209.27313    -195.63099
     2  N(14)              0.05798      18.73375       6.68467       6.24891
     3  O(17)              0.11513     -69.78989     -24.90277     -23.27940
     4  H(1)              -0.00173      -7.73498      -2.76003      -2.58011
     5  H(1)              -0.00176      -7.87852      -2.81125      -2.62799
     6  H(1)               0.00764      34.16816      12.19205      11.39727
     7  O(17)              0.04380     -26.54852      -9.47317      -8.85563
     8  H(1)              -0.00055      -2.47156      -0.88191      -0.82442

 Normal termination of Gaussian 16 at Tue Apr  8 23:43:16 2025.
