 Gaussian 16, Revision C.01,

 ----------------------------------------------------------------------
 #t hf aug-cc-pvdz symm=none int=(grid=ultrafine) guess=(read,tcheck) s
 table=opt
 ----------------------------------------------------------------------
 -----
 title
 -----
 Symbolic Z-matrix:
 Charge =  0 Multiplicity = 2

 SCF Done:  E(UHF) =  -553.507207232     A.U. after   18 cycles
 Normal termination of Gaussian 16 at Wed Apr  9 00:37:48 2025.
 Gaussian 16:  ES64L-G16RevC.01  3-Jul-2019

 ----------------------------------------------------------------------
 #t hf aug-cc-pvdz iop(5/13=1,5/36=2,99/5=2) pseudo=read geom=check gue
 ss=(read,tcheck) scf=(maxcycle=1)
 ----------------------------------------------------------------------
 -----
 title
 -----
 Structure from the checkpoint file:  "BDE49_nonexpt_555_mol2.chk"
 Charge =  0 Multiplicity = 2

                         Standard orientation:
 ---------------------------------------------------------------------
 Center     Atomic      Atomic             Coordinates (Angstroms)
 Number     Number       Type             X           Y           Z
 ---------------------------------------------------------------------
      1          7           0        0.463680    0.711950   -0.000007
      2          6           0        1.540933   -0.259049    0.000002
      3          1           0        2.473762    0.309298   -0.000012
      4          1           0        1.504311   -0.904469   -0.886466
      5         17           0       -1.057280   -0.113514    0.000002
      6          1           0        1.504320   -0.904439    0.886492
 ---------------------------------------------------------------------

 SCF Done:  E(UHF) =  -554.173429649     A.U. after    2 cycles

 The electronic state is 2-A.
 Alpha  occ. eigenvalues --  -99.91068 -15.82020 -11.40597 -10.48359  -9.67924
 Alpha  occ. eigenvalues --   -9.67355  -9.67266  -1.46781  -1.20384  -0.94659
 Alpha  occ. eigenvalues --   -0.67549  -0.66118  -0.61823  -0.55165  -0.51944
 Alpha  occ. eigenvalues --   -0.44194  -0.41694
 Alpha virt. eigenvalues --    0.03269   0.05459   0.06188   0.06345   0.08696
 Alpha virt. eigenvalues --    0.14004   0.14749   0.14953   0.15278   0.15338
 Alpha virt. eigenvalues --    0.17405   0.20784   0.21447   0.22713   0.25685

  Beta  occ. eigenvalues --  -99.91096 -15.78619 -11.40895 -10.48388  -9.68425
  Beta  occ. eigenvalues --   -9.67287  -9.67006  -1.41736  -1.17782  -0.90042
  Beta  occ. eigenvalues --   -0.64909  -0.60789  -0.60661  -0.52755  -0.51707
  Beta  occ. eigenvalues --   -0.41609
  Beta virt. eigenvalues --    0.03329   0.05877   0.06123   0.06728   0.07267
  Beta virt. eigenvalues --    0.08754   0.14230   0.14897   0.15007   0.15323
  Beta virt. eigenvalues --    0.15716   0.17875   0.21062   0.21467   0.25208

 Mulliken charges and spin densities:
               1          2
     1  N   -1.452223   1.142872
     2  C   -2.928342  -0.167963
     3  H    1.186475   0.005216
     4  H    1.325571   0.039870
     5  Cl   0.542949  -0.059866
     6  H    1.325570   0.039871
 Sum of Mulliken charges =   0.00000   1.00000

 Dipole moment (field-independent basis, Debye):
    X=              2.1235    Y=             -0.6727    Z=              0.0000  Tot=              2.2275
                          Isotropic Fermi Contact Couplings
        Atom                 a.u.       MegaHertz       Gauss      10(-4) cm-1
     1  N(14)              0.21680      70.04833      24.99499      23.36561
     2  C(13)             -0.03010     -33.83425     -12.07290     -11.28589
     3  H(1)               0.00146       6.51428       2.32446       2.17293
     4  H(1)               0.01639      73.25856      26.14048      24.43643
     5  Cl(35)             0.02316      10.15622       3.62399       3.38775
     6  H(1)               0.01639      73.25990      26.14095      24.43687
 --------------------------------------------------------
       Center         ----  Spin Dipole Couplings  ----

 Normal termination of Gaussian 16 at Wed Apr  9 00:37:49 2025.
