 Gaussian 16, Revision C.01,

 ----------------------------------------------------------------------
 #t hf aug-cc-pvdz symm=none int=(grid=ultrafine) guess=(read,tcheck) s
 table=(opt,rrhf)
 ----------------------------------------------------------------------
 -----
 title
 -----
 Symbolic Z-matrix:
 Charge =  0 Multiplicity = 1

 SCF Done:  E(RHF) =  -309.105340154     A.U. after   12 cycles

 1\1\GINC-SE342\Stability\RHF\Aug-CC-pVDZ\C6H12O1\OHZDE\08-Apr-2025\0\\
 #t hf aug-cc-pvdz symm=none int=(grid=ultrafine) guess=(read,tcheck) s
 table=(opt,rrhf)\\title\\0,1\C,0,0.339372,1.255146,-0.180092\C,0,-1.14
 7606,1.27849,0.206211\C,0,1.036192,-0.014103,0.322816\H,0,0.850898,2.1
 40548,0.217627\H,0,0.446823,1.288594,-1.270904\C,0,-1.869775,0.013804,
 -0.280819\H,0,-1.626888,2.173665,-0.201861\H,0,-1.239197,1.348646,1.29
 7827\C,0,0.320197,-1.268958,-0.169164\C,0,-1.166569,-1.258502,0.214722
 \H,0,-1.889808,0.010687,-1.378066\H,0,-2.912988,0.023491,0.050867\H,0,

 Normal termination of Gaussian 16 at Tue Apr  8 22:42:13 2025.
 Gaussian 16:  ES64L-G16RevC.01  3-Jul-2019

 ----------------------------------------------------------------------
 #t hf aug-cc-pvdz iop(5/13=1,5/36=2,99/5=2) pseudo=read geom=check gue
 ss=(read,tcheck) scf=(maxcycle=1)
 ----------------------------------------------------------------------
 -----
 title
 -----
 Structure from the checkpoint file:  "BDE49_expt_1345_mol1.chk"
 Charge =  0 Multiplicity = 1

                         Standard orientation:
 ---------------------------------------------------------------------
 Center     Atomic      Atomic             Coordinates (Angstroms)
 Number     Number       Type             X           Y           Z
 ---------------------------------------------------------------------
      1          6           0        0.339372    1.255146   -0.180092
      2          6           0       -1.147606    1.278490    0.206211
      3          6           0        1.036192   -0.014103    0.322816
      4          1           0        0.850898    2.140548    0.217627
      5          1           0        0.446823    1.288594   -1.270904
      6          6           0       -1.869775    0.013804   -0.280819
      7          1           0       -1.626888    2.173665   -0.201861
      8          1           0       -1.239197    1.348646    1.297827
      9          6           0        0.320197   -1.268958   -0.169164
     10          6           0       -1.166569   -1.258502    0.214722
     11          1           0       -1.889808    0.010687   -1.378066
     12          1           0       -2.912988    0.023491    0.050867
     13          1           0        0.825360   -2.151128    0.234340
     14          1           0        0.427873   -1.311815   -1.259646
     15          1           0       -1.660923   -2.147521   -0.188553
     16          1           0       -1.261741   -1.320790    1.306512
     17          8           0        2.387456   -0.096107   -0.135521
     18          1           0        2.851255    0.690400    0.168539
     19          1           0        1.018830   -0.011185    1.425445
 ---------------------------------------------------------------------

 SCF Done:  E(RHF) =  -310.617580857     A.U. after    2 cycles

 The electronic state is 1-A.
 Alpha  occ. eigenvalues --  -21.05893 -11.45416 -11.43462 -11.41899 -11.37814
 Alpha  occ. eigenvalues --  -11.37576 -11.33847  -1.70501  -1.29115  -1.10221
 Alpha  occ. eigenvalues --   -1.07328  -0.88748  -0.86244  -0.78246  -0.65804
 Alpha  occ. eigenvalues --   -0.64271  -0.61515  -0.60778  -0.55473  -0.52507
 Alpha  occ. eigenvalues --   -0.49911  -0.48791  -0.46896  -0.44609  -0.42655
 Alpha  occ. eigenvalues --   -0.39317  -0.37690  -0.30576
 Alpha virt. eigenvalues --    0.04227   0.05010   0.05131   0.05393   0.05570
 Alpha virt. eigenvalues --    0.05740   0.06024   0.06701   0.07066   0.08337
 Alpha virt. eigenvalues --    0.08730   0.08914   0.12876   0.13389   0.14132

 Mulliken charges:
               1
     1  C   -3.111436
     2  C   -2.582633
     3  C    1.718176
     4  H    1.326928
     5  H    1.325337
     6  C   -2.741357
     7  H    1.281789
     8  H    1.339611
     9  C   -3.087555
    10  C   -2.561293
    11  H    1.357879
    12  H    1.325754
    13  H    1.321104
    14  H    1.328688
    15  H    1.284109
    16  H    1.328427
    17  O   -3.373778
    18  H    0.726230
    19  H    1.794019
 Sum of Mulliken charges =  -0.00000

 Dipole moment (field-independent basis, Debye):
    X=             -0.5211    Y=              0.4369    Z=              0.3437  Tot=              0.7619

 Test job not archived.
 1\1\GINC-SE342\SP\RHF\Aug-CC-pVDZ\C6H12O1\OHZDE\08-Apr-2025\0\\#t hf a
 ug-cc-pvdz iop(5/13=1,5/36=2,99/5=2) pseudo=read geom=check guess=(rea
 d,tcheck) scf=(maxcycle=1)\\title\\0,1\C,0,0.339372,1.255146,-0.180092
 \C,0,-1.147606,1.27849,0.206211\C,0,1.036192,-0.014103,0.322816\H,0,0.
 850898,2.140548,0.217627\H,0,0.446823,1.288594,-1.270904\C,0,-1.869775
 ,0.013804,-0.280819\H,0,-1.626888,2.173665,-0.201861\H,0,-1.239197,1.3
 48646,1.297827\C,0,0.320197,-1.268958,-0.169164\C,0,-1.166569,-1.25850
 2,0.214722\H,0,-1.889808,0.010687,-1.378066\H,0,-2.912988,0.023491,0.0

 Normal termination of Gaussian 16 at Tue Apr  8 22:42:21 2025.
