 Gaussian 16, Revision C.01,

 ----------------------------------------------------------------------
 #t hf aug-cc-pvdz symm=none int=(grid=ultrafine) guess=(read,tcheck) s
 table=(opt,rrhf)
 ----------------------------------------------------------------------
 -----
 title
 -----
 Symbolic Z-matrix:
 Charge =  0 Multiplicity = 1

 SCF Done:  E(RHF) =  -431.125799525     A.U. after   13 cycles
 Normal termination of Gaussian 16 at Wed Apr  9 00:32:52 2025.
 Gaussian 16:  ES64L-G16RevC.01  3-Jul-2019

 ----------------------------------------------------------------------
 #t hf aug-cc-pvdz iop(5/13=1,5/36=2,99/5=2) pseudo=read geom=check gue
 ss=(read,tcheck) scf=(maxcycle=1)
 ----------------------------------------------------------------------
 -----
 title
 -----
 Structure from the checkpoint file:  "BDE49_nonexpt_390_mol1.chk"
 Charge =  0 Multiplicity = 1

                         Standard orientation:
 ---------------------------------------------------------------------
 Center     Atomic      Atomic             Coordinates (Angstroms)
 Number     Number       Type             X           Y           Z
 ---------------------------------------------------------------------
      1          9           0        1.495686   -1.433652    0.000096
      2          9           0        2.258861    0.696237    0.000211
      3          5           0        1.239469   -0.128741   -0.000228
      4          6           0       -0.264674    0.404035   -0.000114
      5          8           0       -0.515849    1.601862   -0.000081
      6          7           0       -1.215611   -0.576363   -0.000070
      7          6           0       -2.641657   -0.293736    0.000024
      8          1           0       -0.905732   -1.535947   -0.000102
      9          1           0       -2.759422    0.788466    0.000041
     10          1           0       -3.124473   -0.707118    0.889909
     11          1           0       -3.124588   -0.707103   -0.889805
 ---------------------------------------------------------------------

 SCF Done:  E(RHF) =  -432.821362875     A.U. after    2 cycles

 The electronic state is 1-A.
 Alpha  occ. eigenvalues --  -29.28370 -29.27159 -21.04055 -15.77945 -11.46980
 Alpha  occ. eigenvalues --  -11.40713  -7.72864  -1.71398  -1.40394  -1.18084
 Alpha  occ. eigenvalues --   -1.02556  -0.82210  -0.77345  -0.73963  -0.63107
 Alpha  occ. eigenvalues --   -0.59726  -0.56492  -0.54935  -0.51121  -0.48173
 Alpha  occ. eigenvalues --   -0.48011  -0.46535  -0.36098  -0.35146  -0.34623
 Alpha  occ. eigenvalues --   -0.31691  -0.24435
 Alpha virt. eigenvalues --    0.02978   0.03950   0.04573   0.05456   0.06043
 Alpha virt. eigenvalues --    0.07126   0.07533   0.07805   0.11081   0.12871
 Alpha virt. eigenvalues --    0.12948   0.13827   0.14385   0.14933   0.16803

 Mulliken charges:
               1
     1  F   -0.974899
     2  F    0.310993
     3  B    2.085819
     4  C    1.433114
     5  O   -2.550330
     6  N   -2.081663
     7  C   -3.062486
     8  H    0.862748
     9  H    1.331295
    10  H    1.322680
    11  H    1.322730
 Sum of Mulliken charges =   0.00000

 Dipole moment (field-independent basis, Debye):
    X=              1.4793    Y=             -2.8423    Z=              0.0010  Tot=              3.2042

 Test job not archived.
 1\1\GINC-SE332\SP\RHF\Aug-CC-pVDZ\C2H4B1F2N1O1\OHZDE\09-Apr-2025\0\\#t
  hf aug-cc-pvdz iop(5/13=1,5/36=2,99/5=2) pseudo=read geom=check guess
 =(read,tcheck) scf=(maxcycle=1)\\title\\0,1\F,0,1.495686,-1.433652,0.0
 00096\F,0,2.258861,0.696237,0.000211\B,0,1.239469,-0.128741,-0.000228\
 C,0,-0.264674,0.404035,-0.000114\O,0,-0.515849,1.601862,-0.000081\N,0,
 -1.215611,-0.576363,-0.00007\C,0,-2.641657,-0.293736,0.000024\H,0,-0.9
 05732,-1.535947,-0.000102\H,0,-2.759422,0.788466,0.000041\H,0,-3.12447
 3,-0.707118,0.889909\H,0,-3.124588,-0.707103,-0.889805\\Version=ES64L-

 Normal termination of Gaussian 16 at Wed Apr  9 00:32:56 2025.
