 Gaussian 16, Revision C.01,

 ----------------------------------------------------------------------
 #t hf aug-cc-pvdz symm=none int=(grid=ultrafine) guess=(read,tcheck) s
 table=(opt,rrhf)
 ----------------------------------------------------------------------
 -----
 title
 -----
 Symbolic Z-matrix:
 Charge =  0 Multiplicity = 1

 SCF Done:  E(RHF) =  -1132.00287874     A.U. after   13 cycles
 Normal termination of Gaussian 16 at Tue Apr  8 23:51:20 2025.
 Gaussian 16:  ES64L-G16RevC.01  3-Jul-2019

 ----------------------------------------------------------------------
 #t hf aug-cc-pvdz iop(5/13=1,5/36=2,99/5=2) pseudo=read geom=check gue
 ss=(read,tcheck) scf=(maxcycle=1)
 ----------------------------------------------------------------------
 -----
 title
 -----
 Structure from the checkpoint file:  "BDE49_nonexpt_187_mol1.chk"
 Charge =  0 Multiplicity = 1

                         Standard orientation:
 ---------------------------------------------------------------------
 Center     Atomic      Atomic             Coordinates (Angstroms)
 Number     Number       Type             X           Y           Z
 ---------------------------------------------------------------------
      1         17           0       -1.157357   -1.521641   -0.020571
      2         17           0       -1.157249    1.521698   -0.020578
      3          5           0       -0.298662   -0.000002   -0.006648
      4          6           0        1.286332   -0.000060    0.110874
      5          8           0        1.837891   -0.000022    1.184296
      6          8           0        1.940856   -0.000048   -1.066865
      7          1           0        2.893644   -0.000047   -0.871918
 ---------------------------------------------------------------------

 SCF Done:  E(RHF) =  -1133.35108098     A.U. after    2 cycles

 The electronic state is 1-A.
 Alpha  occ. eigenvalues --  -99.92443 -99.92425 -21.14562 -21.07999 -11.50977
 Alpha  occ. eigenvalues --  -10.49824 -10.49624  -9.69776  -9.69569  -9.69224
 Alpha  occ. eigenvalues --   -9.69109  -9.69063  -9.68969  -7.74629  -1.84702
 Alpha  occ. eigenvalues --   -1.67442  -1.42394  -1.32234  -0.96330  -0.78106
 Alpha  occ. eigenvalues --   -0.67486  -0.67163  -0.62771  -0.59461  -0.55395
 Alpha  occ. eigenvalues --   -0.55315  -0.54595  -0.52257  -0.45999  -0.35706
 Alpha  occ. eigenvalues --   -0.31552
 Alpha virt. eigenvalues --    0.03592   0.03923   0.04416   0.04543   0.04699
 Alpha virt. eigenvalues --    0.07413   0.10185   0.11308   0.13058   0.14087
 Alpha virt. eigenvalues --    0.14724   0.15640   0.15840   0.16125   0.17176

 Mulliken charges:
               1
     1  Cl  -1.161803
     2  Cl  -1.161795
     3  B    3.479628
     4  C    3.065896
     5  O   -2.533958
     6  O   -2.575111
     7  H    0.887142
 Sum of Mulliken charges =  -0.00000

 Dipole moment (field-independent basis, Debye):
    X=              0.7770    Y=              0.0000    Z=             -0.8608  Tot=              1.1596

 Test job not archived.
 1\1\GINC-SE250\SP\RHF\Aug-CC-pVDZ\C1H1B1Cl2O2\OHZDE\08-Apr-2025\0\\#t
 hf aug-cc-pvdz iop(5/13=1,5/36=2,99/5=2) pseudo=read geom=check guess=
 (read,tcheck) scf=(maxcycle=1)\\title\\0,1\Cl,0,-1.157358,-1.52164,-0.
 020571\Cl,0,-1.157248,1.521699,-0.020578\B,0,-0.298662,-0.000002,-0.00
 6648\C,0,1.286332,-0.000061,0.110874\O,0,1.837891,-0.000023,1.184296\O
 ,0,1.940856,-0.000049,-1.066865\H,0,2.893644,-0.000048,-0.871918\\Vers
 ion=ES64L-G16RevC.01\State=1-A\HF=-1133.351081\RMSD=5.906e-02\Dipole=0
 .3056991,0.0000082,-0.3386798\Quadrupole=1.7520733,0.2661232,-2.018196

 Normal termination of Gaussian 16 at Tue Apr  8 23:51:22 2025.
