 Gaussian 16, Revision C.01,

 ----------------------------------------------------------------------
 #t hf aug-cc-pvdz symm=none int=(grid=ultrafine) guess=(read,tcheck) s
 table=opt
 ----------------------------------------------------------------------
 -----
 title
 -----
 Symbolic Z-matrix:
 Charge =  0 Multiplicity = 2

 SCF Done:  E(UHF) =  -440.472469691     A.U. after   14 cycles

 1\1\GINC-SE090\Stability\UHF\Aug-CC-pVDZ\H3O2Si1\OHZDE\08-Apr-2025\0\\
 #t hf aug-cc-pvdz symm=none int=(grid=ultrafine) guess=(read,tcheck) s
 table=opt\\title\\0,2\Si,0,0.000621,0.499863,-0.148563\O,0,-1.370675,-
 0.378927,0.098341\H,0,-1.434408,-1.246209,-0.310559\O,0,1.293665,-0.50
 4518,0.125722\H,0,2.13485,-0.270727,-0.274395\H,0,-0.093055,1.586421,0
 .872338\\Version=ES64L-G16RevC.01\HF=-440.4724697\S2=0.754806\S2-1=0.\
 S2A=0.750013\RMSD=9.287e-09\Dipole=0.5237401,-0.0667049,-0.5977759\Qua
 drupole=1.0203538,0.2980057,-1.3183595,2.1026328,-0.2397347,1.1919779\

 Normal termination of Gaussian 16 at Tue Apr  8 23:42:50 2025.
 Gaussian 16:  ES64L-G16RevC.01  3-Jul-2019

 ----------------------------------------------------------------------
 #t hf aug-cc-pvdz iop(5/13=1,5/36=2,99/5=2) pseudo=read geom=check gue
 ss=(read,tcheck) scf=(maxcycle=1)
 ----------------------------------------------------------------------
 -----
 title
 -----
 Structure from the checkpoint file:  "BDE49_nonexpt_1676_mol3.chk"
 Charge =  0 Multiplicity = 2

                         Standard orientation:
 ---------------------------------------------------------------------
 Center     Atomic      Atomic             Coordinates (Angstroms)
 Number     Number       Type             X           Y           Z
 ---------------------------------------------------------------------
      1         14           0        0.000621    0.499863   -0.148563
      2          8           0       -1.370675   -0.378927    0.098341
      3          1           0       -1.434408   -1.246209   -0.310559
      4          8           0        1.293665   -0.504518    0.125722
      5          1           0        2.134850   -0.270727   -0.274395
      6          1           0       -0.093055    1.586421    0.872338
 ---------------------------------------------------------------------

 SCF Done:  E(UHF) =  -441.232071801     A.U. after    2 cycles

 The electronic state is 2-A.
 Alpha  occ. eigenvalues --  -76.26129 -21.08705 -21.08287  -5.59996  -2.27097
 Alpha  occ. eigenvalues --   -2.23638  -2.19944  -1.69057  -1.64377  -0.74367
 Alpha  occ. eigenvalues --   -0.61378  -0.54983  -0.49096  -0.42606  -0.40891
 Alpha  occ. eigenvalues --   -0.38926  -0.25569
 Alpha virt. eigenvalues --    0.03935   0.05425   0.06370   0.07169   0.07770
 Alpha virt. eigenvalues --    0.08634   0.13131   0.16740   0.17281   0.20419
 Alpha virt. eigenvalues --    0.21237   0.22603   0.23546   0.24020   0.24986

  Beta  occ. eigenvalues --  -76.25635 -21.08317 -21.07938  -5.59181  -2.26582
  Beta  occ. eigenvalues --   -2.23002  -2.17080  -1.68138  -1.63563  -0.71580
  Beta  occ. eigenvalues --   -0.61128  -0.52563  -0.45613  -0.41019  -0.39661
  Beta  occ. eigenvalues --   -0.37937
  Beta virt. eigenvalues --    0.03084   0.05610   0.06213   0.06624   0.07715
  Beta virt. eigenvalues --    0.08275   0.09698   0.15768   0.18191   0.19225
  Beta virt. eigenvalues --    0.20931   0.21948   0.23116   0.23987   0.24753

 Mulliken charges and spin densities:
               1          2
     1  Si   4.428810   0.890625
     2  O   -2.545629   0.013368
     3  H    1.054392  -0.000743
     4  O   -2.415082   0.029744
     5  H    0.990248  -0.002461
     6  H   -1.512739   0.069466
 Sum of Mulliken charges =  -0.00000   1.00000

 Dipole moment (field-independent basis, Debye):
    X=              0.6559    Y=             -0.8376    Z=             -0.7663  Tot=              1.3111
                          Isotropic Fermi Contact Couplings
        Atom                 a.u.       MegaHertz       Gauss      10(-4) cm-1
     1  Si(29)             0.53899    -479.01097    -170.92303    -159.78086
     2  O(17)              0.03259     -19.75559      -7.04929      -6.58976
     3  H(1)              -0.00126      -5.63283      -2.00993      -1.87891
     4  O(17)              0.03846     -23.31323      -8.31874      -7.77646
     5  H(1)              -0.00046      -2.03619      -0.72656      -0.67920
     6  H(1)               0.03063     136.89107      48.84614      45.66195
 --------------------------------------------------------
       Center         ----  Spin Dipole Couplings  ----

 Normal termination of Gaussian 16 at Tue Apr  8 23:42:52 2025.
