 Gaussian 16, Revision C.01,

 ----------------------------------------------------------------------
 #t hf aug-cc-pvdz symm=none int=(grid=ultrafine) guess=(read,tcheck) s
 table=opt
 ----------------------------------------------------------------------
 -----
 title
 -----
 Symbolic Z-matrix:
 Charge =  0 Multiplicity = 2

 SCF Done:  E(UHF) =  -716.228929576     A.U. after   23 cycles
 Normal termination of Gaussian 16 at Tue Apr  8 23:17:58 2025.
 Gaussian 16:  ES64L-G16RevC.01  3-Jul-2019

 ----------------------------------------------------------------------
 #t hf aug-cc-pvdz iop(5/13=1,5/36=2,99/5=2) pseudo=read geom=check gue
 ss=(read,tcheck) scf=(maxcycle=1)
 ----------------------------------------------------------------------
 -----
 title
 -----
 Structure from the checkpoint file:  "BDE49_nonexpt_1045_mol2.chk"
 Charge =  0 Multiplicity = 2

                         Standard orientation:
 ---------------------------------------------------------------------
 Center     Atomic      Atomic             Coordinates (Angstroms)
 Number     Number       Type             X           Y           Z
 ---------------------------------------------------------------------
      1          8           0       -2.101067   -0.152621    0.078998
      2         15           0        0.459063    0.012662   -0.112525
      3          8           0        1.386763   -0.658456   -1.004313
      4          8           0       -0.102313    1.432224   -0.458506
      5          1           0       -1.068409    1.461832   -0.311310
      6          8           0        0.898000    0.137064    1.407030
      7          1           0        1.555907   -0.523331    1.659933
      8          8           0       -1.003063   -0.899265    0.019198
 ---------------------------------------------------------------------

 SCF Done:  E(UHF) =  -717.911737959     A.U. after    2 cycles

 The electronic state is 2-A.
 Alpha  occ. eigenvalues -- -105.36033 -21.20513 -21.16534 -21.14973 -21.14806
 Alpha  occ. eigenvalues --  -21.05964  -2.99097  -2.10209  -2.04665  -1.96757
 Alpha  occ. eigenvalues --   -1.81693  -1.61807  -1.43081  -1.32293  -1.25143
 Alpha  occ. eigenvalues --   -0.72410  -0.66707  -0.64470  -0.61445  -0.54403
 Alpha  occ. eigenvalues --   -0.49279  -0.48000  -0.44987  -0.38325  -0.37939
 Alpha  occ. eigenvalues --   -0.34307  -0.30419  -0.27172  -0.18007
 Alpha virt. eigenvalues --    0.03689   0.05710   0.10024   0.10539   0.11239
 Alpha virt. eigenvalues --    0.12416   0.13890   0.18096   0.19391   0.19967
 Alpha virt. eigenvalues --    0.20777   0.21395   0.22889   0.23633   0.24483

  Beta  occ. eigenvalues -- -105.36042 -21.16733 -21.15721 -21.14969 -21.14830
  Beta  occ. eigenvalues --  -21.05977  -2.99122  -2.07131  -2.02952  -1.96751
  Beta  occ. eigenvalues --   -1.81339  -1.59161  -1.43086  -1.29480  -1.21007
  Beta  occ. eigenvalues --   -0.72047  -0.65885  -0.61296  -0.53075  -0.52150
  Beta  occ. eigenvalues --   -0.48459  -0.46826  -0.42755  -0.38110  -0.36196
  Beta  occ. eigenvalues --   -0.30378  -0.25799  -0.17864
  Beta virt. eigenvalues --    0.03693   0.05742   0.09380   0.10030   0.10892
  Beta virt. eigenvalues --    0.11440   0.12650   0.14405   0.18189   0.19566
  Beta virt. eigenvalues --    0.20681   0.21493   0.21921   0.23653   0.24270

 Mulliken charges and spin densities:
               1          2
     1  O   -0.200698   0.903234
     2  P    7.771827  -0.007675
     3  O   -2.743266  -0.000814
     4  O   -2.719986   0.002048
     5  H    0.990197  -0.009735
     6  O   -2.678221   0.005074
     7  H    0.889085   0.001528
     8  O   -1.308938   0.106340
 Sum of Mulliken charges =  -0.00000   1.00000

 Dipole moment (field-independent basis, Debye):
    X=             -1.1352    Y=              1.2467    Z=              2.2191  Tot=              2.7870
                          Isotropic Fermi Contact Couplings
        Atom                 a.u.       MegaHertz       Gauss      10(-4) cm-1
     1  O(17)              0.19632    -119.00609     -42.46433     -39.69616
     2  P(31)             -0.00980     -17.74323      -6.33123      -5.91850
     3  O(17)             -0.00182       1.10086       0.39281       0.36721
     4  O(17)             -0.00206       1.24622       0.44468       0.41569
     5  H(1)               0.00036       1.59181       0.56800       0.53097
     6  O(17)              0.00037      -0.22212      -0.07926      -0.07409
     7  H(1)              -0.00004      -0.19635      -0.07006      -0.06550
     8  O(17)              0.05784     -35.06371     -12.51160     -11.69599

 Normal termination of Gaussian 16 at Tue Apr  8 23:18:01 2025.
