 Gaussian 16, Revision C.01,

 ----------------------------------------------------------------------
 #t hf aug-cc-pvdz symm=none int=(grid=ultrafine) guess=(read,tcheck) s
 table=(opt,rrhf)
 ----------------------------------------------------------------------
 -----
 title
 -----
 Symbolic Z-matrix:
 Charge =  0 Multiplicity = 1

 SCF Done:  E(RHF) =  -454.677083833     A.U. after   15 cycles
 Normal termination of Gaussian 16 at Wed Apr  9 00:40:27 2025.
 Gaussian 16:  ES64L-G16RevC.01  3-Jul-2019

 ----------------------------------------------------------------------
 #t hf aug-cc-pvdz iop(5/13=1,5/36=2,99/5=2) pseudo=read geom=check gue
 ss=(read,tcheck) scf=(maxcycle=1)
 ----------------------------------------------------------------------
 -----
 title
 -----
 Structure from the checkpoint file:  "BDE49_nonexpt_636_mol1.chk"
 Charge =  0 Multiplicity = 1

                         Standard orientation:
 ---------------------------------------------------------------------
 Center     Atomic      Atomic             Coordinates (Angstroms)
 Number     Number       Type             X           Y           Z
 ---------------------------------------------------------------------
      1          7           0       -1.304104   -0.070845    0.000001
      2          8           0       -0.071524   -0.745498   -0.000044
      3          5           0        1.183722   -0.057651   -0.000061
      4          8           0       -1.300110    1.146930    0.000059
      5          8           0       -2.242308   -0.805626    0.000020
      6          8           0        1.355992    1.277744   -0.000009
      7          8           0        2.211687   -0.934346    0.000008
      8          1           0        3.063590   -0.486907    0.000053
      9          1           0        0.516634    1.757438   -0.000019
 ---------------------------------------------------------------------

 SCF Done:  E(RHF) =  -456.509342075     A.U. after    2 cycles

 The electronic state is 1-A.
 Alpha  occ. eigenvalues --  -21.15153 -21.13810 -21.13685 -21.08371 -21.08192
 Alpha  occ. eigenvalues --  -16.08521  -7.71157  -2.11513  -1.90215  -1.76150
 Alpha  occ. eigenvalues --   -1.73030  -1.69334  -0.98749  -0.81988  -0.74833
 Alpha  occ. eigenvalues --   -0.72534  -0.70069  -0.65736  -0.59979  -0.55245
 Alpha  occ. eigenvalues --   -0.48445  -0.41981  -0.40637  -0.39560  -0.38059
 Alpha  occ. eigenvalues --   -0.36156  -0.33997
 Alpha virt. eigenvalues --    0.02848   0.04849   0.05183   0.05704   0.07152
 Alpha virt. eigenvalues --    0.08776   0.12152   0.12720   0.14753   0.16708
 Alpha virt. eigenvalues --    0.17859   0.18738   0.19849   0.20261   0.20489

 Mulliken charges:
               1
     1  N    7.472638
     2  O   -4.834937
     3  B    7.703870
     4  O   -2.830148
     5  O   -2.810545
     6  O   -3.812512
     7  O   -3.276876
     8  H    0.805752
     9  H    1.582758
 Sum of Mulliken charges =  -0.00000

 Dipole moment (field-independent basis, Debye):
    X=              0.8875    Y=              0.5223    Z=             -0.0001  Tot=              1.0298

 Test job not archived.
 1\1\GINC-SE184\SP\RHF\Aug-CC-pVDZ\B1H2N1O5\OHZDE\09-Apr-2025\0\\#t hf
 aug-cc-pvdz iop(5/13=1,5/36=2,99/5=2) pseudo=read geom=check guess=(re
 ad,tcheck) scf=(maxcycle=1)\\title\\0,1\N,0,-1.304104,-0.070845,0.0000
 01\O,0,-0.071524,-0.745498,-0.000044\B,0,1.183722,-0.057651,-0.000061\
 O,0,-1.30011,1.14693,0.000059\O,0,-2.242308,-0.805626,0.00002\O,0,1.35
 5992,1.277744,-0.000009\O,0,2.211687,-0.934346,0.000008\H,0,3.06359,-0
 .486907,0.000053\H,0,0.516634,1.757438,-0.000019\\Version=ES64L-G16Rev
 C.01\State=1-A\HF=-456.5093421\RMSD=1.418e-01\Dipole=0.3491834,0.20550

 Normal termination of Gaussian 16 at Wed Apr  9 00:40:30 2025.
