 Gaussian 16, Revision C.01,

 ----------------------------------------------------------------------
 #t hf aug-cc-pvdz symm=none int=(grid=ultrafine) guess=(read,tcheck) s
 table=(opt,rrhf)
 ----------------------------------------------------------------------
 -----
 title
 -----
 Symbolic Z-matrix:
 Charge =  0 Multiplicity = 1

 SCF Done:  E(RHF) =  -706.333435607     A.U. after   15 cycles

 1\1\GINC-SE247\Stability\RHF\Aug-CC-pVDZ\C8H10S1\OHZDE\08-Apr-2025\0\\
 #t hf aug-cc-pvdz symm=none int=(grid=ultrafine) guess=(read,tcheck) s
 table=(opt,rrhf)\\title\\0,1\C,0,2.466106,-0.921947,1.276493\C,0,2.426
 977,0.387667,0.497532\S,0,1.453903,0.321929,-1.065937\H,0,3.426623,0.6
 78384,0.163973\H,0,2.038136,1.205121,1.108264\C,0,-0.217951,0.140467,-
 0.442837\H,0,2.892245,-1.725487,0.671751\H,0,1.464144,-1.225931,1.5874
 1\H,0,3.077545,-0.808345,2.177934\C,0,-0.896222,-1.070372,-0.611564\C,
 0,-0.875409,1.21699,0.163731\C,0,-2.184735,1.074692,0.61415\C,0,-2.857

 Normal termination of Gaussian 16 at Tue Apr  8 22:40:46 2025.
 Gaussian 16:  ES64L-G16RevC.01  3-Jul-2019

 ----------------------------------------------------------------------
 #t hf aug-cc-pvdz iop(5/13=1,5/36=2,99/5=2) pseudo=read geom=check gue
 ss=(read,tcheck) scf=(maxcycle=1)
 ----------------------------------------------------------------------
 -----
 title
 -----
 Structure from the checkpoint file:  "BDE49_expt_1225_mol1.chk"
 Charge =  0 Multiplicity = 1

                         Standard orientation:
 ---------------------------------------------------------------------
 Center     Atomic      Atomic             Coordinates (Angstroms)
 Number     Number       Type             X           Y           Z
 ---------------------------------------------------------------------
      1          6           0       -2.466106    0.921947    1.276493
      2          6           0       -2.426977   -0.387667    0.497532
      3         16           0       -1.453903   -0.321929   -1.065937
      4          1           0       -3.426623   -0.678384    0.163973
      5          1           0       -2.038136   -1.205121    1.108264
      6          6           0        0.217951   -0.140467   -0.442837
      7          1           0       -2.892245    1.725487    0.671751
      8          1           0       -1.464144    1.225931    1.587410
      9          1           0       -3.077545    0.808345    2.177934
     10          6           0        0.896222    1.070372   -0.611564
     11          6           0        0.875409   -1.216990    0.163731
     12          6           0        2.184735   -1.074692    0.614150
     13          6           0        2.857605    0.134888    0.443781
     14          6           0        2.213366    1.203553   -0.174365
     15          1           0        2.732083    2.145701   -0.312377
     16          1           0        0.387930    1.901744   -1.084774
     17          1           0        2.685185   -1.913525    1.085086
     18          1           0        3.880492    0.240761    0.786977
     19          1           0        0.362219   -2.165747    0.269227
 ---------------------------------------------------------------------

 SCF Done:  E(RHF) =  -708.084690505     A.U. after    2 cycles

 The electronic state is 1-A.
 Alpha  occ. eigenvalues --  -75.67469 -13.17249 -13.10263 -13.05979 -11.51851
 Alpha  occ. eigenvalues --  -11.44028 -11.43537 -11.41927 -11.41419 -11.40823
 Alpha  occ. eigenvalues --  -11.36743 -11.36529  -8.01522  -1.35851  -1.21960
 Alpha  occ. eigenvalues --   -1.11129  -1.09466  -1.01429  -0.88065  -0.86736
 Alpha  occ. eigenvalues --   -0.82184  -0.70938  -0.64335  -0.62907  -0.58715
 Alpha  occ. eigenvalues --   -0.58397  -0.57474  -0.53671  -0.51572  -0.51159
 Alpha  occ. eigenvalues --   -0.49663  -0.45357  -0.41178  -0.37533  -0.33327
 Alpha  occ. eigenvalues --   -0.31750  -0.22331
 Alpha virt. eigenvalues --    0.03282   0.04421   0.05055   0.05285   0.05717
 Alpha virt. eigenvalues --    0.06034   0.06967   0.07173   0.07277   0.08278
 Alpha virt. eigenvalues --    0.09636   0.10690   0.11362   0.11432   0.12559

 Mulliken charges:
               1
     1  C   -3.901584
     2  C   -3.619945
     3  S    0.536367
     4  H    1.439185
     5  H    1.686055
     6  C    3.202431
     7  H    1.366787
     8  H    1.482873
     9  H    1.168446
    10  C   -3.713814
    11  C   -3.673304
    12  C   -1.034621
    13  C   -2.345021
    14  C   -0.939057
    15  H    1.534482
    16  H    1.833036
    17  H    1.557602
    18  H    1.533588
    19  H    1.886493
 Sum of Mulliken charges =  -0.00000

 Dipole moment (field-independent basis, Debye):
    X=              0.1761    Y=             -0.0983    Z=              0.0391  Tot=              0.2054

 Test job not archived.
 1\1\GINC-SE247\SP\RHF\Aug-CC-pVDZ\C8H10S1\OHZDE\08-Apr-2025\0\\#t hf a
 ug-cc-pvdz iop(5/13=1,5/36=2,99/5=2) pseudo=read geom=check guess=(rea
 d,tcheck) scf=(maxcycle=1)\\title\\0,1\C,0,2.466106,-0.921947,1.276493
 \C,0,2.426977,0.387667,0.497532\S,0,1.453903,0.321929,-1.065937\H,0,3.
 426623,0.678384,0.163973\H,0,2.038136,1.205121,1.108264\C,0,-0.217951,
 0.140467,-0.442837\H,0,2.892245,-1.725487,0.671751\H,0,1.464144,-1.225
 931,1.58741\H,0,3.077545,-0.808345,2.177934\C,0,-0.896222,-1.070372,-0
 .611564\C,0,-0.875409,1.21699,0.163731\C,0,-2.184735,1.074692,0.61415\

 Normal termination of Gaussian 16 at Tue Apr  8 22:40:56 2025.
