 Gaussian 16, Revision C.01,

 ----------------------------------------------------------------------
 #t hf aug-cc-pvdz symm=none int=(grid=ultrafine) guess=(read,tcheck) s
 table=(opt,rrhf)
 ----------------------------------------------------------------------
 -----
 title
 -----
 Symbolic Z-matrix:
 Charge =  0 Multiplicity = 1

 SCF Done:  E(RHF) =  -639.463669697     A.U. after   12 cycles
 Normal termination of Gaussian 16 at Wed Apr  9 00:08:10 2025.
 Gaussian 16:  ES64L-G16RevC.01  3-Jul-2019

 ----------------------------------------------------------------------
 #t hf aug-cc-pvdz iop(5/13=1,5/36=2,99/5=2) pseudo=read geom=check gue
 ss=(read,tcheck) scf=(maxcycle=1)
 ----------------------------------------------------------------------
 -----
 title
 -----
 Structure from the checkpoint file:  "BDE49_nonexpt_2218_mol1.chk"
 Charge =  0 Multiplicity = 1

                         Standard orientation:
 ---------------------------------------------------------------------
 Center     Atomic      Atomic             Coordinates (Angstroms)
 Number     Number       Type             X           Y           Z
 ---------------------------------------------------------------------
      1          8           0       -0.015275    0.282772    0.346212
      2         14           0        1.569199   -0.114968    0.036204
      3          6           0        2.186086   -0.905433    1.614858
      4          1           0        1.597360   -1.792808    1.863635
      5          1           0        2.113105   -0.209057    2.454837
      6          6           0        1.675402   -1.321957   -1.401615
      7          1           0        2.714315   -1.616356   -1.582974
      8          1           0        1.294091   -0.886102   -2.330319
      9          1           0        1.102762   -2.231814   -1.198488
     10          6           0        2.563599    1.428013   -0.370916
     11          1           0        2.515437    2.155982    0.444363
     12          1           0        2.203825    1.918932   -1.280496
     13          1           0        3.617291    1.177487   -0.531820
     14          1           0        3.232778   -1.211457    1.520848
     15          6           0       -0.930558    0.911577   -0.545616
     16          6           0       -2.253373    1.162257    0.172178
     17          1           0       -1.086511    0.279937   -1.430281
     18          1           0       -0.522222    1.869022   -0.895868
     19          6           0       -2.950340   -0.102098    0.694995
     20          1           0       -2.918064    1.696412   -0.519375
     21          1           0       -2.058237    1.839230    1.010639
     22          6           0       -3.437984   -1.055865   -0.400899
     23          1           0       -3.804685    0.204178    1.308530
     24          1           0       -2.261791   -0.627643    1.362751
     25          1           0       -4.126669   -0.553458   -1.088437
     26          1           0       -3.966977   -1.909865    0.030941
     27          1           0       -2.609384   -1.454205   -0.992947
 ---------------------------------------------------------------------

 SCF Done:  E(RHF) =  -641.388194868     A.U. after    2 cycles

 The electronic state is 1-A.
 Alpha  occ. eigenvalues --  -76.19635 -21.01998 -11.44217 -11.40383 -11.37285
 Alpha  occ. eigenvalues --  -11.34224 -11.34019 -11.33880 -11.33786  -5.54002
 Alpha  occ. eigenvalues --   -2.20981  -2.17372  -2.17120  -1.68294  -1.21114
 Alpha  occ. eigenvalues --   -1.07138  -1.03860  -1.00634  -1.00395  -0.90961
 Alpha  occ. eigenvalues --   -0.80431  -0.67063  -0.64569  -0.61271  -0.57302
 Alpha  occ. eigenvalues --   -0.56343  -0.56236  -0.55850  -0.54734  -0.54077
 Alpha  occ. eigenvalues --   -0.53684  -0.52932  -0.52730  -0.48105  -0.45453
 Alpha  occ. eigenvalues --   -0.44091  -0.43284  -0.40658  -0.39244  -0.33259
 Alpha  occ. eigenvalues --   -0.32118
 Alpha virt. eigenvalues --    0.03289   0.04909   0.05047   0.05339   0.05454
 Alpha virt. eigenvalues --    0.05628   0.05716   0.05953   0.06138   0.07322
 Alpha virt. eigenvalues --    0.07516   0.07763   0.08196   0.08422   0.08851

 Mulliken charges:
               1
     1  O   -4.978137
     2  Si  11.877716
     3  C   -6.191035
     4  H    1.185982
     5  H    1.191801
     6  C   -6.296420
     7  H    1.099286
     8  H    1.169638
     9  H    1.128567
    10  C   -6.164236
    11  H    1.132039
    12  H    1.124743
    13  H    1.138834
    14  H    1.206355
    15  C   -1.380928
    16  C   -3.480054
    17  H    1.978245
    18  H    1.533530
    19  C   -3.219393
    20  H    1.351541
    21  H    1.372238
    22  C   -3.698626
    23  H    1.377388
    24  H    1.620264
    25  H    1.268184
    26  H    1.170999
    27  H    1.481477
 Sum of Mulliken charges =  -0.00000

 Dipole moment (field-independent basis, Debye):
    X=             -0.0272    Y=              0.1018    Z=             -0.0027  Tot=              0.1054

 Test job not archived.
 1\1\GINC-SE457\SP\RHF\Aug-CC-pVDZ\C7H18O1Si1\OHZDE\09-Apr-2025\0\\#t h
 f aug-cc-pvdz iop(5/13=1,5/36=2,99/5=2) pseudo=read geom=check guess=(
 read,tcheck) scf=(maxcycle=1)\\title\\0,1\O,0,0.015275,-0.282772,0.346
 212\Si,0,-1.569199,0.114968,0.036204\C,0,-2.186086,0.905433,1.614858\H
 ,0,-1.59736,1.792808,1.863635\H,0,-2.113105,0.209057,2.454837\C,0,-1.6
 75402,1.321957,-1.401615\H,0,-2.714315,1.616356,-1.582974\H,0,-1.29409
 1,0.886102,-2.330319\H,0,-1.102762,2.231814,-1.198488\C,0,-2.563599,-1
 .428013,-0.370916\H,0,-2.515437,-2.155982,0.444363\H,0,-2.203825,-1.91

 Normal termination of Gaussian 16 at Wed Apr  9 00:08:26 2025.
