 Gaussian 16, Revision C.01,

 ----------------------------------------------------------------------
 #t hf aug-cc-pvdz symm=none int=(grid=ultrafine) guess=(read,tcheck) s
 table=(opt,rrhf)
 ----------------------------------------------------------------------
 -----
 title
 -----
 Symbolic Z-matrix:
 Charge =  0 Multiplicity = 1

 SCF Done:  E(RHF) =  -407.378238396     A.U. after   12 cycles
 Normal termination of Gaussian 16 at Wed Apr  9 00:41:46 2025.
 Gaussian 16:  ES64L-G16RevC.01  3-Jul-2019

 ----------------------------------------------------------------------
 #t hf aug-cc-pvdz iop(5/13=1,5/36=2,99/5=2) pseudo=read geom=check gue
 ss=(read,tcheck) scf=(maxcycle=1)
 ----------------------------------------------------------------------
 -----
 title
 -----
 Structure from the checkpoint file:  "BDE49_nonexpt_647_mol1.chk"
 Charge =  0 Multiplicity = 1

                         Standard orientation:
 ---------------------------------------------------------------------
 Center     Atomic      Atomic             Coordinates (Angstroms)
 Number     Number       Type             X           Y           Z
 ---------------------------------------------------------------------
      1          8           0        0.700278    0.494208    0.623621
      2          5           0        1.785789   -0.057214    0.008153
      3          8           0        2.915232    0.700576   -0.172417
      4          6           0       -0.502066   -0.256699    0.835833
      5          6           0       -1.517280   -0.047971   -0.291177
      6          6           0       -2.752638   -0.923388   -0.043754
      7          1           0       -2.488808   -1.982980    0.022008
      8          1           0       -3.478997   -0.810119   -0.852792
      9          1           0       -3.252808   -0.643212    0.889840
     10          6           0       -1.893728    1.429808   -0.446629
     11          1           0       -1.038363   -0.385887   -1.218698
     12          1           0       -2.407474    1.796551    0.449153
     13          1           0       -2.563804    1.576459   -1.298434
     14          1           0       -1.006445    2.046832   -0.600054
     15          1           0       -0.919338    0.092701    1.785981
     16          1           0       -0.261581   -1.318918    0.931769
     17          8           0        1.768142   -1.354507   -0.430323
     18          1           0        2.607192   -1.604862   -0.826614
     19          1           0        2.806538    1.586786    0.184386
 ---------------------------------------------------------------------

 SCF Done:  E(RHF) =  -409.209703433     A.U. after    2 cycles

 The electronic state is 1-A.
 Alpha  occ. eigenvalues --  -21.05406 -21.05280 -21.01865 -11.44287 -11.40185
 Alpha  occ. eigenvalues --  -11.38054 -11.34669  -7.64970  -1.88487  -1.68692
 Alpha  occ. eigenvalues --   -1.65835  -1.23300  -0.99764  -0.98136  -0.81717
 Alpha  occ. eigenvalues --   -0.74925  -0.67911  -0.63240  -0.61027  -0.59779
 Alpha  occ. eigenvalues --   -0.56047  -0.53703  -0.52868  -0.51841  -0.50518
 Alpha  occ. eigenvalues --   -0.45700  -0.45483  -0.44073  -0.38176  -0.36494
 Alpha  occ. eigenvalues --   -0.35269  -0.32974
 Alpha virt. eigenvalues --    0.03719   0.04576   0.04903   0.05230   0.05856
 Alpha virt. eigenvalues --    0.05898   0.06158   0.06557   0.06603   0.07713
 Alpha virt. eigenvalues --    0.08885   0.09200   0.09293   0.09643   0.11158

 Mulliken charges:
               1
     1  O   -6.186592
     2  B    9.642588
     3  O   -3.833362
     4  C   -0.671083
     5  C   -2.206646
     6  C   -3.984661
     7  H    1.273704
     8  H    1.226771
     9  H    1.285521
    10  C   -3.676469
    11  H    1.813015
    12  H    1.302504
    13  H    1.228270
    14  H    1.427616
    15  H    1.466778
    16  H    1.786441
    17  O   -4.161605
    18  H    1.044193
    19  H    1.223016
 Sum of Mulliken charges =  -0.00000

 Dipole moment (field-independent basis, Debye):
    X=             -0.3103    Y=             -0.1119    Z=             -0.0656  Tot=              0.3364

 Test job not archived.
 1\1\GINC-SE227\SP\RHF\Aug-CC-pVDZ\C4H11B1O3\OHZDE\09-Apr-2025\0\\#t hf
  aug-cc-pvdz iop(5/13=1,5/36=2,99/5=2) pseudo=read geom=check guess=(r
 ead,tcheck) scf=(maxcycle=1)\\title\\0,1\O,0,0.700278,0.494208,0.62362
 1\B,0,1.785789,-0.057214,0.008153\O,0,2.915232,0.700576,-0.172417\C,0,
 -0.502066,-0.256699,0.835833\C,0,-1.51728,-0.047971,-0.291177\C,0,-2.7
 52638,-0.923388,-0.043754\H,0,-2.488808,-1.98298,0.022008\H,0,-3.47899
 7,-0.810119,-0.852792\H,0,-3.252808,-0.643212,0.88984\C,0,-1.893728,1.
 429808,-0.446629\H,0,-1.038363,-0.385887,-1.218698\H,0,-2.407474,1.796

 Normal termination of Gaussian 16 at Wed Apr  9 00:41:54 2025.
