 Gaussian 16, Revision C.01,

 ----------------------------------------------------------------------
 #t hf aug-cc-pvdz symm=none int=(grid=ultrafine) guess=(read,tcheck) s
 table=opt
 ----------------------------------------------------------------------
 -----
 title
 -----
 Symbolic Z-matrix:
 Charge =  0 Multiplicity = 2

 SCF Done:  E(UHF) =  -175.639301459     A.U. after   14 cycles
 Normal termination of Gaussian 16 at Wed Apr  9 00:04:53 2025.
 Gaussian 16:  ES64L-G16RevC.01  3-Jul-2019

 ----------------------------------------------------------------------
 #t hf aug-cc-pvdz iop(5/13=1,5/36=2,99/5=2) pseudo=read geom=check gue
 ss=(read,tcheck) scf=(maxcycle=1)
 ----------------------------------------------------------------------
 -----
 title
 -----
 Structure from the checkpoint file:  "BDE49_nonexpt_21_mol2.chk"
 Charge =  0 Multiplicity = 2

                         Standard orientation:
 ---------------------------------------------------------------------
 Center     Atomic      Atomic             Coordinates (Angstroms)
 Number     Number       Type             X           Y           Z
 ---------------------------------------------------------------------
      1          5           0        0.000000   -0.000000    0.534067
      2          8           0        0.000000    1.219031   -0.040491
      3          1           0        0.000000    1.228890   -1.011239
      4          8           0       -0.000000   -1.219031   -0.040491
      5          1           0       -0.000000   -1.228890   -1.011239
 ---------------------------------------------------------------------

 SCF Done:  E(UHF) =  -176.328813028     A.U. after    2 cycles

 The electronic state is 2-A1.
 Alpha  occ. eigenvalues --  -21.07614 -21.07566  -7.67119  -1.81011  -1.67789
 Alpha  occ. eigenvalues --   -0.74484  -0.69836  -0.55625  -0.50505  -0.38441
 Alpha  occ. eigenvalues --   -0.37158  -0.32193
 Alpha virt. eigenvalues --    0.02764   0.05022   0.05101   0.06031   0.08122
 Alpha virt. eigenvalues --    0.10424   0.16471   0.18014   0.21388   0.22351
 Alpha virt. eigenvalues --    0.22598   0.23858   0.24145   0.24594   0.25748

  Beta  occ. eigenvalues --  -21.07481 -21.07433  -7.65006  -1.80219  -1.67401
  Beta  occ. eigenvalues --   -0.70234  -0.68875  -0.54142  -0.49794  -0.37963
  Beta  occ. eigenvalues --   -0.37618
  Beta virt. eigenvalues --    0.01728   0.04938   0.05135   0.05225   0.08168
  Beta virt. eigenvalues --    0.08696   0.13759   0.19030   0.20142   0.21726
  Beta virt. eigenvalues --    0.22350   0.23287   0.23934   0.24516   0.25629

 Mulliken charges and spin densities:
               1          2
     1  B    3.746359   1.274211
     2  O   -2.839719  -0.176110
     3  H    0.966540   0.039004
     4  O   -2.839719  -0.176110
     5  H    0.966540   0.039004
 Sum of Mulliken charges =   0.00000   1.00000

 Dipole moment (field-independent basis, Debye):
    X=              0.0000    Y=              0.0000    Z=             -2.0802  Tot=              2.0802
                          Isotropic Fermi Contact Couplings
        Atom                 a.u.       MegaHertz       Gauss      10(-4) cm-1
     1  B(11)              0.33505     480.58826     171.48584     160.30699
     2  O(17)              0.17414    -105.56022     -37.66651     -35.21110
     3  H(1)               0.01456      65.06435      23.21658      21.70313
     4  O(17)              0.17414    -105.56022     -37.66651     -35.21110
     5  H(1)               0.01456      65.06435      23.21658      21.70313
 --------------------------------------------------------
       Center         ----  Spin Dipole Couplings  ----
                      3XX-RR        3YY-RR        3ZZ-RR

 Normal termination of Gaussian 16 at Wed Apr  9 00:04:54 2025.
