 Gaussian 16, Revision C.01,

 ----------------------------------------------------------------------
 #t hf aug-cc-pvdz symm=none int=(grid=ultrafine) guess=(read,tcheck) s
 table=(opt,rrhf)
 ----------------------------------------------------------------------
 -----
 title
 -----
 Symbolic Z-matrix:
 Charge =  0 Multiplicity = 1

 SCF Done:  E(RHF) =  -979.805941450     A.U. after   14 cycles
 Normal termination of Gaussian 16 at Tue Apr  8 23:47:37 2025.
 Gaussian 16:  ES64L-G16RevC.01  3-Jul-2019

 ----------------------------------------------------------------------
 #t hf aug-cc-pvdz iop(5/13=1,5/36=2,99/5=2) pseudo=read geom=check gue
 ss=(read,tcheck) scf=(maxcycle=1)
 ----------------------------------------------------------------------
 -----
 title
 -----
 Structure from the checkpoint file:  "BDE49_nonexpt_1769_mol1.chk"
 Charge =  0 Multiplicity = 1

                         Standard orientation:
 ---------------------------------------------------------------------
 Center     Atomic      Atomic             Coordinates (Angstroms)
 Number     Number       Type             X           Y           Z
 ---------------------------------------------------------------------
      1          6           0        1.003598   -1.205960    0.171147
      2          6           0        2.344766   -1.206978   -0.202351
      3          6           0        3.015831   -0.000019   -0.389977
      4          6           0        2.344781    1.206956   -0.202407
      5          6           0        1.003612    1.205972    0.171091
      6          6           0        0.309976    0.000015    0.362059
      7          1           0        0.494146   -2.153316    0.316581
      8          1           0        2.866185   -2.146771   -0.345369
      9         14           0       -1.483656    0.000038    0.856679
     10          1           0        2.866212    2.146736   -0.345469
     11          1           0        4.060663   -0.000033   -0.679896
     12          1           0        0.494172    2.153340    0.316481
     13         17           0       -2.736124   -0.000032   -0.820546
     14          1           0       -1.815729    1.219784    1.617991
     15          1           0       -1.815736   -1.219642    1.618095
 ---------------------------------------------------------------------

 SCF Done:  E(RHF) =  -981.318556187     A.U. after    2 cycles

 The electronic state is 1-A.
 Alpha  occ. eigenvalues --  -99.87514 -76.25846 -11.52064 -11.43786 -11.43372
 Alpha  occ. eigenvalues --  -11.41463 -11.41041 -11.37060 -10.44888  -9.64804
 Alpha  occ. eigenvalues --   -9.64197  -9.64165  -5.59425  -2.23889  -2.22425
 Alpha  occ. eigenvalues --   -2.21431  -1.34719  -1.27697  -1.10117  -1.10054
 Alpha  occ. eigenvalues --   -0.87330  -0.87209  -0.77965  -0.70947  -0.64549
 Alpha  occ. eigenvalues --   -0.59447  -0.58021  -0.55881  -0.55279  -0.54252
 Alpha  occ. eigenvalues --   -0.50874  -0.50827  -0.47063  -0.45510  -0.40225
 Alpha  occ. eigenvalues --   -0.34813  -0.33913
 Alpha virt. eigenvalues --    0.03033   0.04924   0.04937   0.05407   0.06084
 Alpha virt. eigenvalues --    0.06172   0.06979   0.08438   0.08819   0.09765
 Alpha virt. eigenvalues --    0.09816   0.10925   0.10966   0.12413   0.13150

 Mulliken charges:
               1
     1  C   -2.478924
     2  C   -0.503957
     3  C   -1.896395
     4  C   -0.503942
     5  C   -2.478979
     6  C   -0.639842
     7  H    1.818707
     8  H    1.525673
     9  Si   4.635351
    10  H    1.525675
    11  H    1.514049
    12  H    1.818708
    13  Cl  -0.976247
    14  H   -1.679941
    15  H   -1.679934
 Sum of Mulliken charges =   0.00000

 Dipole moment (field-independent basis, Debye):
    X=              2.7658    Y=              0.0000    Z=              0.7326  Tot=              2.8612

 Test job not archived.
 1\1\GINC-SE059\SP\RHF\Aug-CC-pVDZ\C6H7Cl1Si1\OHZDE\08-Apr-2025\0\\#t h
 f aug-cc-pvdz iop(5/13=1,5/36=2,99/5=2) pseudo=read geom=check guess=(
 read,tcheck) scf=(maxcycle=1)\\title\\0,1\C,0,1.003598,-1.20596,0.1711
 47\C,0,2.344766,-1.206978,-0.202351\C,0,3.015831,-0.000019,-0.389977\C
 ,0,2.344781,1.206956,-0.202407\C,0,1.003612,1.205972,0.171091\C,0,0.30
 9976,0.000015,0.362059\H,0,0.494146,-2.153316,0.316581\H,0,2.866185,-2
 .146771,-0.345369\Si,0,-1.483656,0.000038,0.856679\H,0,2.866212,2.1467
 36,-0.345469\H,0,4.060663,-0.000033,-0.679896\H,0,0.494172,2.15334,0.3

 Normal termination of Gaussian 16 at Tue Apr  8 23:47:44 2025.
