 Gaussian 16, Revision C.01,

 ----------------------------------------------------------------------
 #t hf aug-cc-pvdz symm=none int=(grid=ultrafine) guess=(read,tcheck) s
 table=(opt,rrhf)
 ----------------------------------------------------------------------
 -----
 title
 -----
 Symbolic Z-matrix:
 Charge =  0 Multiplicity = 1

 SCF Done:  E(RHF) =  -1861.71143272     A.U. after   15 cycles
 Normal termination of Gaussian 16 at Wed Apr  9 00:53:13 2025.
 Gaussian 16:  ES64L-G16RevC.01  3-Jul-2019

 ----------------------------------------------------------------------
 #t hf aug-cc-pvdz iop(5/13=1,5/36=2,99/5=2) pseudo=read geom=check gue
 ss=(read,tcheck) scf=(maxcycle=1)
 ----------------------------------------------------------------------
 -----
 title
 -----
 Structure from the checkpoint file:  "BDE49_nonexpt_879_mol1.chk"
 Charge =  0 Multiplicity = 1

                         Standard orientation:
 ---------------------------------------------------------------------
 Center     Atomic      Atomic             Coordinates (Angstroms)
 Number     Number       Type             X           Y           Z
 ---------------------------------------------------------------------
      1         17           0        4.100888   -0.679990    0.192122
      2          9           0       -1.877867    1.877426    1.067773
      3          9           0       -2.200263    1.105990   -0.937138
      4          9           0       -1.212266    3.020383   -0.652035
      5         16           0       -2.118291   -1.581170    1.521977
      6         16           0       -1.458850   -2.438246   -1.350058
      7          7           0        2.405705    1.312996   -0.034411
      8          6           0       -1.316461    1.770391   -0.161600
      9          6           0        2.488616    0.003948    0.071466
     10          6           0        1.397574   -0.864385    0.087887
     11          1           0        1.558884   -1.931337    0.167698
     12          6           0        0.107612   -0.331171    0.005006
     13          6           0        0.015219    1.071287   -0.101433
     14          6           0        1.179467    1.834894   -0.122998
     15          1           0        1.125994    2.912827   -0.220712
     16          5           0       -1.104206   -1.339045    0.044693
     17          1           0       -1.556904   -0.618947    2.272756
     18          1           0       -0.546312   -1.931763   -2.196476
 ---------------------------------------------------------------------

 SCF Done:  E(RHF) =  -1864.82052392     A.U. after    2 cycles

 The electronic state is 1-A.
 Alpha  occ. eigenvalues --  -99.91422 -75.71546 -75.71425 -29.32552 -29.32464
 Alpha  occ. eigenvalues --  -29.31967 -15.77913 -13.19972 -13.18803 -13.13277
 Alpha  occ. eigenvalues --  -13.12557 -13.09934 -13.06772 -11.64217 -11.53877
 Alpha  occ. eigenvalues --  -11.52054 -11.49634 -11.46457 -11.42297 -10.48794
 Alpha  occ. eigenvalues --   -9.68809  -9.67907  -9.67734  -8.05657  -8.05152
 Alpha  occ. eigenvalues --   -7.72432  -1.53464  -1.43507  -1.33024  -1.27374
 Alpha  occ. eigenvalues --   -1.19165  -1.13236  -1.11999  -0.97529  -0.94372
 Alpha  occ. eigenvalues --   -0.89558  -0.87979  -0.80325  -0.74278  -0.67690
 Alpha  occ. eigenvalues --   -0.66830  -0.65060  -0.62329  -0.59715  -0.55577
 Alpha  occ. eigenvalues --   -0.54125  -0.52216  -0.49869  -0.49119  -0.45923
 Alpha  occ. eigenvalues --   -0.45126  -0.44603  -0.42519  -0.40958  -0.38409
 Alpha  occ. eigenvalues --   -0.37674  -0.36176  -0.34987  -0.34134  -0.30972
 Alpha  occ. eigenvalues --   -0.27447  -0.26561  -0.25365  -0.22829
 Alpha virt. eigenvalues --    0.01966   0.03171   0.03723   0.04634   0.06135
 Alpha virt. eigenvalues --    0.06445   0.07845   0.08214   0.08293   0.08727
 Alpha virt. eigenvalues --    0.09455   0.09886   0.10495   0.10537   0.11115

 Mulliken charges:
               1
     1  Cl  -0.429980
     2  F    0.000298
     3  F    0.083743
     4  F    0.418729
     5  S   -3.531257
     6  S   -3.589909
     7  N   -3.848568
     8  C    1.113480
     9  C   -1.206671
    10  C    0.129485
    11  H    1.809394
    12  C    0.221041
    13  C    2.602221
    14  C   -1.623363
    15  H    1.660104
    16  B    4.807215
    17  H    0.751118
    18  H    0.632919
 Sum of Mulliken charges =   0.00000

 Dipole moment (field-independent basis, Debye):
    X=             -7.1666    Y=             -1.0590    Z=             -0.1451  Tot=              7.2458

 Test job not archived.
 1\1\GINC-SE165\SP\RHF\Aug-CC-pVDZ\C6H4B1Cl1F3N1S2\OHZDE\09-Apr-2025\0\
 \#t hf aug-cc-pvdz iop(5/13=1,5/36=2,99/5=2) pseudo=read geom=check gu
 ess=(read,tcheck) scf=(maxcycle=1)\\title\\0,1\Cl,0,4.100888,-0.67999,
 0.192122\F,0,-1.877867,1.877426,1.067773\F,0,-2.200263,1.10599,-0.9371
 38\F,0,-1.212266,3.020383,-0.652035\S,0,-2.118291,-1.58117,1.521977\S,
 0,-1.45885,-2.438246,-1.350058\N,0,2.405705,1.312996,-0.034411\C,0,-1.
 316461,1.770391,-0.1616\C,0,2.488616,0.003948,0.071466\C,0,1.397574,-0
 .864385,0.087887\H,0,1.558884,-1.931337,0.167698\C,0,0.107612,-0.33117

 Normal termination of Gaussian 16 at Wed Apr  9 00:53:29 2025.
