 Gaussian 16, Revision C.01,

 ----------------------------------------------------------------------
 #t hf aug-cc-pvdz symm=none int=(grid=ultrafine) guess=(read,tcheck) s
 table=(opt,rrhf)
 ----------------------------------------------------------------------
 -----
 title
 -----
 Symbolic Z-matrix:
 Charge =  0 Multiplicity = 1

 SCF Done:  E(RHF) =  -522.395687911     A.U. after   16 cycles
 Normal termination of Gaussian 16 at Tue Apr  8 22:41:27 2025.
 Gaussian 16:  ES64L-G16RevC.01  3-Jul-2019

 ----------------------------------------------------------------------
 #t hf aug-cc-pvdz iop(5/13=1,5/36=2,99/5=2) pseudo=read geom=check gue
 ss=(read,tcheck) scf=(maxcycle=1)
 ----------------------------------------------------------------------
 -----
 title
 -----
 Structure from the checkpoint file:  "BDE49_expt_1277_mol1.chk"
 Charge =  0 Multiplicity = 1

                         Standard orientation:
 ---------------------------------------------------------------------
 Center     Atomic      Atomic             Coordinates (Angstroms)
 Number     Number       Type             X           Y           Z
 ---------------------------------------------------------------------
      1          6           0       -0.322762   -0.186728    0.413546
      2          7           0        1.983129   -0.260327   -0.433413
      3          9           0        1.979496    1.111905   -0.765011
      4          9           0        3.294573   -0.429853    0.070475
      5          6           0       -0.938652    1.064819    0.490157
      6          6           0       -1.067422   -1.286461   -0.021487
      7          6           0       -2.279546    1.212906    0.146554
      8          6           0       -3.015964    0.110931   -0.283282
      9          6           0       -2.407368   -1.139660   -0.368597
     10          1           0       -2.975905   -1.999944   -0.702841
     11          1           0       -0.595165   -2.260817   -0.089324
     12          1           0       -2.748616    2.187873    0.213335
     13          1           0       -4.060429    0.226027   -0.549968
     14          1           0       -0.364486    1.924575    0.816330
     15          6           0        1.130358   -0.349920    0.777909
     16          1           0        1.332520   -1.347561    1.171266
     17          1           0        1.471702    0.398330    1.497111
 ---------------------------------------------------------------------

 SCF Done:  E(RHF) =  -524.610448648     A.U. after    2 cycles

 The electronic state is 1-A.
 Alpha  occ. eigenvalues --  -29.28716 -29.28668 -15.88922 -11.53090 -11.46349
 Alpha  occ. eigenvalues --  -11.44384 -11.44019 -11.42063 -11.41573 -11.37372
 Alpha  occ. eigenvalues --   -1.53348  -1.35141  -1.14563  -1.10366  -1.01052
 Alpha  occ. eigenvalues --   -0.87983  -0.86170  -0.81720  -0.72578  -0.72293
 Alpha  occ. eigenvalues --   -0.66878  -0.64223  -0.59399  -0.58822  -0.56113
 Alpha  occ. eigenvalues --   -0.52485  -0.50770  -0.45934  -0.45411  -0.43284
 Alpha  occ. eigenvalues --   -0.39052  -0.34361  -0.33878  -0.30359  -0.28362
 Alpha  occ. eigenvalues --   -0.22358  -0.20147
 Alpha virt. eigenvalues --    0.03289   0.04866   0.04886   0.05722   0.06138
 Alpha virt. eigenvalues --    0.07258   0.07797   0.09714   0.10526   0.10902
 Alpha virt. eigenvalues --    0.11996   0.12539   0.13183   0.13657   0.14013

 Mulliken charges:
               1
     1  C    3.421807
     2  N    0.055031
     3  F   -0.147235
     4  F   -0.225229
     5  C   -1.658239
     6  C   -1.864811
     7  C   -1.653939
     8  C   -2.765048
     9  C   -1.432724
    10  H    1.482364
    11  H    1.783853
    12  H    1.481999
    13  H    1.545508
    14  H    1.717655
    15  C   -4.420978
    16  H    1.330608
    17  H    1.349376
 Sum of Mulliken charges =  -0.00000

 Dipole moment (field-independent basis, Debye):
    X=              0.1054    Y=              1.1552    Z=              0.3678  Tot=              1.2169

 Test job not archived.
 1\1\GINC-SE332\SP\RHF\Aug-CC-pVDZ\C7H7F2N1\OHZDE\08-Apr-2025\0\\#t hf
 aug-cc-pvdz iop(5/13=1,5/36=2,99/5=2) pseudo=read geom=check guess=(re
 ad,tcheck) scf=(maxcycle=1)\\title\\0,1\C,0,-0.322762,-0.186728,0.4135
 46\N,0,1.983129,-0.260327,-0.433413\F,0,1.979496,1.111905,-0.765011\F,
 0,3.294573,-0.429853,0.070475\C,0,-0.938652,1.064819,0.490157\C,0,-1.0
 67422,-1.286461,-0.021487\C,0,-2.279546,1.212906,0.146554\C,0,-3.01596
 4,0.110931,-0.283282\C,0,-2.407368,-1.13966,-0.368597\H,0,-2.975905,-1
 .999944,-0.702841\H,0,-0.595165,-2.260817,-0.089324\H,0,-2.748616,2.18

 Normal termination of Gaussian 16 at Tue Apr  8 22:41:34 2025.
