 Gaussian 16, Revision C.01,

 ----------------------------------------------------------------------
 #t hf aug-cc-pvdz symm=none int=(grid=ultrafine) guess=(read,tcheck) s
 table=opt
 ----------------------------------------------------------------------
 -----
 title
 -----
 Symbolic Z-matrix:
 Charge =  0 Multiplicity = 2

 SCF Done:  E(UHF) =  -117.645310477     A.U. after   15 cycles
 Normal termination of Gaussian 16 at Tue Apr  8 22:33:23 2025.
 Gaussian 16:  ES64L-G16RevC.01  3-Jul-2019

 ----------------------------------------------------------------------
 #t hf aug-cc-pvdz iop(5/13=1,5/36=2,99/5=2) pseudo=read geom=check gue
 ss=(read,tcheck) scf=(maxcycle=1)
 ----------------------------------------------------------------------
 -----
 title
 -----
 Structure from the checkpoint file:  "BDE49_expt_1038_mol2.chk"
 Charge =  0 Multiplicity = 2

                         Standard orientation:
 ---------------------------------------------------------------------
 Center     Atomic      Atomic             Coordinates (Angstroms)
 Number     Number       Type             X           Y           Z
 ---------------------------------------------------------------------
      1          6           0        1.320556   -0.241813   -0.000000
      2          6           0        0.070895    0.571022   -0.000002
      3          1           0        1.745810   -0.609522    0.926626
      4          1           0        1.745797   -0.609546   -0.926622
      5          6           0       -1.218683   -0.284484    0.000002
      6          1           0        0.051635    1.225689   -0.879017
      7          1           0        0.051636    1.225698    0.879006
      8          1           0       -1.261976   -0.927289   -0.883259
      9          1           0       -2.107531    0.353901   -0.000001
     10          1           0       -1.261975   -0.927281    0.883269
 ---------------------------------------------------------------------

 SCF Done:  E(UHF) =  -118.245050828     A.U. after    2 cycles

 The electronic state is 2-A.
 Alpha  occ. eigenvalues --  -11.39952 -11.37456 -11.34718  -1.20021  -0.98544
 Alpha  occ. eigenvalues --   -0.83144  -0.63587  -0.58842  -0.54434  -0.50960
 Alpha  occ. eigenvalues --   -0.47335  -0.46321  -0.31031
 Alpha virt. eigenvalues --    0.03879   0.05756   0.06079   0.06138   0.06576
 Alpha virt. eigenvalues --    0.06781   0.07300   0.11619   0.12793   0.14645
 Alpha virt. eigenvalues --    0.15074   0.15723   0.16512   0.17116   0.18986

  Beta  occ. eigenvalues --  -11.39777 -11.36223 -11.33935  -1.17830  -0.94377
  Beta  occ. eigenvalues --   -0.80267  -0.62914  -0.57863  -0.53769  -0.48496
  Beta  occ. eigenvalues --   -0.46173  -0.46017
  Beta virt. eigenvalues --    0.03725   0.05576   0.06068   0.06107   0.06583
  Beta virt. eigenvalues --    0.06753   0.07318   0.09912   0.12001   0.14015
  Beta virt. eigenvalues --    0.15204   0.15264   0.15821   0.17146   0.18411

 Mulliken charges and spin densities:
               1          2
     1  C   -2.499924   1.449561
     2  C   -3.355733  -0.348476
     3  H    1.362780  -0.083202
     4  H    1.362779  -0.083202
     5  C   -3.414851   0.087318
     6  H    1.378170  -0.002169
     7  H    1.378167  -0.002169
     8  H    1.295647  -0.010089
     9  H    1.197317   0.002518
    10  H    1.295648  -0.010089
 Sum of Mulliken charges =  -0.00000   1.00000

 Dipole moment (field-independent basis, Debye):
    X=             -0.1545    Y=              0.0748    Z=              0.0000  Tot=              0.1717
                          Isotropic Fermi Contact Couplings
        Atom                 a.u.       MegaHertz       Gauss      10(-4) cm-1
     1  C(13)              0.12736     143.17671      51.08901      47.75861
     2  C(13)             -0.03604     -40.52002     -14.45855     -13.51603
     3  H(1)              -0.01826     -81.63815     -29.13052     -27.23156
     4  H(1)              -0.01826     -81.63804     -29.13048     -27.23152
     5  C(13)              0.05686      63.92654      22.81058      21.32360
     6  H(1)               0.00557      24.90559       8.88693       8.30761
     7  H(1)               0.00557      24.90411       8.88641       8.30712
     8  H(1)              -0.00098      -4.38512      -1.56472      -1.46272

 Normal termination of Gaussian 16 at Tue Apr  8 22:33:25 2025.
