 Gaussian 16, Revision C.01,

 ----------------------------------------------------------------------
 #t hf aug-cc-pvdz symm=none int=(grid=ultrafine) guess=(read,tcheck) s
 table=(opt,rrhf)
 ----------------------------------------------------------------------
 -----
 title
 -----
 Symbolic Z-matrix:
 Charge =  0 Multiplicity = 1

 SCF Done:  E(RHF) =  -940.745401232     A.U. after   15 cycles
 Normal termination of Gaussian 16 at Tue Apr  8 23:58:32 2025.
 Gaussian 16:  ES64L-G16RevC.01  3-Jul-2019

 ----------------------------------------------------------------------
 #t hf aug-cc-pvdz iop(5/13=1,5/36=2,99/5=2) pseudo=read geom=check gue
 ss=(read,tcheck) scf=(maxcycle=1)
 ----------------------------------------------------------------------
 -----
 title
 -----
 Structure from the checkpoint file:  "BDE49_nonexpt_2028_mol1.chk"
 Charge =  0 Multiplicity = 1

                         Standard orientation:
 ---------------------------------------------------------------------
 Center     Atomic      Atomic             Coordinates (Angstroms)
 Number     Number       Type             X           Y           Z
 ---------------------------------------------------------------------
      1         14           0        2.095637   -0.002763    0.017080
      2          6           0        0.141586   -0.000205    0.001180
      3          7           0       -0.432124    0.040716    1.420551
      4          8           0       -1.368071    0.770968    1.644131
      5          8           0        0.134158   -0.710287    2.193575
      6          7           0       -0.412790    1.213724   -0.750149
      7          8           0       -1.342103    1.050808   -1.504529
      8          8           0        0.160227    2.253438   -0.480135
      9          7           0       -0.416640   -1.252771   -0.680672
     10          8           0        0.165197   -1.543937   -1.709723
     11          8           0       -1.356730   -1.816234   -0.172739
     12          1           0        2.492595    0.891262    1.114344
     13          1           0        2.511675    0.496911   -1.301278
     14          1           0        2.496747   -1.397989    0.247990
 ---------------------------------------------------------------------

 SCF Done:  E(RHF) =  -943.620824999     A.U. after    2 cycles

 The electronic state is 1-A.
 Alpha  occ. eigenvalues --  -76.29143 -21.16147 -21.16099 -21.16099 -21.15229
 Alpha  occ. eigenvalues --  -21.15229 -21.15206 -16.06455 -16.06455 -16.06361
 Alpha  occ. eigenvalues --  -11.58453  -5.62483  -2.26983  -2.25176  -2.25176
 Alpha  occ. eigenvalues --   -2.08537  -2.04476  -2.04476  -1.76054  -1.76053
 Alpha  occ. eigenvalues --   -1.75561  -1.34809  -1.05272  -1.05272  -0.89496
 Alpha  occ. eigenvalues --   -0.81009  -0.79897  -0.79896  -0.72873  -0.70124
 Alpha  occ. eigenvalues --   -0.70123  -0.65961  -0.65910  -0.65910  -0.56708
 Alpha  occ. eigenvalues --   -0.53388  -0.53387  -0.45711  -0.40876  -0.40876
 Alpha  occ. eigenvalues --   -0.39662  -0.36670  -0.36669  -0.35396  -0.34671
 Alpha  occ. eigenvalues --   -0.34670
 Alpha virt. eigenvalues --    0.02845   0.05173   0.05173   0.06045   0.07648
 Alpha virt. eigenvalues --    0.07649   0.09004   0.09102   0.09103   0.12718
 Alpha virt. eigenvalues --    0.13594   0.14203   0.14203   0.15032   0.15198

 Mulliken charges:
               1
     1  Si   6.749917
     2  C    2.076727
     3  N    4.738689
     4  O   -2.875525
     5  O   -3.007826
     6  N    4.738936
     7  O   -2.875655
     8  O   -3.007799
     9  N    4.738873
    10  O   -3.007806
    11  O   -2.875638
    12  H   -1.797574
    13  H   -1.797719
    14  H   -1.797600
 Sum of Mulliken charges =  -0.00000

 Dipole moment (field-independent basis, Debye):
    X=              1.5635    Y=             -0.0022    Z=              0.0128  Tot=              1.5636

 Test job not archived.
 1\1\GINC-SE364\SP\RHF\Aug-CC-pVDZ\C1H3N3O6Si1\OHZDE\08-Apr-2025\0\\#t
 hf aug-cc-pvdz iop(5/13=1,5/36=2,99/5=2) pseudo=read geom=check guess=
 (read,tcheck) scf=(maxcycle=1)\\title\\0,1\Si,0,-2.095637,-0.002785,-0
 .017104\C,0,-0.141586,-0.000206,-0.001182\N,0,0.432141,0.039675,-1.420
 575\O,0,1.368088,0.769766,-1.64468\O,0,-0.134127,-0.711898,-2.193054\N
 ,0,0.412775,1.214277,0.749263\O,0,1.342079,1.051919,1.503774\O,0,-0.16
 0243,2.253789,0.478478\N,0,0.416637,-1.252269,0.681597\O,0,-0.165212,-
 1.542682,1.710855\O,0,1.356736,-1.816101,0.17409\H,0,-2.492585,0.89043

 Normal termination of Gaussian 16 at Tue Apr  8 23:58:39 2025.
