 Gaussian 16, Revision C.01,

 ----------------------------------------------------------------------
 #t hf aug-cc-pvdz symm=none int=(grid=ultrafine) guess=(read,tcheck) s
 table=(opt,rrhf)
 ----------------------------------------------------------------------
 -----
 title
 -----
 Symbolic Z-matrix:
 Charge =  0 Multiplicity = 1

 SCF Done:  E(RHF) =  -698.749679542     A.U. after   17 cycles
 Normal termination of Gaussian 16 at Tue Apr  8 23:36:27 2025.
 Gaussian 16:  ES64L-G16RevC.01  3-Jul-2019

 ----------------------------------------------------------------------
 #t hf aug-cc-pvdz iop(5/13=1,5/36=2,99/5=2) pseudo=read geom=check gue
 ss=(read,tcheck) scf=(maxcycle=1)
 ----------------------------------------------------------------------
 -----
 title
 -----
 Structure from the checkpoint file:  "BDE49_nonexpt_1491_mol1.chk"
 Charge =  0 Multiplicity = 1

                         Standard orientation:
 ---------------------------------------------------------------------
 Center     Atomic      Atomic             Coordinates (Angstroms)
 Number     Number       Type             X           Y           Z
 ---------------------------------------------------------------------
      1          6           0        1.212744    1.302203   -0.031985
      2          6           0       -0.027621    1.835825   -0.071592
      3          6           0        1.487326   -0.127996    0.059103
      4         15           0        0.050992   -1.285719   -0.341118
      5          6           0       -1.425212   -0.215970    0.056930
      6          7           0       -1.232671    1.163058   -0.060287
      7          1           0       -2.082571    1.704847    0.040270
      8          8           0       -2.518812   -0.672797    0.295201
      9          8           0        2.581152   -0.601944    0.286062
     10          1           0        2.068944    1.964988   -0.001008
     11          1           0       -0.144186    2.912892   -0.097087
     12          1           0        0.039499   -2.004783    0.871757
 ---------------------------------------------------------------------

 SCF Done:  E(RHF) =  -700.469855689     A.U. after    2 cycles

 The electronic state is 1-A.
 Alpha  occ. eigenvalues -- -105.20848 -21.07118 -21.06697 -15.81747 -11.51850
 Alpha  occ. eigenvalues --  -11.51527 -11.50384 -11.41230  -2.79116  -1.74654
 Alpha  occ. eigenvalues --   -1.72337  -1.51362  -1.50540  -1.47266  -1.44317
 Alpha  occ. eigenvalues --   -1.16706  -0.97136  -0.85497  -0.81048  -0.74048
 Alpha  occ. eigenvalues --   -0.64153  -0.62080  -0.60219  -0.56600  -0.53057
 Alpha  occ. eigenvalues --   -0.51128  -0.44303  -0.43201  -0.38861  -0.30654
 Alpha  occ. eigenvalues --   -0.23720  -0.17292  -0.04516
 Alpha virt. eigenvalues --    0.02564   0.05149   0.05611   0.06804   0.07335
 Alpha virt. eigenvalues --    0.08456   0.09162   0.10068   0.11362   0.11796
 Alpha virt. eigenvalues --    0.12203   0.13106   0.13894   0.13986   0.14279

 Mulliken charges:
               1
     1  C   -0.585030
     2  C   -0.151855
     3  C    1.176403
     4  P    3.578146
     5  C    2.289024
     6  N   -3.546616
     7  H    0.693092
     8  O   -2.966400
     9  O   -3.133989
    10  H    1.505797
    11  H    1.513489
    12  H   -0.372061
 Sum of Mulliken charges =  -0.00000

 Dipole moment (field-independent basis, Debye):
    X=             -1.0806    Y=             -0.3135    Z=             -3.3748  Tot=              3.5574

 Test job not archived.
 1\1\GINC-SE186\SP\RHF\Aug-CC-pVDZ\C4H4N1O2P1\OHZDE\08-Apr-2025\0\\#t h
 f aug-cc-pvdz iop(5/13=1,5/36=2,99/5=2) pseudo=read geom=check guess=(
 read,tcheck) scf=(maxcycle=1)\\title\\0,1\C,0,1.212744,1.302203,-0.031
 985\C,0,-0.027621,1.835825,-0.071592\C,0,1.487326,-0.127996,0.059103\P
 ,0,0.050992,-1.285719,-0.341118\C,0,-1.425212,-0.21597,0.05693\N,0,-1.
 232671,1.163058,-0.060287\H,0,-2.082571,1.704847,0.04027\O,0,-2.518812
 ,-0.672797,0.295201\O,0,2.581152,-0.601944,0.286062\H,0,2.068944,1.964
 988,-0.001008\H,0,-0.144186,2.912892,-0.097087\H,0,0.039499,-2.004783,

 Normal termination of Gaussian 16 at Tue Apr  8 23:36:33 2025.
