 Gaussian 16, Revision C.01,

 ----------------------------------------------------------------------
 #t hf aug-cc-pvdz symm=none int=(grid=ultrafine) guess=(read,tcheck) s
 table=(opt,rrhf)
 ----------------------------------------------------------------------
 -----
 title
 -----
 Symbolic Z-matrix:
 Charge =  0 Multiplicity = 1

 SCF Done:  E(RHF) =  -276.964634002     A.U. after   11 cycles
 Normal termination of Gaussian 16 at Tue Apr  8 22:30:18 2025.
 Gaussian 16:  ES64L-G16RevC.01  3-Jul-2019

 ----------------------------------------------------------------------
 #t hf aug-cc-pvdz iop(5/13=1,5/36=2,99/5=2) pseudo=read geom=check gue
 ss=(read,tcheck) scf=(maxcycle=1)
 ----------------------------------------------------------------------
 -----
 title
 -----
 Structure from the checkpoint file:  "BDE49_expt_1007_mol1.chk"
 Charge =  0 Multiplicity = 1

                         Standard orientation:
 ---------------------------------------------------------------------
 Center     Atomic      Atomic             Coordinates (Angstroms)
 Number     Number       Type             X           Y           Z
 ---------------------------------------------------------------------
      1          6           0       -0.268882    0.703012    0.510554
      2          6           0        0.268882   -0.703012    0.510554
      3          1           0       -1.356771    0.695049    0.401254
      4          9           0        0.268882    1.433480   -0.545598
      5          1           0        0.005411    1.202911    1.445806
      6          1           0       -0.005411   -1.202911    1.445806
      7          1           0        1.356771   -0.695049    0.401254
      8          9           0       -0.268882   -1.433480   -0.545598
 ---------------------------------------------------------------------

 SCF Done:  E(RHF) =  -278.032021740     A.U. after    2 cycles

 The electronic state is 1-A.
 Alpha  occ. eigenvalues --  -29.25809 -29.25799 -11.48253 -11.43263  -1.28070
 Alpha  occ. eigenvalues --   -1.03360  -0.73440  -0.72499  -0.63760  -0.59997
 Alpha  occ. eigenvalues --   -0.58098  -0.37758  -0.37296  -0.27829  -0.27310
 Alpha  occ. eigenvalues --   -0.24096  -0.23628
 Alpha virt. eigenvalues --    0.03949   0.05312   0.05717   0.06288   0.11587
 Alpha virt. eigenvalues --    0.12328   0.12515   0.14052   0.14476   0.17518
 Alpha virt. eigenvalues --    0.19765   0.20164   0.24510   0.25465   0.28613

 Mulliken charges:
               1
     1  C   -2.974630
     2  C   -2.974630
     3  H    1.296688
     4  F    0.354970
     5  H    1.322971
     6  H    1.322971
     7  H    1.296688
     8  F    0.354970
 Sum of Mulliken charges =   0.00000

 Dipole moment (field-independent basis, Debye):
    X=             -0.0000    Y=             -0.0000    Z=             -1.4110  Tot=              1.4110

 Test job not archived.
 1\1\GINC-SE080\SP\RHF\Aug-CC-pVDZ\C2H4F2\OHZDE\08-Apr-2025\0\\#t hf au
 g-cc-pvdz iop(5/13=1,5/36=2,99/5=2) pseudo=read geom=check guess=(read
 ,tcheck) scf=(maxcycle=1)\\title\\0,1\C,0,-0.268882,0.703012,0.510554\
 C,0,0.268882,-0.703012,0.510554\H,0,-1.356771,0.695049,0.401254\F,0,0.
 268882,1.43348,-0.545598\H,0,0.005411,1.202911,1.445806\H,0,-0.005411,
 -1.202911,1.445806\H,0,1.356771,-0.695049,0.401254\F,0,-0.268882,-1.43
 348,-0.545598\\Version=ES64L-G16RevC.01\State=1-A\HF=-278.0320217\RMSD
 =1.845e-01\Dipole=0.,0.,-0.5551151\Quadrupole=-0.056942,0.650391,-0.59

 Normal termination of Gaussian 16 at Tue Apr  8 22:30:20 2025.
