 Gaussian 16, Revision C.01,

 ----------------------------------------------------------------------
 #t hf aug-cc-pvdz symm=none int=(grid=ultrafine) guess=(read,tcheck) s
 table=(opt,rrhf)
 ----------------------------------------------------------------------
 -----
 title
 -----
 Symbolic Z-matrix:
 Charge =  0 Multiplicity = 1

 SCF Done:  E(RHF) =  -288.706796479     A.U. after   13 cycles
 Normal termination of Gaussian 16 at Tue Apr  8 23:10:43 2025.
 Gaussian 16:  ES64L-G16RevC.01  3-Jul-2019

 ----------------------------------------------------------------------
 #t hf aug-cc-pvdz iop(5/13=1,5/36=2,99/5=2) pseudo=read geom=check gue
 ss=(read,tcheck) scf=(maxcycle=1)
 ----------------------------------------------------------------------
 -----
 title
 -----
 Structure from the checkpoint file:  "BDE49_expt_618_mol1.chk"
 Charge =  0 Multiplicity = 1

                         Standard orientation:
 ---------------------------------------------------------------------
 Center     Atomic      Atomic             Coordinates (Angstroms)
 Number     Number       Type             X           Y           Z
 ---------------------------------------------------------------------
      1          6           0        0.633827    0.523396    0.267894
      2          8           0       -0.578265    0.590841   -0.386752
      3          8           0       -1.459039   -0.397678    0.209911
      4          1           0       -1.319592   -1.147064   -0.387702
      5          9           0        1.348478   -0.602455   -0.121658
      6          1           0        1.176730    1.413043   -0.060063
      7          1           0        0.502021    0.470435    1.350047
 ---------------------------------------------------------------------

 SCF Done:  E(RHF) =  -289.833821840     A.U. after    2 cycles

 The electronic state is 1-A.
 Alpha  occ. eigenvalues --  -29.26990 -21.13666 -21.12400 -11.48197  -1.96934
 Alpha  occ. eigenvalues --   -1.48565  -1.08035  -0.73259  -0.72235  -0.63889
 Alpha  occ. eigenvalues --   -0.57782  -0.45902  -0.40910  -0.35413  -0.33269
 Alpha  occ. eigenvalues --   -0.27148  -0.26149
 Alpha virt. eigenvalues --    0.04436   0.05602   0.05922   0.10865   0.12175
 Alpha virt. eigenvalues --    0.15254   0.15678   0.18474   0.19862   0.21292
 Alpha virt. eigenvalues --    0.22196   0.23555   0.26472   0.27321   0.29232

 Mulliken charges:
               1
     1  C   -1.526966
     2  O   -1.433644
     3  O   -0.912299
     4  H    0.842532
     5  F    0.309096
     6  H    1.338021
     7  H    1.383259
 Sum of Mulliken charges =  -0.00000

 Dipole moment (field-independent basis, Debye):
    X=              1.2262    Y=             -1.5257    Z=             -0.2490  Tot=              1.9732

 Test job not archived.
 1\1\GINC-SE094\SP\RHF\Aug-CC-pVDZ\C1H3F1O2\OHZDE\08-Apr-2025\0\\#t hf
 aug-cc-pvdz iop(5/13=1,5/36=2,99/5=2) pseudo=read geom=check guess=(re
 ad,tcheck) scf=(maxcycle=1)\\title\\0,1\C,0,0.633827,0.523396,0.267894
 \O,0,-0.578265,0.590841,-0.386752\O,0,-1.459039,-0.397678,0.209911\H,0
 ,-1.319592,-1.147064,-0.387702\F,0,1.348478,-0.602455,-0.121658\H,0,1.
 17673,1.413043,-0.060063\H,0,0.502021,0.470435,1.350047\\Version=ES64L
 -G16RevC.01\State=1-A\HF=-289.8338218\RMSD=5.296e-02\Dipole=0.4824341,
 -0.6002484,-0.0979758\Quadrupole=-0.1663284,0.7510115,-0.5846831,1.298

 Normal termination of Gaussian 16 at Tue Apr  8 23:10:45 2025.
