 Gaussian 16, Revision C.01,

 ----------------------------------------------------------------------
 #t hf aug-cc-pvdz symm=none int=(grid=ultrafine) guess=(read,tcheck) s
 table=opt
 ----------------------------------------------------------------------
 -----
 title
 -----
 Symbolic Z-matrix:
 Charge =  0 Multiplicity = 2

 SCF Done:  E(UHF) =  -614.022178572     A.U. after   21 cycles
 Normal termination of Gaussian 16 at Wed Apr  9 00:32:46 2025.
 Gaussian 16:  ES64L-G16RevC.01  3-Jul-2019

 ----------------------------------------------------------------------
 #t hf aug-cc-pvdz iop(5/13=1,5/36=2,99/5=2) pseudo=read geom=check gue
 ss=(read,tcheck) scf=(maxcycle=1)
 ----------------------------------------------------------------------
 -----
 title
 -----
 Structure from the checkpoint file:  "BDE49_nonexpt_395_mol2.chk"
 Charge =  0 Multiplicity = 2

                         Standard orientation:
 ---------------------------------------------------------------------
 Center     Atomic      Atomic             Coordinates (Angstroms)
 Number     Number       Type             X           Y           Z
 ---------------------------------------------------------------------
      1          9           0        2.940208   -0.215464    0.000003
      2          5           0        1.842012    0.506734    0.000005
      3          7           0        0.546610   -0.013544    0.000001
      4          6           0       -0.656371   -0.002577   -0.000001
      5         16           0       -2.222499   -0.030264   -0.000003
 ---------------------------------------------------------------------

 SCF Done:  E(UHF) =  -615.054746562     A.U. after    2 cycles

 The electronic state is 2-A.
 Alpha  occ. eigenvalues --  -75.72128 -29.27927 -15.78196 -13.25144 -13.03653
 Alpha  occ. eigenvalues --  -13.03263 -11.56931  -8.06444  -7.74117  -1.45199
 Alpha  occ. eigenvalues --   -1.20182  -1.03146  -0.78343  -0.60606  -0.59282
 Alpha  occ. eigenvalues --   -0.57603  -0.49810  -0.43674  -0.40560  -0.33152
 Alpha  occ. eigenvalues --   -0.29405  -0.21731
 Alpha virt. eigenvalues --    0.02696   0.03722   0.04579   0.06677   0.07346
 Alpha virt. eigenvalues --    0.08077   0.10154   0.12372   0.14663   0.14814
 Alpha virt. eigenvalues --    0.15904   0.16672   0.18380   0.20761   0.20778

  Beta  occ. eigenvalues --  -75.72073 -29.27620 -15.78378 -13.25152 -13.03287
  Beta  occ. eigenvalues --  -13.03237 -11.56684  -8.06382  -7.71969  -1.44825
  Beta  occ. eigenvalues --   -1.19647  -1.00555  -0.76762  -0.59226  -0.59133
  Beta  occ. eigenvalues --   -0.56427  -0.43086  -0.42884  -0.39015  -0.31056
  Beta  occ. eigenvalues --   -0.29667
  Beta virt. eigenvalues --    0.02250   0.03790   0.03953   0.06269   0.07305
  Beta virt. eigenvalues --    0.08309   0.08842   0.12333   0.12457   0.15515
  Beta virt. eigenvalues --    0.15526   0.16861   0.17367   0.19560   0.21144

 Mulliken charges and spin densities:
               1          2
     1  F   -1.094691  -0.021366
     2  B    1.146433   1.063290
     3  N   -3.341734  -0.238791
     4  C    1.596957   0.040392
     5  S    1.693034   0.156475
 Sum of Mulliken charges =  -0.00000   1.00000

 Dipole moment (field-independent basis, Debye):
    X=             -0.8259    Y=             -1.5618    Z=             -0.0000  Tot=              1.7667
                          Isotropic Fermi Contact Couplings
        Atom                 a.u.       MegaHertz       Gauss      10(-4) cm-1
     1  F(19)              0.08636     363.34812     129.65165     121.19989
     2  B(11)              0.28271     405.51003     144.69606     135.26359
     3  N(14)              0.08298      26.81112       9.56687       8.94323
     4  C(13)              0.01107      12.44347       4.44014       4.15070
     5  S(33)              0.02905       9.97756       3.56024       3.32816
 --------------------------------------------------------
       Center         ----  Spin Dipole Couplings  ----
                      3XX-RR        3YY-RR        3ZZ-RR

 Normal termination of Gaussian 16 at Wed Apr  9 00:32:53 2025.
