 Gaussian 16, Revision C.01,

 ----------------------------------------------------------------------
 #t hf aug-cc-pvdz symm=none int=(grid=ultrafine) guess=(read,tcheck) s
 table=(opt,rrhf)
 ----------------------------------------------------------------------
 -----
 title
 -----
 Symbolic Z-matrix:
 Charge =  0 Multiplicity = 1

 SCF Done:  E(RHF) =  -582.315318434     A.U. after   14 cycles
 Normal termination of Gaussian 16 at Wed Apr  9 00:47:29 2025.
 Gaussian 16:  ES64L-G16RevC.01  3-Jul-2019

 ----------------------------------------------------------------------
 #t hf aug-cc-pvdz iop(5/13=1,5/36=2,99/5=2) pseudo=read geom=check gue
 ss=(read,tcheck) scf=(maxcycle=1)
 ----------------------------------------------------------------------
 -----
 title
 -----
 Structure from the checkpoint file:  "BDE49_nonexpt_817_mol1.chk"
 Charge =  0 Multiplicity = 1

                         Standard orientation:
 ---------------------------------------------------------------------
 Center     Atomic      Atomic             Coordinates (Angstroms)
 Number     Number       Type             X           Y           Z
 ---------------------------------------------------------------------
      1          6           0        1.236933   -0.306055    0.478151
      2          5           0       -1.852325    0.293758   -0.016837
      3          8           0       -3.159576   -0.082298   -0.013813
      4          8           0       -1.562253    1.632938   -0.039063
      5          6           0        2.265142   -0.075139   -0.348595
      6          6           0        3.558540    0.592882    0.018670
      7          1           0        2.190223   -0.401934   -1.386257
      8          1           0        3.572855    0.897079    1.067664
      9          1           0        3.733846    1.479295   -0.601539
     10          1           0        4.405587   -0.080031   -0.156309
     11          1           0       -3.757055    0.676869   -0.035158
     12          1           0       -0.616237    1.808749   -0.037489
     13         14           0       -0.379086   -1.116334   -0.019076
     14          1           0       -0.204064   -1.679660   -1.384578
     15          1           0       -0.692057   -2.237302    0.903788
     16          1           0        1.346682    0.021576    1.514773
 ---------------------------------------------------------------------

 SCF Done:  E(RHF) =  -583.782410140     A.U. after    2 cycles

 The electronic state is 1-A.
 Alpha  occ. eigenvalues --  -76.19448 -21.06327 -21.05498 -11.43167 -11.39133
 Alpha  occ. eigenvalues --  -11.36177  -7.63309  -5.53197  -2.17671  -2.15945
 Alpha  occ. eigenvalues --   -2.15544  -1.80640  -1.65214  -1.20478  -0.99819
 Alpha  occ. eigenvalues --   -0.81826  -0.77011  -0.70949  -0.62683  -0.58878
 Alpha  occ. eigenvalues --   -0.57145  -0.56949  -0.54416  -0.50104  -0.48641
 Alpha  occ. eigenvalues --   -0.45247  -0.43175  -0.40520  -0.36807  -0.36319
 Alpha  occ. eigenvalues --   -0.32503
 Alpha virt. eigenvalues --    0.03111   0.04447   0.05031   0.05175   0.05726
 Alpha virt. eigenvalues --    0.06269   0.06339   0.07180   0.07854   0.08609
 Alpha virt. eigenvalues --    0.08959   0.09606   0.10193   0.10608   0.11283

 Mulliken charges:
               1
     1  C   -3.190594
     2  B    5.494986
     3  O   -3.973063
     4  O   -4.416402
     5  C   -0.159978
     6  C   -4.296953
     7  H    1.602133
     8  H    1.255986
     9  H    1.217858
    10  H    1.213645
    11  H    1.328764
    12  H    1.581106
    13  Si   4.579980
    14  H   -1.746448
    15  H   -1.958008
    16  H    1.466987
 Sum of Mulliken charges =  -0.00000

 Dipole moment (field-independent basis, Debye):
    X=              1.6295    Y=              1.4553    Z=             -0.0686  Tot=              2.1858

 Test job not archived.
 1\1\GINC-SE363\SP\RHF\Aug-CC-pVDZ\C3H9B1O2Si1\OHZDE\09-Apr-2025\0\\#t
 hf aug-cc-pvdz iop(5/13=1,5/36=2,99/5=2) pseudo=read geom=check guess=
 (read,tcheck) scf=(maxcycle=1)\\title\\0,1\C,0,1.236933,-0.306055,0.47
 8151\B,0,-1.852325,0.293758,-0.016837\O,0,-3.159576,-0.082298,-0.01381
 3\O,0,-1.562253,1.632938,-0.039063\C,0,2.265142,-0.075139,-0.348595\C,
 0,3.55854,0.592882,0.01867\H,0,2.190223,-0.401934,-1.386257\H,0,3.5728
 55,0.897079,1.067664\H,0,3.733846,1.479295,-0.601539\H,0,4.405587,-0.0
 80031,-0.156309\H,0,-3.757055,0.676869,-0.035158\H,0,-0.616237,1.80874

 Normal termination of Gaussian 16 at Wed Apr  9 00:47:34 2025.
