 Gaussian 16, Revision C.01,

 ----------------------------------------------------------------------
 #t hf aug-cc-pvdz symm=none int=(grid=ultrafine) guess=(read,tcheck) s
 table=opt
 ----------------------------------------------------------------------
 -----
 title
 -----
 Symbolic Z-matrix:
 Charge =  0 Multiplicity = 2

 SCF Done:  E(UHF) =  -700.520984683     A.U. after   24 cycles
 Normal termination of Gaussian 16 at Tue Apr  8 23:35:28 2025.
 Gaussian 16:  ES64L-G16RevC.01  3-Jul-2019

 ----------------------------------------------------------------------
 #t hf aug-cc-pvdz iop(5/13=1,5/36=2,99/5=2) pseudo=read geom=check gue
 ss=(read,tcheck) scf=(maxcycle=1)
 ----------------------------------------------------------------------
 -----
 title
 -----
 Structure from the checkpoint file:  "BDE49_nonexpt_1448_mol2.chk"
 Charge =  0 Multiplicity = 2

                         Standard orientation:
 ---------------------------------------------------------------------
 Center     Atomic      Atomic             Coordinates (Angstroms)
 Number     Number       Type             X           Y           Z
 ---------------------------------------------------------------------
      1          6           0        2.045462   -0.101162   -0.000015
      2          8           0        2.453797   -1.241450   -0.000135
      3          7           0        0.681532    0.187896    0.000063
      4          6           0       -1.910173    0.309695    0.000156
      5          6           0        2.945670    1.118237    0.000092
      6          6           0       -3.331651   -0.211398    0.000103
      7          8           0       -1.665456    1.505935   -0.000287
      8          1           0        3.982671    0.789870    0.000040
      9          1           0        2.757549    1.735281    0.883244
     10          1           0        2.757518    1.735456   -0.882932
     11          1           0       -3.378548   -1.302325    0.000400
     12          1           0       -3.851904    0.171564   -0.882096
     13          1           0       -3.852152    0.172073    0.881932
     14         15           0       -0.556939   -0.972327    0.000010
     15          1           0        0.365658    1.159605    0.000192
 ---------------------------------------------------------------------

 SCF Done:  E(UHF) =  -702.281090784     A.U. after    2 cycles

 The electronic state is 2-A.
 Alpha  occ. eigenvalues -- -105.21445 -21.08517 -21.04158 -15.77067 -11.51196
 Alpha  occ. eigenvalues --  -11.48741 -11.40143 -11.39647  -2.80147  -1.74374
 Alpha  occ. eigenvalues --   -1.72381  -1.59816  -1.51067  -1.47147  -1.27893
 Alpha  occ. eigenvalues --   -1.11855  -1.08720  -0.83021  -0.78656  -0.68230
 Alpha  occ. eigenvalues --   -0.65699  -0.61916  -0.60464  -0.59980  -0.57213
 Alpha  occ. eigenvalues --   -0.53800  -0.51154  -0.49401  -0.45694  -0.42912
 Alpha  occ. eigenvalues --   -0.35505  -0.30692  -0.24001  -0.07130  -0.01754
 Alpha virt. eigenvalues --    0.03396   0.04566   0.05934   0.06367   0.06469
 Alpha virt. eigenvalues --    0.06554   0.08446   0.09745   0.09825   0.10301
 Alpha virt. eigenvalues --    0.10495   0.12456   0.12720   0.13509   0.14323

  Beta  occ. eigenvalues -- -105.20912 -21.07477 -21.03995 -15.76713 -11.51250
  Beta  occ. eigenvalues --  -11.49249 -11.40160 -11.39650  -2.78523  -1.72538
  Beta  occ. eigenvalues --   -1.71998  -1.58913  -1.49323  -1.26881  -1.26629
  Beta  occ. eigenvalues --   -1.11823  -1.08594  -0.81958  -0.78467  -0.67674
  Beta  occ. eigenvalues --   -0.65318  -0.61397  -0.60824  -0.59961  -0.56931
  Beta  occ. eigenvalues --   -0.53095  -0.49280  -0.49247  -0.43647  -0.42709
  Beta  occ. eigenvalues --   -0.33075  -0.30310  -0.23074  -0.05125
  Beta virt. eigenvalues --    0.03415   0.04589   0.05944   0.06429   0.06448
  Beta virt. eigenvalues --    0.06508   0.07921   0.08484   0.09777   0.10075
  Beta virt. eigenvalues --    0.10572   0.12542   0.12625   0.13580   0.13738

 Mulliken charges and spin densities:
               1          2
     1  C    3.894066  -0.105474
     2  O   -3.057507   0.047419
     3  N   -2.986979  -0.104585
     4  C    1.181250  -0.202841
     5  C   -4.278853   0.029427
     6  C   -3.845803   0.134982
     7  O   -2.806033   0.342141
     8  H    1.154630  -0.010826
     9  H    1.317302  -0.000049
    10  H    1.317291  -0.000032
    11  H    1.429954  -0.012015
    12  H    1.218121  -0.009133
    13  H    1.218194  -0.009182
    14  P    3.667259   0.934539
    15  H    0.577109  -0.034369
 Sum of Mulliken charges =   0.00000   1.00000

 Dipole moment (field-independent basis, Debye):
    X=              2.0301    Y=             -2.2172    Z=             -0.0022  Tot=              3.0062
                          Isotropic Fermi Contact Couplings
        Atom                 a.u.       MegaHertz       Gauss      10(-4) cm-1
     1  C(13)             -0.00405      -4.55701      -1.62605      -1.52005
     2  O(17)              0.00810      -4.90765      -1.75117      -1.63702
     3  N(14)              0.03950      12.76290       4.55412       4.25724
     4  C(13)             -0.02563     -28.80983     -10.28006      -9.60993
     5  C(13)             -0.00197      -2.21746      -0.79125      -0.73967
     6  C(13)              0.00181       2.03305       0.72544       0.67815
     7  O(17)              0.05932     -35.95723     -12.83043     -11.99404
     8  H(1)              -0.00008      -0.37039      -0.13216      -0.12355

 Normal termination of Gaussian 16 at Tue Apr  8 23:35:34 2025.
