 Gaussian 16, Revision C.01,

 ----------------------------------------------------------------------
 #t hf aug-cc-pvdz symm=none int=(grid=ultrafine) guess=(read,tcheck) s
 table=(opt,rrhf)
 ----------------------------------------------------------------------
 -----
 title
 -----
 Symbolic Z-matrix:
 Charge =  0 Multiplicity = 1

 SCF Done:  E(RHF) =  -497.622680880     A.U. after   17 cycles
 Normal termination of Gaussian 16 at Wed Apr  9 00:42:29 2025.
 Gaussian 16:  ES64L-G16RevC.01  3-Jul-2019

 ----------------------------------------------------------------------
 #t hf aug-cc-pvdz iop(5/13=1,5/36=2,99/5=2) pseudo=read geom=check gue
 ss=(read,tcheck) scf=(maxcycle=1)
 ----------------------------------------------------------------------
 -----
 title
 -----
 Structure from the checkpoint file:  "BDE49_nonexpt_649_mol1.chk"
 Charge =  0 Multiplicity = 1

                         Standard orientation:
 ---------------------------------------------------------------------
 Center     Atomic      Atomic             Coordinates (Angstroms)
 Number     Number       Type             X           Y           Z
 ---------------------------------------------------------------------
      1          8           0       -2.478299   -1.830677    0.131963
      2          1           0       -1.705461   -2.377484    0.290754
      3          8           0       -3.291828    0.342809   -0.164733
      4          1           0       -4.129381   -0.132517   -0.147493
      5          7           0        3.758782   -1.521788   -0.062436
      6          6           0        1.642720   -0.035492   -0.007508
      7          6           0        2.815529   -0.855219   -0.038533
      8          6           0       -0.789834    0.146461    0.005857
      9          6           0        0.373245   -0.628745   -0.021593
     10          1           0        0.322972   -1.712080   -0.067007
     11          6           0        1.759123    1.360671    0.036088
     12          1           0        2.741814    1.815770    0.048338
     13          6           0       -0.645874    1.543410    0.042455
     14          1           0       -1.537933    2.158391    0.056985
     15          6           0        0.610432    2.143001    0.060468
     16          1           0        0.697722    3.222805    0.091799
     17          5           0       -2.226446   -0.492787   -0.007515
 ---------------------------------------------------------------------

 SCF Done:  E(RHF) =  -499.828640517     A.U. after    2 cycles

 The electronic state is 1-A.
 Alpha  occ. eigenvalues --  -21.07631 -21.06616 -15.76472 -11.55540 -11.48353
 Alpha  occ. eigenvalues --  -11.47103 -11.45391 -11.43954 -11.43456 -11.39039
 Alpha  occ. eigenvalues --   -7.67850  -1.83476  -1.66995  -1.39257  -1.29267
 Alpha  occ. eigenvalues --   -1.14066  -1.12878  -0.92616  -0.91121  -0.80510
 Alpha  occ. eigenvalues --   -0.74653  -0.70810  -0.66489  -0.62489  -0.62206
 Alpha  occ. eigenvalues --   -0.58070  -0.55789  -0.53808  -0.51364  -0.50443
 Alpha  occ. eigenvalues --   -0.48845  -0.46115  -0.44302  -0.42932  -0.38266
 Alpha  occ. eigenvalues --   -0.37857  -0.35893  -0.34106
 Alpha virt. eigenvalues --    0.02452   0.04095   0.04469   0.05040   0.05519
 Alpha virt. eigenvalues --    0.06031   0.07622   0.07927   0.08208   0.08528
 Alpha virt. eigenvalues --    0.09053   0.09984   0.10884   0.11542   0.12258

 Mulliken charges:
               1
     1  O   -4.792149
     2  H    1.468768
     3  O   -4.562133
     4  H    1.132608
     5  N   -2.173690
     6  C    6.091159
     7  C   -1.383278
     8  C   -0.264271
     9  C   -1.219997
    10  H    1.953185
    11  C   -4.082814
    12  H    1.732861
    13  C   -1.323789
    14  H    2.095177
    15  C   -0.935905
    16  H    1.569853
    17  B    4.694416
 Sum of Mulliken charges =  -0.00000

 Dipole moment (field-independent basis, Debye):
    X=             -2.9990    Y=              1.8968    Z=              0.2282  Tot=              3.5558

 Test job not archived.
 1\1\GINC-SE253\SP\RHF\Aug-CC-pVDZ\C7H6B1N1O2\OHZDE\09-Apr-2025\0\\#t h
 f aug-cc-pvdz iop(5/13=1,5/36=2,99/5=2) pseudo=read geom=check guess=(
 read,tcheck) scf=(maxcycle=1)\\title\\0,1\O,0,-2.478299,-1.830677,0.13
 1963\H,0,-1.705461,-2.377484,0.290754\O,0,-3.291828,0.342809,-0.164733
 \H,0,-4.129381,-0.132517,-0.147493\N,0,3.758782,-1.521788,-0.062436\C,
 0,1.64272,-0.035492,-0.007508\C,0,2.815529,-0.855219,-0.038533\C,0,-0.
 789834,0.146461,0.005857\C,0,0.373245,-0.628745,-0.021593\H,0,0.322972
 ,-1.71208,-0.067007\C,0,1.759123,1.360671,0.036088\H,0,2.741814,1.8157

 Normal termination of Gaussian 16 at Wed Apr  9 00:42:38 2025.
