 Gaussian 16, Revision C.01,

 ----------------------------------------------------------------------
 #t hf aug-cc-pvdz symm=none int=(grid=ultrafine) guess=(read,tcheck) s
 table=opt
 ----------------------------------------------------------------------
 -----
 title
 -----
 Symbolic Z-matrix:
 Charge =  0 Multiplicity = 2

 SCF Done:  E(UHF) =  -25.7536787671     A.U. after   12 cycles
 Normal termination of Gaussian 16 at Tue Apr  8 23:17:45 2025.
 Gaussian 16:  ES64L-G16RevC.01  3-Jul-2019

 ----------------------------------------------------------------------
 #t hf aug-cc-pvdz iop(5/13=1,5/36=2,99/5=2) pseudo=read geom=check gue
 ss=(read,tcheck) scf=(maxcycle=1)
 ----------------------------------------------------------------------
 -----
 title
 -----
 Structure from the checkpoint file:  "BDE49_nonexpt_101_mol3.chk"
 Charge =  0 Multiplicity = 2

                         Standard orientation:
 ---------------------------------------------------------------------
 Center     Atomic      Atomic             Coordinates (Angstroms)
 Number     Number       Type             X           Y           Z
 ---------------------------------------------------------------------
      1          5           0        0.000000   -0.000000    0.144905
      2          1           0        0.000000    1.073879   -0.362263
      3          1           0       -0.000000   -1.073879   -0.362263
 ---------------------------------------------------------------------

 SCF Done:  E(UHF) =  -25.8599902795     A.U. after    2 cycles

 The electronic state is 2-A1.
 Alpha  occ. eigenvalues --   -7.65018  -0.82132  -0.51120  -0.31569
 Alpha virt. eigenvalues --    0.02272   0.04165   0.05143   0.05275   0.11193
 Alpha virt. eigenvalues --    0.11464   0.13738   0.24124   0.25009   0.25329
 Alpha virt. eigenvalues --    0.25524   0.25592   0.36079   0.36393   0.39328

  Beta  occ. eigenvalues --   -7.63262  -0.76519  -0.49958
  Beta virt. eigenvalues --    0.02878   0.03313   0.04212   0.05404   0.10449
  Beta virt. eigenvalues --    0.11623   0.13077   0.16539   0.25048   0.25276
  Beta virt. eigenvalues --    0.26939   0.27037   0.27996   0.36487   0.39913

 Mulliken charges and spin densities:
               1          2
     1  B    2.322738   1.047943
     2  H   -1.161369  -0.023971
     3  H   -1.161369  -0.023971
 Sum of Mulliken charges =   0.00000   1.00000

 Dipole moment (field-independent basis, Debye):
    X=              0.0000    Y=              0.0000    Z=             -0.5317  Tot=              0.5317
                          Isotropic Fermi Contact Couplings
        Atom                 a.u.       MegaHertz       Gauss      10(-4) cm-1
     1  B(11)              0.15607     223.85756      79.87794      74.67084
     2  H(1)               0.00329      14.72288       5.25349       4.91102
     3  H(1)               0.00329      14.72288       5.25349       4.91102
 --------------------------------------------------------
       Center         ----  Spin Dipole Couplings  ----
                      3XX-RR        3YY-RR        3ZZ-RR
 --------------------------------------------------------
     1   Atom       -0.201255     -0.182242      0.383497

 Normal termination of Gaussian 16 at Tue Apr  8 23:17:47 2025.
