 Gaussian 16, Revision C.01,

 ----------------------------------------------------------------------
 #t hf aug-cc-pvdz symm=none int=(grid=ultrafine) guess=(read,tcheck) s
 table=opt
 ----------------------------------------------------------------------
 -----
 title
 -----
 Symbolic Z-matrix:
 Charge =  0 Multiplicity = 2

 SCF Done:  E(UHF) =  -163.667248660     A.U. after   15 cycles
 Normal termination of Gaussian 16 at Wed Apr  9 00:34:57 2025.
 Gaussian 16:  ES64L-G16RevC.01  3-Jul-2019

 ----------------------------------------------------------------------
 #t hf aug-cc-pvdz iop(5/13=1,5/36=2,99/5=2) pseudo=read geom=check gue
 ss=(read,tcheck) scf=(maxcycle=1)
 ----------------------------------------------------------------------
 -----
 title
 -----
 Structure from the checkpoint file:  "BDE49_nonexpt_455_mol2.chk"
 Charge =  0 Multiplicity = 2

                         Standard orientation:
 ---------------------------------------------------------------------
 Center     Atomic      Atomic             Coordinates (Angstroms)
 Number     Number       Type             X           Y           Z
 ---------------------------------------------------------------------
      1          1           0       -1.778214   -1.308016   -0.000001
      2          5           0       -1.443235   -0.171452    0.000000
      3          6           0       -0.069989    0.514081    0.000000
      4          9           0        1.041367   -0.362396    0.000000
      5          1           0        0.021007    1.171178    0.877244
      6          1           0        0.021006    1.171177   -0.877244
 ---------------------------------------------------------------------

 SCF Done:  E(UHF) =  -164.291857599     A.U. after    2 cycles

 The electronic state is 2-A.
 Alpha  occ. eigenvalues --  -29.24673 -11.41295  -7.64710  -1.18063  -0.78693
 Alpha  occ. eigenvalues --   -0.68179  -0.63268  -0.52888  -0.39038  -0.30462
 Alpha  occ. eigenvalues --   -0.24774  -0.21663
 Alpha virt. eigenvalues --    0.02840   0.03361   0.04449   0.05693   0.06729
 Alpha virt. eigenvalues --    0.10517   0.11456   0.12007   0.14163   0.15864
 Alpha virt. eigenvalues --    0.17195   0.19901   0.24029   0.24649   0.26091

  Beta  occ. eigenvalues --  -29.24400 -11.41287  -7.62976  -1.16924  -0.74279
  Beta  occ. eigenvalues --   -0.67312  -0.63192  -0.51859  -0.36416  -0.24636
  Beta  occ. eigenvalues --   -0.24021
  Beta virt. eigenvalues --    0.02806   0.03225   0.04230   0.05517   0.07316
  Beta virt. eigenvalues --    0.09051   0.10709   0.12673   0.13894   0.15210
  Beta virt. eigenvalues --    0.17504   0.17614   0.20733   0.25309   0.25731

 Mulliken charges and spin densities:
               1          2
     1  H   -1.898516  -0.011561
     2  B    2.478089   1.024572
     3  C   -3.977038  -0.042808
     4  F    0.105804   0.035444
     5  H    1.645831  -0.002824
     6  H    1.645831  -0.002824
 Sum of Mulliken charges =  -0.00000   1.00000

 Dipole moment (field-independent basis, Debye):
    X=              1.5786    Y=             -0.6247    Z=             -0.0000  Tot=              1.6977
                          Isotropic Fermi Contact Couplings
        Atom                 a.u.       MegaHertz       Gauss      10(-4) cm-1
     1  H(1)               0.00485      21.66042       7.72898       7.22514
     2  B(11)              0.14015     201.02498      71.73071      67.05471
     3  C(13)              0.01353      15.21511       5.42913       5.07522
     4  F(19)              0.02490     104.77639      37.38682      34.94964
     5  H(1)              -0.00046      -2.05929      -0.73481      -0.68691
     6  H(1)              -0.00046      -2.05932      -0.73482      -0.68692
 --------------------------------------------------------
       Center         ----  Spin Dipole Couplings  ----

 Normal termination of Gaussian 16 at Wed Apr  9 00:34:59 2025.
