 Gaussian 16, Revision C.01,

 ----------------------------------------------------------------------
 #t hf aug-cc-pvdz symm=none int=(grid=ultrafine) guess=(read,tcheck) s
 table=(opt,rrhf)
 ----------------------------------------------------------------------
 -----
 title
 -----
 Symbolic Z-matrix:
 Charge =  0 Multiplicity = 1

 SCF Done:  E(RHF) =  -213.794556625     A.U. after   13 cycles
 Normal termination of Gaussian 16 at Tue Apr  8 22:58:36 2025.
 Gaussian 16:  ES64L-G16RevC.01  3-Jul-2019

 ----------------------------------------------------------------------
 #t hf aug-cc-pvdz iop(5/13=1,5/36=2,99/5=2) pseudo=read geom=check gue
 ss=(read,tcheck) scf=(maxcycle=1)
 ----------------------------------------------------------------------
 -----
 title
 -----
 Structure from the checkpoint file:  "BDE49_expt_1904_mol1.chk"
 Charge =  0 Multiplicity = 1

                         Standard orientation:
 ---------------------------------------------------------------------
 Center     Atomic      Atomic             Coordinates (Angstroms)
 Number     Number       Type             X           Y           Z
 ---------------------------------------------------------------------
      1          8           0        0.000000    0.626387    0.000000
      2          9           0        1.180668   -0.211367    0.000000
      3          6           0       -1.083950   -0.281348    0.000000
      4          1           0       -1.082840   -0.899745    0.901369
      5          1           0       -1.956637    0.378790    0.000000
      6          1           0       -1.082840   -0.899745   -0.901369
 ---------------------------------------------------------------------

 SCF Done:  E(RHF) =  -214.631898316     A.U. after    2 cycles

 The electronic state is 1-A'.
 Alpha  occ. eigenvalues --  -29.28312 -21.15434 -11.42980  -1.79938  -1.01299
 Alpha  occ. eigenvalues --   -0.72001  -0.65042  -0.60830  -0.51226  -0.44124
 Alpha  occ. eigenvalues --   -0.34770  -0.25897  -0.21613
 Alpha virt. eigenvalues --    0.03570   0.05815   0.06038   0.10735   0.14460
 Alpha virt. eigenvalues --    0.14862   0.16026   0.19040   0.21773   0.24529
 Alpha virt. eigenvalues --    0.25196   0.27766   0.27869   0.32217   0.33274

 Mulliken charges:
               1
     1  O   -1.288177
     2  F    0.044748
     3  C   -2.500225
     4  H    1.261030
     5  H    1.221593
     6  H    1.261030
 Sum of Mulliken charges =  -0.00000

 Dipole moment (field-independent basis, Debye):
    X=              0.0764    Y=             -0.9074    Z=             -0.0000  Tot=              0.9106

 Test job not archived.
 1\1\GINC-SE128\SP\RHF\Aug-CC-pVDZ\C1H3F1O1\OHZDE\08-Apr-2025\0\\#t hf
 aug-cc-pvdz iop(5/13=1,5/36=2,99/5=2) pseudo=read geom=check guess=(re
 ad,tcheck) scf=(maxcycle=1)\\title\\0,1\O,0,0.,0.626387,0.\F,0,1.18066
 8,-0.211368,0.\C,0,-1.08395,-0.281348,0.\H,0,-1.08284,-0.899745,0.9013
 69\H,0,-1.956637,0.37879,0.\H,0,-1.08284,-0.899745,-0.901369\\Version=
 ES64L-G16RevC.01\State=1-A'\HF=-214.6318983\RMSD=5.767e-02\Dipole=0.03
 00416,-0.3570056,0.\Quadrupole=0.73969,-0.5742296,-0.1654604,0.0936762
 ,0.,0.\PG=CS [SG(C1H1F1O1),X(H2)]\\@

 Normal termination of Gaussian 16 at Tue Apr  8 22:58:38 2025.
