 Gaussian 16, Revision C.01,

 ----------------------------------------------------------------------
 #t hf aug-cc-pvdz symm=none int=(grid=ultrafine) guess=(read,tcheck) s
 table=(opt,rrhf)
 ----------------------------------------------------------------------
 -----
 title
 -----
 Symbolic Z-matrix:
 Charge =  0 Multiplicity = 1

 SCF Done:  E(RHF) =  -805.932339072     A.U. after   12 cycles
 Normal termination of Gaussian 16 at Wed Apr  9 00:15:52 2025.
 Gaussian 16:  ES64L-G16RevC.01  3-Jul-2019

 ----------------------------------------------------------------------
 #t hf aug-cc-pvdz iop(5/13=1,5/36=2,99/5=2) pseudo=read geom=check gue
 ss=(read,tcheck) scf=(maxcycle=1)
 ----------------------------------------------------------------------
 -----
 title
 -----
 Structure from the checkpoint file:  "BDE49_nonexpt_2511_mol1.chk"
 Charge =  0 Multiplicity = 1

                         Standard orientation:
 ---------------------------------------------------------------------
 Center     Atomic      Atomic             Coordinates (Angstroms)
 Number     Number       Type             X           Y           Z
 ---------------------------------------------------------------------
      1         16           0        1.383456    0.053189   -0.716355
      2          6           0        2.042515   -0.902929    0.712878
      3          1           0        2.266030   -0.244236    1.552191
      4          1           0        2.967386   -1.368225    0.372733
      5          1           0        1.349212   -1.684468    1.022774
      6         14           0       -0.322737    1.022444    0.185074
      7          6           0       -1.718698   -0.150919    0.662863
      8          6           0       -2.352595   -0.922173   -0.506517
      9          1           0       -2.476312    0.457848    1.173603
     10          1           0       -1.342795   -0.848207    1.420843
     11          1           0       -2.782483   -0.240817   -1.246268
     12          1           0       -3.154552   -1.580317   -0.160157
     13          1           0       -1.613721   -1.540394   -1.022593
     14          1           0       -0.777348    1.977697   -0.852100
     15          1           0        0.120255    1.762002    1.394272
 ---------------------------------------------------------------------

 SCF Done:  E(RHF) =  -806.952454870     A.U. after    2 cycles

 The electronic state is 1-A.
 Alpha  occ. eigenvalues --  -76.22597 -75.66484 -13.08977 -13.05903 -13.02674
 Alpha  occ. eigenvalues --  -11.39927 -11.39583 -11.34929  -8.00581  -5.56174
 Alpha  occ. eigenvalues --   -2.19861  -2.18359  -2.18252  -1.17788  -1.14564
 Alpha  occ. eigenvalues --   -0.93832  -0.89335  -0.71802  -0.61357  -0.58944
 Alpha  occ. eigenvalues --   -0.58665  -0.57316  -0.51161  -0.49072  -0.47202
 Alpha  occ. eigenvalues --   -0.42179  -0.40749  -0.31582  -0.24888
 Alpha virt. eigenvalues --    0.02883   0.04104   0.04883   0.05128   0.06384
 Alpha virt. eigenvalues --    0.06479   0.06887   0.07228   0.07782   0.08631
 Alpha virt. eigenvalues --    0.09116   0.10413   0.11324   0.11762   0.12912

 Mulliken charges:
               1
     1  S   -1.058106
     2  C   -4.665060
     3  H    1.402364
     4  H    1.395651
     5  H    1.426641
     6  Si   6.415442
     7  C   -4.006485
     8  C   -3.566196
     9  H    1.393615
    10  H    1.410515
    11  H    1.285153
    12  H    1.178037
    13  H    1.279859
    14  H   -2.016865
    15  H   -1.874564
 Sum of Mulliken charges =   0.00000

 Dipole moment (field-independent basis, Debye):
    X=              0.5303    Y=             -1.2145    Z=             -0.3564  Tot=              1.3723

 Test job not archived.
 1\1\GINC-SE334\SP\RHF\Aug-CC-pVDZ\C3H10S1Si1\OHZDE\09-Apr-2025\0\\#t h
 f aug-cc-pvdz iop(5/13=1,5/36=2,99/5=2) pseudo=read geom=check guess=(
 read,tcheck) scf=(maxcycle=1)\\title\\0,1\S,0,1.383456,0.053189,-0.716
 355\C,0,2.042515,-0.902929,0.712878\H,0,2.26603,-0.244236,1.552191\H,0
 ,2.967386,-1.368225,0.372733\H,0,1.349212,-1.684468,1.022774\Si,0,-0.3
 22737,1.022444,0.185074\C,0,-1.718698,-0.150919,0.662863\C,0,-2.352595
 ,-0.922173,-0.506517\H,0,-2.476312,0.457848,1.173603\H,0,-1.342795,-0.
 848207,1.420843\H,0,-2.782483,-0.240817,-1.246268\H,0,-3.154552,-1.580

 Normal termination of Gaussian 16 at Wed Apr  9 00:15:56 2025.
