 Gaussian 16, Revision C.01,

 ----------------------------------------------------------------------
 #t hf aug-cc-pvdz symm=none int=(grid=ultrafine) guess=(read,tcheck) s
 table=opt
 ----------------------------------------------------------------------
 -----
 title
 -----
 Symbolic Z-matrix:
 Charge =  0 Multiplicity = 2

 SCF Done:  E(UHF) =  -908.369796227     A.U. after   19 cycles
 Normal termination of Gaussian 16 at Wed Apr  9 00:22:37 2025.
 Gaussian 16:  ES64L-G16RevC.01  3-Jul-2019

 ----------------------------------------------------------------------
 #t hf aug-cc-pvdz iop(5/13=1,5/36=2,99/5=2) pseudo=read geom=check gue
 ss=(read,tcheck) scf=(maxcycle=1)
 ----------------------------------------------------------------------
 -----
 title
 -----
 Structure from the checkpoint file:  "BDE49_nonexpt_2664_mol2.chk"
 Charge =  0 Multiplicity = 2

                         Standard orientation:
 ---------------------------------------------------------------------
 Center     Atomic      Atomic             Coordinates (Angstroms)
 Number     Number       Type             X           Y           Z
 ---------------------------------------------------------------------
      1         16           0       -1.524609   -0.525511   -0.000000
      2          6           0       -0.047260    0.443068   -0.000000
      3          8           0       -0.152221    1.642143   -0.000001
      4         16           0        1.550955   -0.360406    0.000001
      5          1           0        1.079782   -1.620891    0.000002
 ---------------------------------------------------------------------

 SCF Done:  E(UHF) =  -909.243991369     A.U. after    2 cycles

 The electronic state is 2-A.
 Alpha  occ. eigenvalues --  -75.75501 -75.73999 -21.08926 -13.17318 -13.16830
 Alpha  occ. eigenvalues --  -13.14443 -13.10166 -13.06235 -13.05353 -11.53346
 Alpha  occ. eigenvalues --   -8.09327  -8.08015  -1.75178  -1.23205  -1.13865
 Alpha  occ. eigenvalues --   -0.77085  -0.62379  -0.54652  -0.54016  -0.48616
 Alpha  occ. eigenvalues --   -0.32347  -0.28705  -0.28036  -0.27526
 Alpha virt. eigenvalues --    0.02078   0.06376   0.07261   0.08727   0.09522
 Alpha virt. eigenvalues --    0.11924   0.13328   0.14425   0.14968   0.15594
 Alpha virt. eigenvalues --    0.16132   0.17237   0.17562   0.19671   0.22542

  Beta  occ. eigenvalues --  -75.74486 -75.73985 -21.08778 -13.16905 -13.16730
  Beta  occ. eigenvalues --  -13.14233 -13.05698 -13.05261 -13.04118 -11.53455
  Beta  occ. eigenvalues --   -8.08251  -8.07940  -1.74853  -1.20952  -1.07895
  Beta  occ. eigenvalues --   -0.75483  -0.61130  -0.54003  -0.53413  -0.47663
  Beta  occ. eigenvalues --   -0.28348  -0.27045  -0.26789
  Beta virt. eigenvalues --    0.00931   0.03566   0.06632   0.07481   0.09161
  Beta virt. eigenvalues --    0.09484   0.12264   0.13430   0.15064   0.15520
  Beta virt. eigenvalues --    0.15651   0.17318   0.17398   0.18183   0.20381

 Mulliken charges and spin densities:
               1          2
     1  S    0.769318   1.106780
     2  C    0.524584  -0.086189
     3  O   -2.155581  -0.018701
     4  S   -0.270693   0.013536
     5  H    1.132372  -0.015426
 Sum of Mulliken charges =  -0.00000   1.00000

 Dipole moment (field-independent basis, Debye):
    X=              0.4826    Y=             -1.0158    Z=              0.0000  Tot=              1.1246
                          Isotropic Fermi Contact Couplings
        Atom                 a.u.       MegaHertz       Gauss      10(-4) cm-1
     1  S(33)              0.31022     106.55198      38.02040      35.54192
     2  C(13)             -0.01086     -12.20784      -4.35606      -4.07210
     3  O(17)              0.02219     -13.44930      -4.79904      -4.48620
     4  S(33)             -0.03376     -11.59542      -4.13754      -3.86782
     5  H(1)               0.00232      10.37522       3.70214       3.46080
 --------------------------------------------------------
       Center         ----  Spin Dipole Couplings  ----
                      3XX-RR        3YY-RR        3ZZ-RR

 Normal termination of Gaussian 16 at Wed Apr  9 00:22:39 2025.
