 Gaussian 16, Revision C.01,

 ----------------------------------------------------------------------
 #t hf aug-cc-pvdz symm=none int=(grid=ultrafine) guess=(read,tcheck) s
 table=opt
 ----------------------------------------------------------------------
 -----
 title
 -----
 Symbolic Z-matrix:
 Charge =  0 Multiplicity = 2

 SCF Done:  E(UHF) =  -2373.18729304     A.U. after   18 cycles
 Normal termination of Gaussian 16 at Tue Apr  8 22:41:48 2025.
 Gaussian 16:  ES64L-G16RevC.01  3-Jul-2019

 ----------------------------------------------------------------------
 #t hf aug-cc-pvdz iop(5/13=1,5/36=2,99/5=2) pseudo=read geom=check gue
 ss=(read,tcheck) scf=(maxcycle=1)
 ----------------------------------------------------------------------
 -----
 title
 -----
 Structure from the checkpoint file:  "BDE49_expt_131_mol2.chk"
 Charge =  0 Multiplicity = 2

                         Standard orientation:
 ---------------------------------------------------------------------
 Center     Atomic      Atomic             Coordinates (Angstroms)
 Number     Number       Type             X           Y           Z
 ---------------------------------------------------------------------
      1          6           0       -0.095519   -0.585477    0.000000
      2          6           0        0.446181    0.811463   -0.000000
      3         17           0        0.451010   -1.478350    1.454684
      4         17           0        0.451010   -1.478350   -1.454684
      5         17           0       -1.927803   -0.550649    0.000000
      6         17           0        0.451010    1.713795    1.455270
      7         17           0        0.451010    1.713795   -1.455270
 ---------------------------------------------------------------------

 SCF Done:  E(UHF) =  -2374.75241901     A.U. after    2 cycles

 The electronic state is 2-A'.
 Alpha  occ. eigenvalues --  -99.93666 -99.93655 -99.92881 -99.92870 -99.92376
 Alpha  occ. eigenvalues --  -11.59114 -11.51751 -10.51251 -10.51029 -10.50370
 Alpha  occ. eigenvalues --  -10.50127 -10.49596  -9.70955  -9.70801  -9.70253
 Alpha  occ. eigenvalues --   -9.70189  -9.70175  -9.70135  -9.70114  -9.70009
 Alpha  occ. eigenvalues --   -9.69699  -9.69320  -9.69264  -9.69235  -9.69158
 Alpha  occ. eigenvalues --   -9.68685  -9.68649  -1.51359  -1.40253  -1.33256
 Alpha  occ. eigenvalues --   -1.31908  -1.31590  -1.10199  -0.91273  -0.75386
 Alpha  occ. eigenvalues --   -0.75308  -0.75027  -0.65753  -0.65207  -0.58218
 Alpha  occ. eigenvalues --   -0.57590  -0.56283  -0.56073  -0.54329  -0.52085
 Alpha  occ. eigenvalues --   -0.51758  -0.51195  -0.50137  -0.40086
 Alpha virt. eigenvalues --   -0.01005   0.02477   0.03995   0.04528   0.06087
 Alpha virt. eigenvalues --    0.08060   0.08845   0.09776   0.09869   0.12282
 Alpha virt. eigenvalues --    0.13144   0.13316   0.14052   0.15501   0.15553

  Beta  occ. eigenvalues --  -99.93635 -99.93624 -99.92865 -99.92854 -99.92245
  Beta  occ. eigenvalues --  -11.59305 -11.49193 -10.51216 -10.50995 -10.50348
  Beta  occ. eigenvalues --  -10.50109 -10.49461  -9.71232  -9.71073  -9.70187
  Beta  occ. eigenvalues --   -9.70110  -9.70095  -9.69963  -9.69775  -9.69755
  Beta  occ. eigenvalues --   -9.69316  -9.69297  -9.69220  -9.69165  -9.69100
  Beta  occ. eigenvalues --   -9.68588  -9.68578  -1.49926  -1.39372  -1.32976
  Beta  occ. eigenvalues --   -1.31767  -1.30736  -1.07119  -0.88233  -0.74668
  Beta  occ. eigenvalues --   -0.74604  -0.71665  -0.65255  -0.61218  -0.57714
  Beta  occ. eigenvalues --   -0.57283  -0.55640  -0.54440  -0.53767  -0.51647
  Beta  occ. eigenvalues --   -0.51129  -0.51069  -0.50063
  Beta virt. eigenvalues --   -0.02068  -0.00103   0.04029   0.04099   0.04641
  Beta virt. eigenvalues --    0.07603   0.08304   0.08917   0.09859   0.10149
  Beta virt. eigenvalues --    0.12527   0.13248   0.13610   0.14502   0.15743

 Mulliken charges and spin densities:
               1          2
     1  C   -1.337634  -0.322863
     2  C    0.041100   1.280904
     3  Cl   0.337535   0.003523
     4  Cl   0.337535   0.003523
     5  Cl   0.266929   0.093368
     6  Cl   0.177267  -0.029227
     7  Cl   0.177267  -0.029227
 Sum of Mulliken charges =   0.00000   1.00000

 Dipole moment (field-independent basis, Debye):
    X=              0.4536    Y=              0.3568    Z=              0.0000  Tot=              0.5770
                          Isotropic Fermi Contact Couplings
        Atom                 a.u.       MegaHertz       Gauss      10(-4) cm-1
     1  C(13)             -0.03578     -40.21896     -14.35113     -13.41560
     2  C(13)              0.22040     247.77488      88.41224      82.64880
     3  Cl(35)             0.00459       2.01223       0.71801       0.67121
     4  Cl(35)             0.00459       2.01223       0.71801       0.67121
     5  Cl(35)             0.03132      13.73123       4.89964       4.58025
     6  Cl(35)             0.04583      20.09499       7.17039       6.70297
     7  Cl(35)             0.04583      20.09499       7.17039       6.70297
 --------------------------------------------------------

 Normal termination of Gaussian 16 at Tue Apr  8 22:41:52 2025.
