 Gaussian 16, Revision C.01,

 ----------------------------------------------------------------------
 #t hf aug-cc-pvdz symm=none int=(grid=ultrafine) guess=(read,tcheck) s
 table=(opt,rrhf)
 ----------------------------------------------------------------------
 -----
 title
 -----
 Symbolic Z-matrix:
 Charge =  0 Multiplicity = 1

 SCF Done:  E(RHF) =  -1300.95758166     A.U. after   13 cycles
 Normal termination of Gaussian 16 at Tue Apr  8 23:46:14 2025.
 Gaussian 16:  ES64L-G16RevC.01  3-Jul-2019

 ----------------------------------------------------------------------
 #t hf aug-cc-pvdz iop(5/13=1,5/36=2,99/5=2) pseudo=read geom=check gue
 ss=(read,tcheck) scf=(maxcycle=1)
 ----------------------------------------------------------------------
 -----
 title
 -----
 Structure from the checkpoint file:  "BDE49_nonexpt_1762_mol1.chk"
 Charge =  0 Multiplicity = 1

                         Standard orientation:
 ---------------------------------------------------------------------
 Center     Atomic      Atomic             Coordinates (Angstroms)
 Number     Number       Type             X           Y           Z
 ---------------------------------------------------------------------
      1          6           0       -1.754253   -0.003662   -0.003840
      2         14           0        0.007452   -0.000066    0.530869
      3          7           0       -2.868418   -0.005447   -0.309814
      4         17           0        0.891253    1.689868   -0.212682
      5         17           0        0.898307   -1.686282   -0.212732
      6          1           0        0.077597    0.000074    1.991615
 ---------------------------------------------------------------------

 SCF Done:  E(RHF) =  -1301.98795612     A.U. after    2 cycles

 The electronic state is 1-A.
 Alpha  occ. eigenvalues --  -99.92495 -99.92495 -76.35528 -15.80106 -11.42404
 Alpha  occ. eigenvalues --  -10.50007 -10.49963  -9.69835  -9.69817  -9.69221
 Alpha  occ. eigenvalues --   -9.69168  -9.69141  -9.69067  -5.69140  -2.32141
 Alpha  occ. eigenvalues --   -2.31433  -2.30565  -1.35145  -1.32013  -1.31854
 Alpha  occ. eigenvalues --   -0.88443  -0.69097  -0.62678  -0.62176  -0.58851
 Alpha  occ. eigenvalues --   -0.57047  -0.54902  -0.54850  -0.51207  -0.48059
 Alpha  occ. eigenvalues --   -0.47951
 Alpha virt. eigenvalues --    0.03863   0.04438   0.04778   0.05517   0.07127
 Alpha virt. eigenvalues --    0.08655   0.09160   0.10073   0.11139   0.11805
 Alpha virt. eigenvalues --    0.12826   0.13685   0.13889   0.15542   0.16372

 Mulliken charges:
               1
     1  C    0.763384
     2  Si   4.788404
     3  N   -2.095266
     4  Cl  -0.795702
     5  Cl  -0.795740
     6  H   -1.865080
 Sum of Mulliken charges =   0.00000

 Dipole moment (field-independent basis, Debye):
    X=              1.3908    Y=              0.0025    Z=              1.1547  Tot=              1.8077

 Test job not archived.
 1\1\GINC-SE343\SP\RHF\Aug-CC-pVDZ\C1H1Cl2N1Si1\OHZDE\08-Apr-2025\0\\#t
  hf aug-cc-pvdz iop(5/13=1,5/36=2,99/5=2) pseudo=read geom=check guess
 =(read,tcheck) scf=(maxcycle=1)\\title\\0,1\C,0,1.754253,0.003667,-0.0
 0384\Si,0,-0.007452,0.000066,0.530869\N,0,2.868418,0.005455,-0.309814\
 Cl,0,-0.891248,-1.68987,-0.212682\Cl,0,-0.898312,1.68628,-0.212732\H,0
 ,-0.077597,-0.000074,1.991615\\Version=ES64L-G16RevC.01\State=1-A\HF=-
 1301.9879561\RMSD=7.506e-02\Dipole=-0.5471974,-0.0009903,0.4543087\Qua
 drupole=-3.633798,1.8477957,1.7860022,-0.0104065,1.061503,0.002194\PG=

 Normal termination of Gaussian 16 at Tue Apr  8 23:46:16 2025.
