 Gaussian 16, Revision C.01,

 ----------------------------------------------------------------------
 #t hf aug-cc-pvdz symm=none int=(grid=ultrafine) guess=(read,tcheck) s
 table=(opt,rrhf)
 ----------------------------------------------------------------------
 -----
 title
 -----
 Symbolic Z-matrix:
 Charge =  0 Multiplicity = 1

 SCF Done:  E(RHF) =  -932.909175902     A.U. after   14 cycles
 Normal termination of Gaussian 16 at Wed Apr  9 00:22:36 2025.
 Gaussian 16:  ES64L-G16RevC.01  3-Jul-2019

 ----------------------------------------------------------------------
 #t hf aug-cc-pvdz iop(5/13=1,5/36=2,99/5=2) pseudo=read geom=check gue
 ss=(read,tcheck) scf=(maxcycle=1)
 ----------------------------------------------------------------------
 -----
 title
 -----
 Structure from the checkpoint file:  "BDE49_nonexpt_2665_mol1.chk"
 Charge =  0 Multiplicity = 1

                         Standard orientation:
 ---------------------------------------------------------------------
 Center     Atomic      Atomic             Coordinates (Angstroms)
 Number     Number       Type             X           Y           Z
 ---------------------------------------------------------------------
      1          9           0        2.214297    0.432801    0.000003
      2         16           0        0.861196   -0.543503   -0.000003
      3          6           0       -0.420182    0.574790    0.000004
      4         16           0       -1.940589   -0.017281   -0.000001
      5          1           0       -0.137302    1.628598    0.000010
 ---------------------------------------------------------------------

 SCF Done:  E(RHF) =  -933.866722869     A.U. after    2 cycles

 The electronic state is 1-A.
 Alpha  occ. eigenvalues --  -75.80502 -75.69750 -29.30205 -13.24981 -13.21048
 Alpha  occ. eigenvalues --  -13.14437 -13.10813 -13.02339 -13.00478 -11.50559
 Alpha  occ. eigenvalues --   -8.14716  -8.03855  -1.33651  -1.14378  -0.87408
 Alpha  occ. eigenvalues --   -0.74030  -0.54124  -0.51019  -0.49073  -0.37553
 Alpha  occ. eigenvalues --   -0.36658  -0.32140  -0.24069  -0.19111
 Alpha virt. eigenvalues --    0.03055   0.05052   0.05948   0.07118   0.10607
 Alpha virt. eigenvalues --    0.12465   0.12924   0.14503   0.15168   0.16312
 Alpha virt. eigenvalues --    0.17122   0.18421   0.18931   0.22632   0.24604

 Mulliken charges:
               1
     1  F   -0.189705
     2  S    1.591957
     3  C   -3.968149
     4  S    1.306263
     5  H    1.259635
 Sum of Mulliken charges =  -0.00000

 Dipole moment (field-independent basis, Debye):
    X=              2.7135    Y=              0.0210    Z=             -0.0000  Tot=              2.7136

 Test job not archived.
 1\1\GINC-SE455\SP\RHF\Aug-CC-pVDZ\C1H1F1S2\OHZDE\09-Apr-2025\0\\#t hf
 aug-cc-pvdz iop(5/13=1,5/36=2,99/5=2) pseudo=read geom=check guess=(re
 ad,tcheck) scf=(maxcycle=1)\\title\\0,1\F,0,2.214297,0.432801,0.000003
 \S,0,0.861196,-0.543503,-0.000003\C,0,-0.420182,0.57479,0.000004\S,0,-
 1.940589,-0.017281,-0.000001\H,0,-0.137302,1.628598,0.00001\\Version=E
 S64L-G16RevC.01\State=1-A\HF=-933.8667229\RMSD=1.471e-01\Dipole=1.0675
 761,0.0082441,-0.0000013\Quadrupole=5.3404191,-1.6262431,-3.714176,1.4
 919695,0.0000143,0.0000143\PG=C01 [X(C1H1F1S2)]\\@

 Normal termination of Gaussian 16 at Wed Apr  9 00:22:38 2025.
