 Gaussian 16, Revision C.01,

 ----------------------------------------------------------------------
 #t hf aug-cc-pvdz symm=none int=(grid=ultrafine) guess=(read,tcheck) s
 table=(opt,rrhf)
 ----------------------------------------------------------------------
 -----
 title
 -----
 Symbolic Z-matrix:
 Charge =  0 Multiplicity = 1

 SCF Done:  E(RHF) =  -845.005889255     A.U. after   12 cycles
 Normal termination of Gaussian 16 at Wed Apr  9 00:15:07 2025.
 Gaussian 16:  ES64L-G16RevC.01  3-Jul-2019

 ----------------------------------------------------------------------
 #t hf aug-cc-pvdz iop(5/13=1,5/36=2,99/5=2) pseudo=read geom=check gue
 ss=(read,tcheck) scf=(maxcycle=1)
 ----------------------------------------------------------------------
 -----
 title
 -----
 Structure from the checkpoint file:  "BDE49_nonexpt_2472_mol1.chk"
 Charge =  0 Multiplicity = 1

                         Standard orientation:
 ---------------------------------------------------------------------
 Center     Atomic      Atomic             Coordinates (Angstroms)
 Number     Number       Type             X           Y           Z
 ---------------------------------------------------------------------
      1         14           0        0.265513   -0.391203   -0.007862
      2          6           0       -1.455713   -0.412524   -0.778894
      3          6           0       -2.560125    0.337948   -0.013934
      4          1           0       -1.734816   -1.468366   -0.893838
      5          1           0       -1.371731   -0.019129   -1.798943
      6          1           0       -2.324287    1.399657    0.093929
      7          1           0       -2.700603   -0.068847    0.991351
      8         16           0        0.871362    1.712281   -0.028917
      9          1           0        2.047845    1.516239    0.592562
     10          6           0        1.452455   -1.414291   -1.045184
     11          1           0        2.469670   -1.368601   -0.645667
     12          1           0        1.482589   -1.055313   -2.077051
     13          1           0        1.146617   -2.466054   -1.057650
     14          6           0        0.247694   -1.033932    1.758523
     15          1           0       -0.095247   -2.073946    1.785376
     16          1           0       -0.413222   -0.439357    2.393529
     17          1           0        1.248792   -1.004061    2.198509
     18          1           0       -3.520445    0.264920   -0.532441
 ---------------------------------------------------------------------

 SCF Done:  E(RHF) =  -846.234785028     A.U. after    2 cycles

 The electronic state is 1-A.
 Alpha  occ. eigenvalues --  -76.21371 -75.67020 -13.14588 -13.06994 -13.04068
 Alpha  occ. eigenvalues --  -11.39536 -11.35004 -11.34878 -11.34630  -8.00940
 Alpha  occ. eigenvalues --   -5.55341  -2.19199  -2.18796  -2.17432  -1.15979
 Alpha  occ. eigenvalues --   -1.09090  -1.04376  -1.01203  -0.88804  -0.65698
 Alpha  occ. eigenvalues --   -0.61173  -0.57503  -0.56684  -0.56089  -0.55018
 Alpha  occ. eigenvalues --   -0.54329  -0.49707  -0.49318  -0.48164  -0.40277
 Alpha  occ. eigenvalues --   -0.37530  -0.32109  -0.25887
 Alpha virt. eigenvalues --    0.02522   0.04495   0.05257   0.05625   0.06097
 Alpha virt. eigenvalues --    0.06394   0.06600   0.06791   0.07140   0.07999
 Alpha virt. eigenvalues --    0.08387   0.09078   0.09810   0.10032   0.10108

 Mulliken charges:
               1
     1  Si   8.800915
     2  C   -4.288122
     3  C   -4.047097
     4  H    1.242410
     5  H    1.213042
     6  H    1.272976
     7  H    1.318111
     8  S   -3.162929
     9  H    0.961025
    10  C   -5.784171
    11  H    1.188154
    12  H    1.234449
    13  H    1.233324
    14  C   -5.845833
    15  H    1.190805
    16  H    1.190627
    17  H    1.154320
    18  H    1.127993
 Sum of Mulliken charges =  -0.00000

 Dipole moment (field-independent basis, Debye):
    X=             -0.9859    Y=              0.1794    Z=             -0.4963  Tot=              1.1182

 Test job not archived.
 1\1\GINC-SE340\SP\RHF\Aug-CC-pVDZ\C4H12S1Si1\OHZDE\09-Apr-2025\0\\#t h
 f aug-cc-pvdz iop(5/13=1,5/36=2,99/5=2) pseudo=read geom=check guess=(
 read,tcheck) scf=(maxcycle=1)\\title\\0,1\Si,0,0.265513,-0.391203,-0.0
 07862\C,0,-1.455713,-0.412523,-0.778894\C,0,-2.560125,0.33795,-0.01393
 4\H,0,-1.734817,-1.468365,-0.893838\H,0,-1.371731,-0.019128,-1.798943\
 H,0,-2.324286,1.399659,0.093929\H,0,-2.700603,-0.068845,0.991351\S,0,0
 .871363,1.71228,-0.028917\H,0,2.047846,1.516238,0.592562\C,0,1.452454,
 -1.414292,-1.045184\H,0,2.469669,-1.368603,-0.645667\H,0,1.482588,-1.0

 Normal termination of Gaussian 16 at Wed Apr  9 00:15:13 2025.
