 Gaussian 16, Revision C.01,

 ----------------------------------------------------------------------
 #t hf aug-cc-pvdz symm=none int=(grid=ultrafine) guess=(read,tcheck) s
 table=(opt,rrhf)
 ----------------------------------------------------------------------
 -----
 title
 -----
 Symbolic Z-matrix:
 Charge =  0 Multiplicity = 1

 SCF Done:  E(RHF) =  -720.900832134     A.U. after   18 cycles
 Normal termination of Gaussian 16 at Tue Apr  8 23:09:11 2025.
 Gaussian 16:  ES64L-G16RevC.01  3-Jul-2019

 ----------------------------------------------------------------------
 #t hf aug-cc-pvdz iop(5/13=1,5/36=2,99/5=2) pseudo=read geom=check gue
 ss=(read,tcheck) scf=(maxcycle=1)
 ----------------------------------------------------------------------
 -----
 title
 -----
 Structure from the checkpoint file:  "BDE49_expt_1771_mol1.chk"
 Charge =  0 Multiplicity = 1

                         Standard orientation:
 ---------------------------------------------------------------------
 Center     Atomic      Atomic             Coordinates (Angstroms)
 Number     Number       Type             X           Y           Z
 ---------------------------------------------------------------------
      1          6           0       -3.542653    0.848805   -0.808815
      2          6           0       -3.849682   -0.507669   -0.730862
      3          6           0       -2.885762   -1.401770   -0.285791
      4          6           0       -2.273281    1.281968   -0.457030
      5          6           0       -1.305223    0.376826   -0.001465
      6          6           0       -1.601337   -0.993352    0.100712
      7          1           0       -4.280270    1.563514   -1.154485
      8          1           0       -4.833282   -0.866058   -1.011795
      9          1           0       -3.131480   -2.456856   -0.216031
     10          1           0       -2.009921    2.328992   -0.525211
     11          6           0        1.573085   -0.914276    0.394314
     12          6           0        1.211814    0.347652   -0.084656
     13          7           0       -0.029858    0.917540    0.360170
     14          7           0       -0.072464    2.048484    1.135252
     15          8           0        1.000270    2.541581    1.396175
     16          6           0        2.781113   -1.464498   -0.039387
     17          6           0        3.612737   -0.763953   -0.909156
     18          6           0        3.241847    0.499321   -1.365437
     19          6           0        2.036560    1.058443   -0.953792
     20          1           0        3.073597   -2.447077    0.315953
     21          1           0        4.551084   -1.202626   -1.229061
     22          1           0        3.888167    1.048535   -2.039951
     23          1           0        1.735835    2.040186   -1.295992
     24          6           0       -0.657903   -2.079773    0.596775
     25          6           0        0.629709   -1.642547    1.314642
     26          1           0       -0.377919   -2.709711   -0.256652
     27          1           0       -1.229486   -2.725223    1.271538
     28          1           0        0.378803   -1.007148    2.170452
     29          1           0        1.122826   -2.532417    1.713571
 ---------------------------------------------------------------------

 SCF Done:  E(RHF) =  -724.283369182     A.U. after    2 cycles

 The electronic state is 1-A.
 Alpha  occ. eigenvalues --  -21.08771 -15.88467 -15.78233 -11.55388 -11.53878
 Alpha  occ. eigenvalues --  -11.48348 -11.47910 -11.46991 -11.45382 -11.44872
 Alpha  occ. eigenvalues --  -11.42659 -11.42363 -11.42053 -11.41836 -11.40519
 Alpha  occ. eigenvalues --  -11.37897 -11.37284  -1.86478  -1.50940  -1.34570
 Alpha  occ. eigenvalues --   -1.32545  -1.20960  -1.12385  -1.11694  -1.08604
 Alpha  occ. eigenvalues --   -1.05473  -0.95111  -0.94606  -0.87769  -0.86804
 Alpha  occ. eigenvalues --   -0.83152  -0.79560  -0.72473  -0.69667  -0.67437
 Alpha  occ. eigenvalues --   -0.66286  -0.65548  -0.63511  -0.61868  -0.60223
 Alpha  occ. eigenvalues --   -0.58487  -0.57968  -0.56437  -0.53726  -0.53282
 Alpha  occ. eigenvalues --   -0.52429  -0.51426  -0.50119  -0.48368  -0.46640
 Alpha  occ. eigenvalues --   -0.44421  -0.43683  -0.42988  -0.38610  -0.33473
 Alpha  occ. eigenvalues --   -0.33175  -0.32304  -0.28550  -0.27835
 Alpha virt. eigenvalues --    0.03351   0.04651   0.04753   0.05057   0.05278
 Alpha virt. eigenvalues --    0.05533   0.05886   0.06443   0.06726   0.07478
 Alpha virt. eigenvalues --    0.08011   0.08534   0.09759   0.09948   0.10081

 Mulliken charges:
               1
     1  C   -1.277413
     2  C   -2.955118
     3  C   -2.373989
     4  C   -2.992293
     5  C    3.030415
     6  C    3.784175
     7  H    1.556078
     8  H    1.539255
     9  H    1.787201
    10  H    1.985179
    11  C    3.960382
    12  C    1.370870
    13  N   -4.225446
    14  N    0.740233
    15  O   -2.161435
    16  C   -2.047881
    17  C   -2.257995
    18  C   -1.052792
    19  C   -2.788769
    20  H    1.781443
    21  H    1.581331
    22  H    1.590568
    23  H    1.955871
    24  C   -2.696964
    25  C   -4.555801
    26  H    1.311985
    27  H    1.177686
    28  H    1.118302
    29  H    1.114922
 Sum of Mulliken charges =   0.00000

 Dipole moment (field-independent basis, Debye):
    X=              0.4071    Y=             -2.0287    Z=             -1.0592  Tot=              2.3245

 Test job not archived.
 1\1\GINC-SE328\SP\RHF\Aug-CC-pVDZ\C14H12N2O1\OHZDE\08-Apr-2025\0\\#t h
 f aug-cc-pvdz iop(5/13=1,5/36=2,99/5=2) pseudo=read geom=check guess=(
 read,tcheck) scf=(maxcycle=1)\\title\\0,1\C,0,-3.542653,0.848805,-0.80
 8815\C,0,-3.849682,-0.507669,-0.730862\C,0,-2.885762,-1.40177,-0.28579
 1\C,0,-2.273281,1.281968,-0.45703\C,0,-1.305223,0.376826,-0.001465\C,0
 ,-1.601337,-0.993352,0.100712\H,0,-4.28027,1.563514,-1.154485\H,0,-4.8
 33282,-0.866058,-1.011795\H,0,-3.13148,-2.456856,-0.216031\H,0,-2.0099
 21,2.328992,-0.525211\C,0,1.573085,-0.914276,0.394314\C,0,1.211814,0.3

 Normal termination of Gaussian 16 at Tue Apr  8 23:09:52 2025.
