 Gaussian 16, Revision C.01,

 ----------------------------------------------------------------------
 #t hf aug-cc-pvdz symm=none int=(grid=ultrafine) guess=(read,tcheck) s
 table=(opt,rrhf)
 ----------------------------------------------------------------------
 -----
 title
 -----
 Symbolic Z-matrix:
 Charge =  0 Multiplicity = 1

 SCF Done:  E(RHF) =  -388.330327296     A.U. after   12 cycles

 1\1\GINC-SE423\Stability\RHF\Aug-CC-pVDZ\C8H18O1\OHZDE\08-Apr-2025\0\\
 #t hf aug-cc-pvdz symm=none int=(grid=ultrafine) guess=(read,tcheck) s
 table=(opt,rrhf)\\title\\0,1\O,0,-0.347337,-0.060091,-0.333082\C,0,-1.
 75403,-0.160284,-0.023991\C,0,-1.972406,-0.36691,1.482895\H,0,-1.69616
 6,0.517754,2.061539\H,0,-1.376942,-1.211739,1.837704\C,0,-2.518529,1.0
 7483,-0.525104\H,0,-3.595775,0.923712,-0.416583\H,0,-2.300943,1.250083
 ,-1.581762\H,0,-2.255412,1.974679,0.036052\C,0,-2.197621,-1.404942,-0.
 797389\H,0,-1.633578,-2.277407,-0.460211\H,0,-2.008383,-1.269629,-1.86

 Normal termination of Gaussian 16 at Tue Apr  8 22:45:18 2025.
 Gaussian 16:  ES64L-G16RevC.01  3-Jul-2019

 ----------------------------------------------------------------------
 #t hf aug-cc-pvdz iop(5/13=1,5/36=2,99/5=2) pseudo=read geom=check gue
 ss=(read,tcheck) scf=(maxcycle=1)
 ----------------------------------------------------------------------
 -----
 title
 -----
 Structure from the checkpoint file:  "BDE49_expt_1390_mol1.chk"
 Charge =  0 Multiplicity = 1

                         Standard orientation:
 ---------------------------------------------------------------------
 Center     Atomic      Atomic             Coordinates (Angstroms)
 Number     Number       Type             X           Y           Z
 ---------------------------------------------------------------------
      1          8           0        0.347337    0.060091   -0.333082
      2          6           0        1.754030    0.160284   -0.023991
      3          6           0        1.972406    0.366910    1.482895
      4          1           0        1.696166   -0.517754    2.061539
      5          1           0        1.376942    1.211739    1.837704
      6          6           0        2.518529   -1.074830   -0.525104
      7          1           0        3.595775   -0.923712   -0.416583
      8          1           0        2.300943   -1.250083   -1.581762
      9          1           0        2.255412   -1.974679    0.036052
     10          6           0        2.197621    1.404942   -0.797389
     11          1           0        1.633578    2.277407   -0.460211
     12          1           0        2.008383    1.269629   -1.864528
     13          1           0        3.263298    1.598004   -0.650556
     14          1           0        3.025316    0.577507    1.688655
     15          6           0       -0.397198   -1.026882    0.200492
     16          6           0       -1.847938   -0.862656   -0.238317
     17          1           0       -0.340888   -1.043182    1.298328
     18          1           0       -0.007938   -1.985552   -0.167193
     19          6           0       -2.526540    0.394131    0.316649
     20          1           0       -2.402602   -1.755364    0.077152
     21          1           0       -1.876025   -0.843686   -1.333858
     22          6           0       -3.973913    0.550940   -0.156838
     23          1           0       -1.940247    1.267977    0.020529
     24          1           0       -2.500955    0.361026    1.413214
     25          1           0       -4.026643    0.619969   -1.247945
     26          1           0       -4.432296    1.454620    0.254213
     27          1           0       -4.588902   -0.301618    0.149517
 ---------------------------------------------------------------------

 SCF Done:  E(RHF) =  -390.288829468     A.U. after    2 cycles

 The electronic state is 1-A.
 Alpha  occ. eigenvalues --  -21.02199 -11.45388 -11.43523 -11.40066 -11.39076
 Alpha  occ. eigenvalues --  -11.38811 -11.37228 -11.34687 -11.33957  -1.73999
 Alpha  occ. eigenvalues --   -1.23212  -1.18696  -1.04591  -1.01088  -1.00284
 Alpha  occ. eigenvalues --   -0.90099  -0.82026  -0.76726  -0.64976  -0.63677
 Alpha  occ. eigenvalues --   -0.61705  -0.60887  -0.59905  -0.57319  -0.54427
 Alpha  occ. eigenvalues --   -0.54269  -0.53604  -0.51238  -0.50263  -0.47996
 Alpha  occ. eigenvalues --   -0.45678  -0.45273  -0.45018  -0.43028  -0.40735
 Alpha  occ. eigenvalues --   -0.34793  -0.28366
 Alpha virt. eigenvalues --    0.04202   0.04539   0.04743   0.04936   0.05284
 Alpha virt. eigenvalues --    0.05420   0.05653   0.06427   0.06658   0.07119
 Alpha virt. eigenvalues --    0.07583   0.07739   0.08401   0.09066   0.09406

 Mulliken charges:
               1
     1  O   -4.280037
     2  C    4.587249
     3  C   -4.448564
     4  H    1.435967
     5  H    1.376105
     6  C   -4.487819
     7  H    1.171885
     8  H    1.289582
     9  H    1.462430
    10  C   -4.507673
    11  H    1.333996
    12  H    1.352968
    13  H    1.178971
    14  H    1.160782
    15  C   -2.193535
    16  C   -3.015519
    17  H    1.980226
    18  H    1.636381
    19  C   -2.843386
    20  H    1.384107
    21  H    1.649081
    22  C   -4.144817
    23  H    1.749943
    24  H    1.471547
    25  H    1.302121
    26  H    1.080394
    27  H    1.317616
 Sum of Mulliken charges =  -0.00000

 Dipole moment (field-independent basis, Debye):
    X=              0.3439    Y=             -0.1325    Z=              0.1900  Tot=              0.4146

 Test job not archived.
 1\1\GINC-SE423\SP\RHF\Aug-CC-pVDZ\C8H18O1\OHZDE\08-Apr-2025\0\\#t hf a
 ug-cc-pvdz iop(5/13=1,5/36=2,99/5=2) pseudo=read geom=check guess=(rea
 d,tcheck) scf=(maxcycle=1)\\title\\0,1\O,0,-0.347337,-0.060091,-0.3330
 82\C,0,-1.75403,-0.160284,-0.023991\C,0,-1.972406,-0.36691,1.482895\H,
 0,-1.696166,0.517754,2.061539\H,0,-1.376942,-1.211739,1.837704\C,0,-2.
 518529,1.07483,-0.525104\H,0,-3.595775,0.923712,-0.416583\H,0,-2.30094
 3,1.250083,-1.581762\H,0,-2.255412,1.974679,0.036052\C,0,-2.197621,-1.
 404942,-0.797389\H,0,-1.633578,-2.277407,-0.460211\H,0,-2.008383,-1.26

 Normal termination of Gaussian 16 at Tue Apr  8 22:45:35 2025.
