 Gaussian 16, Revision C.01,

 ----------------------------------------------------------------------
 #t hf aug-cc-pvdz symm=none int=(grid=ultrafine) guess=(read,tcheck) s
 table=(opt,rrhf)
 ----------------------------------------------------------------------
 -----
 title
 -----
 Symbolic Z-matrix:
 Charge =  0 Multiplicity = 1

 SCF Done:  E(RHF) =  -754.923126990     A.U. after   15 cycles
 Normal termination of Gaussian 16 at Tue Apr  8 23:32:53 2025.
 Gaussian 16:  ES64L-G16RevC.01  3-Jul-2019

 ----------------------------------------------------------------------
 #t hf aug-cc-pvdz iop(5/13=1,5/36=2,99/5=2) pseudo=read geom=check gue
 ss=(read,tcheck) scf=(maxcycle=1)
 ----------------------------------------------------------------------
 -----
 title
 -----
 Structure from the checkpoint file:  "BDE49_nonexpt_1399_mol1.chk"
 Charge =  0 Multiplicity = 1

                         Standard orientation:
 ---------------------------------------------------------------------
 Center     Atomic      Atomic             Coordinates (Angstroms)
 Number     Number       Type             X           Y           Z
 ---------------------------------------------------------------------
      1          6           0        1.313352   -0.483755   -0.116141
      2         15           0        0.011924   -1.834847   -0.155255
      3          6           0       -1.294256   -0.520279    0.147119
      4          7           0       -0.706818    0.731165    0.098797
      5          7           0        0.692685    0.754790   -0.159320
      6          8           0       -2.487954   -0.702217    0.248252
      7          8           0        2.512869   -0.640281   -0.064091
      8          6           0        1.419667    1.930412    0.313925
      9          1           0        1.170505    2.808328   -0.282904
     10          1           0        2.477395    1.704366    0.199514
     11          1           0        1.198275    2.124695    1.368830
     12          6           0       -1.481612    1.890518   -0.329689
     13          1           0       -2.528600    1.612372   -0.228663
     14          1           0       -1.261785    2.136276   -1.373919
     15          1           0       -1.279489    2.756932    0.301832
     16          1           0        0.201539   -2.183343    1.203221
 ---------------------------------------------------------------------

 SCF Done:  E(RHF) =  -756.934728435     A.U. after    2 cycles

 The electronic state is 1-A.
 Alpha  occ. eigenvalues -- -105.21566 -21.05726 -21.05519 -15.79662 -15.79041
 Alpha  occ. eigenvalues --  -11.51623 -11.50459 -11.42319 -11.41885  -2.79658
 Alpha  occ. eigenvalues --   -1.74531  -1.72839  -1.58128  -1.50421  -1.49438
 Alpha  occ. eigenvalues --   -1.47943  -1.28225  -1.08145  -0.99224  -0.88803
 Alpha  occ. eigenvalues --   -0.78698  -0.69677  -0.67962  -0.64844  -0.62212
 Alpha  occ. eigenvalues --   -0.60285  -0.59542  -0.55786  -0.52323  -0.51580
 Alpha  occ. eigenvalues --   -0.51202  -0.45543  -0.39737  -0.38882  -0.27460
 Alpha  occ. eigenvalues --   -0.23299  -0.16785  -0.05208
 Alpha virt. eigenvalues --    0.03351   0.05196   0.05290   0.05543   0.06464
 Alpha virt. eigenvalues --    0.07217   0.08115   0.08342   0.08777   0.09570
 Alpha virt. eigenvalues --    0.10659   0.11492   0.12668   0.13159   0.13308

 Mulliken charges:
               1
     1  C    3.343530
     2  P    3.290549
     3  C    3.529031
     4  N   -2.422464
     5  N   -2.160800
     6  O   -3.185240
     7  O   -3.158257
     8  C   -3.636061
     9  H    1.467321
    10  H    1.414242
    11  H    1.413324
    12  C   -3.710718
    13  H    1.414489
    14  H    1.409991
    15  H    1.454860
    16  H   -0.463795
 Sum of Mulliken charges =  -0.00000

 Dipole moment (field-independent basis, Debye):
    X=             -0.1760    Y=             -0.2425    Z=             -2.8552  Tot=              2.8708

 Test job not archived.
 1\1\GINC-SE331\SP\RHF\Aug-CC-pVDZ\C4H7N2O2P1\OHZDE\08-Apr-2025\0\\#t h
 f aug-cc-pvdz iop(5/13=1,5/36=2,99/5=2) pseudo=read geom=check guess=(
 read,tcheck) scf=(maxcycle=1)\\title\\0,1\C,0,1.313352,-0.483756,-0.11
 6141\P,0,0.011923,-1.834847,-0.155255\C,0,-1.294256,-0.520278,0.147119
 \N,0,-0.706818,0.731165,0.098797\N,0,0.692685,0.75479,-0.15932\O,0,-2.
 487955,-0.702216,0.248252\O,0,2.512869,-0.640282,-0.064091\C,0,1.41966
 8,1.930411,0.313925\H,0,1.170506,2.808327,-0.282904\H,0,2.477396,1.704
 365,0.199514\H,0,1.198276,2.124694,1.36883\C,0,-1.481611,1.890519,-0.3

 Normal termination of Gaussian 16 at Tue Apr  8 23:33:00 2025.
