 Gaussian 16, Revision C.01,

 ----------------------------------------------------------------------
 #t hf aug-cc-pvdz symm=none int=(grid=ultrafine) guess=(read,tcheck) s
 table=(opt,rrhf)
 ----------------------------------------------------------------------
 -----
 title
 -----
 Symbolic Z-matrix:
 Charge =  0 Multiplicity = 1

 SCF Done:  E(RHF) =  -1036.13132700     A.U. after   13 cycles

 1\1\GINC-SE457\Stability\RHF\Aug-CC-pVDZ\C3H6Cl2\OHZDE\08-Apr-2025\0\\
 #t hf aug-cc-pvdz symm=none int=(grid=ultrafine) guess=(read,tcheck) s
 table=(opt,rrhf)\\title\\0,1\C,0,0.448731,1.685719,0.145654\H,0,0.6345
 78,1.736385,1.220884\H,0,-0.522757,2.139942,-0.063523\H,0,1.219059,2.2
 62314,-0.367319\C,0,0.450463,0.245938,-0.336134\C,0,-0.560691,-0.66444
 7,0.347411\Cl,0,2.096477,-0.507364,-0.020336\H,0,-0.480993,-0.606164,1
 .431432\Cl,0,-2.258782,-0.176792,-0.08362\H,0,0.327043,0.189633,-1.416
 777\H,0,-0.448774,-1.694711,0.020963\\Version=ES64L-G16RevC.01\HF=-103

 Normal termination of Gaussian 16 at Tue Apr  8 22:32:25 2025.
 Gaussian 16:  ES64L-G16RevC.01  3-Jul-2019

 ----------------------------------------------------------------------
 #t hf aug-cc-pvdz iop(5/13=1,5/36=2,99/5=2) pseudo=read geom=check gue
 ss=(read,tcheck) scf=(maxcycle=1)
 ----------------------------------------------------------------------
 -----
 title
 -----
 Structure from the checkpoint file:  "BDE49_expt_1028_mol1.chk"
 Charge =  0 Multiplicity = 1

                         Standard orientation:
 ---------------------------------------------------------------------
 Center     Atomic      Atomic             Coordinates (Angstroms)
 Number     Number       Type             X           Y           Z
 ---------------------------------------------------------------------
      1          6           0        0.448731    1.685719    0.145654
      2          1           0        0.634578    1.736385    1.220884
      3          1           0       -0.522757    2.139942   -0.063523
      4          1           0        1.219059    2.262314   -0.367319
      5          6           0        0.450463    0.245938   -0.336134
      6          6           0       -0.560691   -0.664447    0.347411
      7         17           0        2.096477   -0.507364   -0.020336
      8          1           0       -0.480993   -0.606164    1.431432
      9         17           0       -2.258782   -0.176792   -0.083620
     10          1           0        0.327043    0.189633   -1.416777
     11          1           0       -0.448774   -1.694711    0.020963
 ---------------------------------------------------------------------

 SCF Done:  E(RHF) =  -1037.22635128     A.U. after    2 cycles

 The electronic state is 1-A.
 Alpha  occ. eigenvalues --  -99.88922 -99.88474 -11.48609 -11.44896 -11.39135
 Alpha  occ. eigenvalues --  -10.46168 -10.45719  -9.66068  -9.65644  -9.65411
 Alpha  occ. eigenvalues --   -9.65306  -9.64955  -9.64851  -1.38725  -1.30093
 Alpha  occ. eigenvalues --   -1.15120  -1.02501  -0.87184  -0.69849  -0.67047
 Alpha  occ. eigenvalues --   -0.63813  -0.59790  -0.55192  -0.54370  -0.52175
 Alpha  occ. eigenvalues --   -0.50811  -0.49007  -0.47199  -0.45779
 Alpha virt. eigenvalues --    0.03276   0.05292   0.05848   0.06301   0.06551
 Alpha virt. eigenvalues --    0.07181   0.07224   0.08385   0.11183   0.11614
 Alpha virt. eigenvalues --    0.12312   0.13918   0.14243   0.15390   0.16502

 Mulliken charges:
               1
     1  C   -3.124267
     2  H    1.258957
     3  H    1.262541
     4  H    1.231478
     5  C   -2.478042
     6  C   -3.101637
     7  Cl   0.035817
     8  H    1.652809
     9  Cl   0.004141
    10  H    1.673764
    11  H    1.584438
 Sum of Mulliken charges =   0.00000

 Dipole moment (field-independent basis, Debye):
    X=             -0.0479    Y=              0.7337    Z=              0.1033  Tot=              0.7425

 Test job not archived.
 1\1\GINC-SE457\SP\RHF\Aug-CC-pVDZ\C3H6Cl2\OHZDE\08-Apr-2025\0\\#t hf a
 ug-cc-pvdz iop(5/13=1,5/36=2,99/5=2) pseudo=read geom=check guess=(rea
 d,tcheck) scf=(maxcycle=1)\\title\\0,1\C,0,0.448731,1.685719,0.145654\
 H,0,0.634578,1.736385,1.220884\H,0,-0.522757,2.139942,-0.063523\H,0,1.
 219059,2.262314,-0.367319\C,0,0.450463,0.245938,-0.336134\C,0,-0.56069
 1,-0.664447,0.347411\Cl,0,2.096477,-0.507364,-0.020336\H,0,-0.480993,-
 0.606164,1.431432\Cl,0,-2.258782,-0.176792,-0.08362\H,0,0.327043,0.189
 633,-1.416777\H,0,-0.448774,-1.694711,0.020963\\Version=ES64L-G16RevC.

 Normal termination of Gaussian 16 at Tue Apr  8 22:32:28 2025.
