 Gaussian 16, Revision C.01,

 ----------------------------------------------------------------------
 #t hf aug-cc-pvdz symm=none int=(grid=ultrafine) guess=(read,tcheck) s
 table=(opt,rrhf)
 ----------------------------------------------------------------------
 -----
 title
 -----
 Symbolic Z-matrix:
 Charge =  0 Multiplicity = 1

 SCF Done:  E(RHF) =  -662.991509271     A.U. after   11 cycles
 Normal termination of Gaussian 16 at Wed Apr  9 00:08:28 2025.
 Gaussian 16:  ES64L-G16RevC.01  3-Jul-2019

 ----------------------------------------------------------------------
 #t hf aug-cc-pvdz iop(5/13=1,5/36=2,99/5=2) pseudo=read geom=check gue
 ss=(read,tcheck) scf=(maxcycle=1)
 ----------------------------------------------------------------------
 -----
 title
 -----
 Structure from the checkpoint file:  "BDE49_nonexpt_2295_mol1.chk"
 Charge =  0 Multiplicity = 1

                         Standard orientation:
 ---------------------------------------------------------------------
 Center     Atomic      Atomic             Coordinates (Angstroms)
 Number     Number       Type             X           Y           Z
 ---------------------------------------------------------------------
      1         14           0       -0.004038    0.009046   -0.000000
      2          8           0       -1.601434    0.164392    0.000009
      3          9           0        0.525743   -0.772655   -1.266665
      4          9           0        0.525760   -0.772628    1.266675
      5          9           0        0.620442    1.451920   -0.000019
      6          1           0       -2.179500   -0.601524    0.000013
 ---------------------------------------------------------------------

 SCF Done:  E(RHF) =  -664.472765006     A.U. after    2 cycles

 The electronic state is 1-A.
 Alpha  occ. eigenvalues --  -76.33244 -29.30552 -29.30476 -29.30470 -21.12622
 Alpha  occ. eigenvalues --   -5.70906  -2.36452  -2.34977  -2.34236  -1.71916
 Alpha  occ. eigenvalues --   -0.99902  -0.74388  -0.73550  -0.66524  -0.51230
 Alpha  occ. eigenvalues --   -0.47412  -0.43880  -0.43688  -0.43545  -0.38215
 Alpha  occ. eigenvalues --   -0.35099  -0.33905  -0.31423  -0.31110  -0.29638
 Alpha virt. eigenvalues --    0.03977   0.07249   0.07752   0.07846   0.14304
 Alpha virt. eigenvalues --    0.18096   0.19905   0.20583   0.21356   0.21722
 Alpha virt. eigenvalues --    0.24078   0.26024   0.26346   0.27041   0.28236

 Mulliken charges:
               1
     1  Si   4.113269
     2  O   -2.111547
     3  F   -0.947046
     4  F   -0.947045
     5  F   -1.032463
     6  H    0.924831
 Sum of Mulliken charges =  -0.00000

 Dipole moment (field-independent basis, Debye):
    X=              1.1484    Y=             -0.6731    Z=             -0.0000  Tot=              1.3311

 Test job not archived.
 1\1\GINC-SE457\SP\RHF\Aug-CC-pVDZ\F3H1O1Si1\OHZDE\09-Apr-2025\0\\#t hf
  aug-cc-pvdz iop(5/13=1,5/36=2,99/5=2) pseudo=read geom=check guess=(r
 ead,tcheck) scf=(maxcycle=1)\\title\\0,1\Si,0,-0.004038,0.009046,0.\O,
 0,-1.601434,0.164387,0.000009\F,0,0.525745,-0.772653,-1.266665\F,0,0.5
 25762,-0.772626,1.266675\F,0,0.620438,1.451922,-0.000019\H,0,-2.179498
 ,-0.601531,0.000013\\Version=ES64L-G16RevC.01\State=1-A\HF=-664.472765
 \RMSD=5.739e-02\Dipole=0.451811,-0.2648324,-0.0000035\Quadrupole=-0.33
 85564,0.7464591,-0.4079027,2.0639702,-0.0000046,-0.0000144\PG=C01 [X(F

 Normal termination of Gaussian 16 at Wed Apr  9 00:08:30 2025.
