 Gaussian 16, Revision C.01,

 ----------------------------------------------------------------------
 #t hf aug-cc-pvdz symm=none int=(grid=ultrafine) guess=(read,tcheck) s
 table=opt
 ----------------------------------------------------------------------
 -----
 title
 -----
 Symbolic Z-matrix:
 Charge =  0 Multiplicity = 2

 SCF Done:  E(UHF) =  -1900.53570815     A.U. after   18 cycles

 1\1\GINC-SE322\Stability\UHF\Aug-CC-pVDZ\C1B1Cl4\OHZDE\09-Apr-2025\0\\
 #t hf aug-cc-pvdz symm=none int=(grid=ultrafine) guess=(read,tcheck) s
 table=opt\\title\\0,2\Cl,0,-2.546552,-0.026941,-0.409055\B,0,-0.927544
 ,0.28153,-0.88318\C,0,0.389602,-0.007754,-0.078104\Cl,0,0.679639,1.631
 948,0.65252\Cl,0,0.269969,-1.244012,1.22503\Cl,0,1.732245,-0.441062,-1
 .18117\\Version=ES64L-G16RevC.01\HF=-1900.5357082\S2=0.755484\S2-1=0.\
 S2A=0.750022\RMSD=6.626e-09\Dipole=-0.1903429,0.0061059,-0.1233149\Qua
 drupole=-0.2553227,0.5060429,-0.2507202,0.1641868,-0.2486449,0.6654122

 Normal termination of Gaussian 16 at Wed Apr  9 00:21:46 2025.
 Gaussian 16:  ES64L-G16RevC.01  3-Jul-2019

 ----------------------------------------------------------------------
 #t hf aug-cc-pvdz iop(5/13=1,5/36=2,99/5=2) pseudo=read geom=check gue
 ss=(read,tcheck) scf=(maxcycle=1)
 ----------------------------------------------------------------------
 -----
 title
 -----
 Structure from the checkpoint file:  "BDE49_nonexpt_262_mol2.chk"
 Charge =  0 Multiplicity = 2

                         Standard orientation:
 ---------------------------------------------------------------------
 Center     Atomic      Atomic             Coordinates (Angstroms)
 Number     Number       Type             X           Y           Z
 ---------------------------------------------------------------------
      1         17           0       -2.546552   -0.026941   -0.409055
      2          5           0       -0.927544    0.281530   -0.883180
      3          6           0        0.389602   -0.007754   -0.078104
      4         17           0        0.679639    1.631948    0.652520
      5         17           0        0.269969   -1.244012    1.225030
      6         17           0        1.732245   -0.441062   -1.181170
 ---------------------------------------------------------------------

 SCF Done:  E(UHF) =  -1901.77349288     A.U. after    2 cycles

 The electronic state is 2-A.
 Alpha  occ. eigenvalues --  -99.93087 -99.92878 -99.92658 -99.92370 -11.53769
 Alpha  occ. eigenvalues --  -10.50361 -10.50172 -10.49989 -10.49597  -9.70263
 Alpha  occ. eigenvalues --   -9.70097  -9.69857  -9.69704  -9.69593  -9.69443
 Alpha  occ. eigenvalues --   -9.69413  -9.69364  -9.69032  -9.68963  -9.68686
 Alpha  occ. eigenvalues --   -9.68645  -7.72247  -1.47332  -1.37400  -1.31625
 Alpha  occ. eigenvalues --   -1.31154  -1.03230  -0.82423  -0.71971  -0.70924
 Alpha  occ. eigenvalues --   -0.67976  -0.59740  -0.58315  -0.56460  -0.55453
 Alpha  occ. eigenvalues --   -0.52317  -0.52064  -0.50953  -0.49025  -0.36942
 Alpha virt. eigenvalues --   -0.00509   0.01331   0.03844   0.04873   0.05134
 Alpha virt. eigenvalues --    0.05200   0.06647   0.08300   0.11411   0.12341
 Alpha virt. eigenvalues --    0.12867   0.13766   0.14891   0.15443   0.15925

  Beta  occ. eigenvalues --  -99.93089 -99.92807 -99.92651 -99.92313 -11.53680
  Beta  occ. eigenvalues --  -10.50362 -10.50088 -10.49976 -10.49542  -9.70269
  Beta  occ. eigenvalues --   -9.70020  -9.69851  -9.69530  -9.69467  -9.69442
  Beta  occ. eigenvalues --   -9.69314  -9.69278  -9.68996  -9.68958  -9.68643
  Beta  occ. eigenvalues --   -9.68614  -7.70124  -1.46890  -1.36623  -1.31576
  Beta  occ. eigenvalues --   -1.30819  -1.01966  -0.80062  -0.71170  -0.70736
  Beta  occ. eigenvalues --   -0.66332  -0.59030  -0.57375  -0.56452  -0.54915
  Beta  occ. eigenvalues --   -0.52288  -0.51945  -0.50876  -0.47745
  Beta virt. eigenvalues --   -0.02247   0.02050   0.02674   0.04180   0.05032
  Beta virt. eigenvalues --    0.05244   0.05790   0.09121   0.09711   0.11708
  Beta virt. eigenvalues --    0.12444   0.13463   0.13977   0.15011   0.15753

 Mulliken charges and spin densities:
               1          2
     1  Cl  -0.986760   0.056685
     2  B    2.311093   0.973361
     3  C   -2.108179  -0.173346
     4  Cl   0.311154   0.026968
     5  Cl   0.267433   0.070225
     6  Cl   0.205259   0.046107
 Sum of Mulliken charges =  -0.00000   1.00000

 Dipole moment (field-independent basis, Debye):
    X=             -0.7781    Y=              0.0146    Z=             -0.2958  Tot=              0.8325
                          Isotropic Fermi Contact Couplings
        Atom                 a.u.       MegaHertz       Gauss      10(-4) cm-1
     1  Cl(35)             0.11705      51.32242      18.31312      17.11932
     2  B(11)              0.28294     405.84561     144.81581     135.37552
     3  C(13)              0.05549      62.37790      22.25799      20.80703
     4  Cl(35)             0.00236       1.03478       0.36923       0.34516
     5  Cl(35)             0.00837       3.67164       1.31013       1.22473
     6  Cl(35)             0.02117       9.28310       3.31244       3.09651
 --------------------------------------------------------
       Center         ----  Spin Dipole Couplings  ----

 Normal termination of Gaussian 16 at Wed Apr  9 00:21:50 2025.
