 Gaussian 16, Revision C.01,

 ----------------------------------------------------------------------
 #t hf aug-cc-pvdz symm=none int=(grid=ultrafine) guess=(read,tcheck) s
 table=(opt,rrhf)
 ----------------------------------------------------------------------
 -----
 title
 -----
 Symbolic Z-matrix:
 Charge =  0 Multiplicity = 1

 SCF Done:  E(RHF) =  -610.137289508     A.U. after   15 cycles
 Normal termination of Gaussian 16 at Tue Apr  8 23:20:51 2025.
 Gaussian 16:  ES64L-G16RevC.01  3-Jul-2019

 ----------------------------------------------------------------------
 #t hf aug-cc-pvdz iop(5/13=1,5/36=2,99/5=2) pseudo=read geom=check gue
 ss=(read,tcheck) scf=(maxcycle=1)
 ----------------------------------------------------------------------
 -----
 title
 -----
 Structure from the checkpoint file:  "BDE49_nonexpt_1145_mol1.chk"
 Charge =  0 Multiplicity = 1

                         Standard orientation:
 ---------------------------------------------------------------------
 Center     Atomic      Atomic             Coordinates (Angstroms)
 Number     Number       Type             X           Y           Z
 ---------------------------------------------------------------------
      1          9           0       -2.173750    0.109742   -0.000002
      2          8           0       -0.843287   -0.530639   -0.000001
      3          6           0        0.088934    0.426736    0.000000
      4         16           0        1.630659   -0.046332    0.000001
      5          1           0       -0.314093    1.438330    0.000001
 ---------------------------------------------------------------------

 SCF Done:  E(RHF) =  -611.163708110     A.U. after    2 cycles

 The electronic state is 1-A.
 Alpha  occ. eigenvalues --  -75.70214 -29.33848 -21.23166 -13.18273 -13.03042
 Alpha  occ. eigenvalues --  -13.00983 -11.53569  -8.04466  -1.88094  -1.19139
 Alpha  occ. eigenvalues --   -0.89757  -0.80015  -0.59740  -0.58165  -0.52918
 Alpha  occ. eigenvalues --   -0.38563  -0.37200  -0.30217  -0.25819  -0.24357
 Alpha virt. eigenvalues --    0.03616   0.06299   0.06534   0.10505   0.11956
 Alpha virt. eigenvalues --    0.12341   0.14596   0.16135   0.18128   0.18176
 Alpha virt. eigenvalues --    0.22147   0.23691   0.23748   0.26088   0.29625

 Mulliken charges:
               1
     1  F   -0.027843
     2  O   -1.187019
     3  C   -1.385080
     4  S    1.303747
     5  H    1.296195
 Sum of Mulliken charges =  -0.00000

 Dipole moment (field-independent basis, Debye):
    X=             -0.3817    Y=              0.3754    Z=              0.0000  Tot=              0.5354

 Test job not archived.
 1\1\GINC-SE458\SP\RHF\Aug-CC-pVDZ\C1H1F1O1S1\OHZDE\08-Apr-2025\0\\#t h
 f aug-cc-pvdz iop(5/13=1,5/36=2,99/5=2) pseudo=read geom=check guess=(
 read,tcheck) scf=(maxcycle=1)\\title\\0,1\F,0,2.17375,0.109742,0.00000
 2\O,0,0.843287,-0.530639,0.000001\C,0,-0.088934,0.426736,0.\S,0,-1.630
 659,-0.046332,-0.000001\H,0,0.314093,1.43833,-0.000001\\Version=ES64L-
 G16RevC.01\State=1-A\HF=-611.1637081\RMSD=1.455e-01\Dipole=0.150192,0.
 147711,-0.0000003\Quadrupole=3.7442039,-2.1316269,-1.612577,1.7757766,
 0.000004,0.0000017\PG=C01 [X(C1H1F1O1S1)]\\@

 Normal termination of Gaussian 16 at Tue Apr  8 23:20:52 2025.
