 Gaussian 16, Revision C.01,

 ----------------------------------------------------------------------
 #t hf aug-cc-pvdz symm=none int=(grid=ultrafine) guess=(read,tcheck) s
 table=(opt,rrhf)
 ----------------------------------------------------------------------
 -----
 title
 -----
 Symbolic Z-matrix:
 Charge =  0 Multiplicity = 1

 SCF Done:  E(RHF) =  -203.049375819     A.U. after   14 cycles
 Normal termination of Gaussian 16 at Wed Apr  9 00:36:03 2025.
 Gaussian 16:  ES64L-G16RevC.01  3-Jul-2019

 ----------------------------------------------------------------------
 #t hf aug-cc-pvdz iop(5/13=1,5/36=2,99/5=2) pseudo=read geom=check gue
 ss=(read,tcheck) scf=(maxcycle=1)
 ----------------------------------------------------------------------
 -----
 title
 -----
 Structure from the checkpoint file:  "BDE49_nonexpt_4_mol1.chk"
 Charge =  0 Multiplicity = 1

                         Standard orientation:
 ---------------------------------------------------------------------
 Center     Atomic      Atomic             Coordinates (Angstroms)
 Number     Number       Type             X           Y           Z
 ---------------------------------------------------------------------
      1          5           0       -0.454895   -0.697624    0.861272
      2          5           0        0.454895    0.697624    0.861272
      3          6           0        0.139008    1.875859   -0.018910
      4          6           0       -0.139008   -1.875859   -0.018910
      5          6           0        0.139008   -2.809703   -0.739326
      6          6           0       -0.139008    2.809703   -0.739326
      7          1           0       -0.374573    3.634775   -1.368268
      8          1           0        0.374573   -3.634775   -1.368268
      9          1           0        1.384111    0.788288    1.611323
     10          1           0       -1.384111   -0.788288    1.611323
 ---------------------------------------------------------------------

 SCF Done:  E(RHF) =  -203.974368275     A.U. after    2 cycles

 The electronic state is 1-A.
 Alpha  occ. eigenvalues --  -11.42655 -11.42643 -11.38384 -11.37859  -7.62146
 Alpha  occ. eigenvalues --   -7.61546  -1.14220  -1.11455  -0.95329  -0.83511
 Alpha  occ. eigenvalues --   -0.73108  -0.69771  -0.53310  -0.53137  -0.47489
 Alpha  occ. eigenvalues --   -0.39981  -0.39874  -0.38797  -0.32770
 Alpha virt. eigenvalues --    0.02930   0.02934   0.03775   0.04047   0.05203
 Alpha virt. eigenvalues --    0.05703   0.06825   0.07323   0.08753   0.08975
 Alpha virt. eigenvalues --    0.09468   0.11140   0.11887   0.12313   0.12891

 Mulliken charges:
               1
     1  B    3.311967
     2  B    3.311967
     3  C    0.717136
     4  C    0.717136
     5  C   -2.121928
     6  C   -2.121928
     7  H    0.659753
     8  H    0.659753
     9  H   -2.566929
    10  H   -2.566929
 Sum of Mulliken charges =   0.00000

 Dipole moment (field-independent basis, Debye):
    X=              0.0000    Y=              0.0000    Z=             -1.1961  Tot=              1.1961

 Test job not archived.
 1\1\GINC-SE058\SP\RHF\Aug-CC-pVDZ\C4H4B2\OHZDE\09-Apr-2025\0\\#t hf au
 g-cc-pvdz iop(5/13=1,5/36=2,99/5=2) pseudo=read geom=check guess=(read
 ,tcheck) scf=(maxcycle=1)\\title\\0,1\B,0,-0.454895,-0.697624,0.861272
 \B,0,0.454895,0.697624,0.861272\C,0,0.139008,1.875859,-0.01891\C,0,-0.
 139008,-1.875859,-0.01891\C,0,0.139008,-2.809703,-0.739326\C,0,-0.1390
 08,2.809703,-0.739326\H,0,-0.374573,3.634775,-1.368268\H,0,0.374573,-3
 .634775,-1.368268\H,0,1.384111,0.788288,1.611323\H,0,-1.384111,-0.7882
 88,1.611323\\Version=ES64L-G16RevC.01\State=1-A\HF=-203.9743683\RMSD=1

 Normal termination of Gaussian 16 at Wed Apr  9 00:36:07 2025.
