 Gaussian 16, Revision C.01,

 ----------------------------------------------------------------------
 #t hf aug-cc-pvdz symm=none int=(grid=ultrafine) guess=(read,tcheck) s
 table=(opt,rrhf)
 ----------------------------------------------------------------------
 -----
 title
 -----
 Symbolic Z-matrix:
 Charge =  0 Multiplicity = 1

 SCF Done:  E(RHF) =  -1151.04195883     A.U. after   17 cycles
 Normal termination of Gaussian 16 at Tue Apr  8 23:40:58 2025.
 Gaussian 16:  ES64L-G16RevC.01  3-Jul-2019

 ----------------------------------------------------------------------
 #t hf aug-cc-pvdz iop(5/13=1,5/36=2,99/5=2) pseudo=read geom=check gue
 ss=(read,tcheck) scf=(maxcycle=1)
 ----------------------------------------------------------------------
 -----
 title
 -----
 Structure from the checkpoint file:  "BDE49_nonexpt_1618_mol1.chk"
 Charge =  0 Multiplicity = 1

                         Standard orientation:
 ---------------------------------------------------------------------
 Center     Atomic      Atomic             Coordinates (Angstroms)
 Number     Number       Type             X           Y           Z
 ---------------------------------------------------------------------
      1         15           0        0.574761    0.674523   -0.870020
      2          7           0        1.707727   -0.567844   -0.014628
      3          6           0        0.881377    2.118942    0.228032
      4         15           0       -1.333824   -0.082650   -0.003291
      5          1           0        1.888591    2.492544    0.043563
      6          1           0        0.759681    1.873986    1.282229
      7          1           0        0.161702    2.890271   -0.059956
      8          8           0        1.384566   -1.757559   -0.061982
      9          8           0        2.746023   -0.155618    0.457853
     10          8           0       -2.471313    0.743586   -0.414979
     11          8           0       -1.371938   -1.597437   -0.465400
     12          8           0       -1.082924   -0.126163    1.588892
     13          1           0       -1.798560    0.303055    2.076214
     14          1           0       -0.503139   -2.031155   -0.343245
 ---------------------------------------------------------------------

 SCF Done:  E(RHF) =  -1153.40818995     A.U. after    2 cycles

 The electronic state is 1-A.
 Alpha  occ. eigenvalues -- -105.33311-105.26240 -21.13752 -21.12943 -21.12527
 Alpha  occ. eigenvalues --  -21.11508 -21.04763 -16.00485 -11.42152  -2.95569
 Alpha  occ. eigenvalues --   -2.84391  -2.01329  -2.00668  -1.93448  -1.80645
 Alpha  occ. eigenvalues --   -1.71764  -1.60586  -1.56260  -1.52843  -1.42386
 Alpha  occ. eigenvalues --   -1.41597  -1.26918  -1.06179  -0.95039  -0.75671
 Alpha  occ. eigenvalues --   -0.71325  -0.68094  -0.63380  -0.61468  -0.61408
 Alpha  occ. eigenvalues --   -0.60982  -0.55400  -0.52223  -0.47309  -0.41996
 Alpha  occ. eigenvalues --   -0.37385  -0.35932  -0.35045  -0.34148  -0.30169
 Alpha  occ. eigenvalues --   -0.27070  -0.19691  -0.11776   0.02250
 Alpha virt. eigenvalues --    0.03793   0.05043   0.06259   0.06456   0.07223
 Alpha virt. eigenvalues --    0.08592   0.09459   0.09929   0.10742   0.11747
 Alpha virt. eigenvalues --    0.12473   0.13105   0.14261   0.15117   0.15657

 Mulliken charges:
               1
     1  P    2.962990
     2  N    3.733491
     3  C   -6.096925
     4  P    8.358544
     5  H    1.133941
     6  H    1.466726
     7  H    1.307040
     8  O   -2.690579
     9  O   -2.594581
    10  O   -2.975714
    11  O   -3.465336
    12  O   -3.074008
    13  H    0.598900
    14  H    1.335510
 Sum of Mulliken charges =  -0.00000

 Dipole moment (field-independent basis, Debye):
    X=             -1.9441    Y=             -0.6310    Z=             -0.1160  Tot=              2.0472

 Test job not archived.
 1\1\GINC-SE343\SP\RHF\Aug-CC-pVDZ\C1H5N1O5P2\OHZDE\08-Apr-2025\0\\#t h
 f aug-cc-pvdz iop(5/13=1,5/36=2,99/5=2) pseudo=read geom=check guess=(
 read,tcheck) scf=(maxcycle=1)\\title\\0,1\P,0,0.574761,0.674523,-0.870
 02\N,0,1.707727,-0.567844,-0.014628\C,0,0.881377,2.118942,0.228032\P,0
 ,-1.333824,-0.08265,-0.003291\H,0,1.888591,2.492544,0.043563\H,0,0.759
 681,1.873986,1.282229\H,0,0.161702,2.890271,-0.059956\O,0,1.384566,-1.
 757559,-0.061982\O,0,2.746023,-0.155618,0.457853\O,0,-2.471313,0.74358
 7,-0.414979\O,0,-1.371938,-1.597437,-0.4654\O,0,-1.082924,-0.126163,1.

 Normal termination of Gaussian 16 at Tue Apr  8 23:41:04 2025.
