 Gaussian 16, Revision C.01,

 ----------------------------------------------------------------------
 #t hf aug-cc-pvdz symm=none int=(grid=ultrafine) guess=(read,tcheck) s
 table=(opt,rrhf)
 ----------------------------------------------------------------------
 -----
 title
 -----
 Symbolic Z-matrix:
 Charge =  0 Multiplicity = 1

 SCF Done:  E(RHF) =  -588.331421876     A.U. after   15 cycles
 Normal termination of Gaussian 16 at Tue Apr  8 23:39:30 2025.
 Gaussian 16:  ES64L-G16RevC.01  3-Jul-2019

 ----------------------------------------------------------------------
 #t hf aug-cc-pvdz iop(5/13=1,5/36=2,99/5=2) pseudo=read geom=check gue
 ss=(read,tcheck) scf=(maxcycle=1)
 ----------------------------------------------------------------------
 -----
 title
 -----
 Structure from the checkpoint file:  "BDE49_nonexpt_1576_mol1.chk"
 Charge =  0 Multiplicity = 1

                         Standard orientation:
 ---------------------------------------------------------------------
 Center     Atomic      Atomic             Coordinates (Angstroms)
 Number     Number       Type             X           Y           Z
 ---------------------------------------------------------------------
      1          7           0       -1.703410   -0.310200   -0.236387
      2          6           0       -2.061114    0.847482    0.586386
      3          1           0       -1.515178    1.753761    0.308180
      4          1           0       -1.849112    0.620728    1.634774
      5          1           0       -3.134346    1.034120    0.499444
      6          6           0        1.084769    0.279627   -0.145902
      7          6           0        2.423535   -0.052086    0.490730
      8          1           0        2.351044    0.101183    1.572574
      9          1           0        3.191565    0.613057    0.093418
     10          1           0        2.704243   -1.095685    0.323099
     11          8           0        0.858098    1.352406   -0.660313
     12         15           0       -0.208047   -1.093592   -0.207299
     13          1           0       -0.113965   -1.404470    1.175452
     14          1           0       -2.137598   -0.316802   -1.147527
 ---------------------------------------------------------------------

 SCF Done:  E(RHF) =  -589.668542844     A.U. after    2 cycles

 The electronic state is 1-A.
 Alpha  occ. eigenvalues -- -105.19771 -21.05680 -15.73392 -11.47544 -11.38931
 Alpha  occ. eigenvalues --  -11.38830  -2.77830  -1.71148  -1.58888  -1.46968
 Alpha  occ. eigenvalues --   -1.45794  -1.25266  -1.10506  -0.95254  -0.78840
 Alpha  occ. eigenvalues --   -0.68748  -0.62311  -0.59753  -0.58684  -0.57821
 Alpha  occ. eigenvalues --   -0.54131  -0.52171  -0.42947  -0.40309  -0.37106
 Alpha  occ. eigenvalues --   -0.27641  -0.18317  -0.02633
 Alpha virt. eigenvalues --    0.03617   0.05046   0.05940   0.06233   0.06897
 Alpha virt. eigenvalues --    0.07107   0.07750   0.08249   0.09807   0.11113
 Alpha virt. eigenvalues --    0.11899   0.12818   0.13345   0.14178   0.14638

 Mulliken charges:
               1
     1  N   -2.073112
     2  C   -3.476140
     3  H    1.386806
     4  H    1.401667
     5  H    1.230756
     6  C    1.372578
     7  C   -3.730088
     8  H    1.258649
     9  H    1.218142
    10  H    1.372075
    11  O   -2.989620
    12  P    3.251991
    13  H   -0.856018
    14  H    0.632314
 Sum of Mulliken charges =   0.00000

 Dipole moment (field-independent basis, Debye):
    X=             -1.3952    Y=             -0.0703    Z=             -0.6358  Tot=              1.5349

 Test job not archived.
 1\1\GINC-SE396\SP\RHF\Aug-CC-pVDZ\C3H8N1O1P1\OHZDE\08-Apr-2025\0\\#t h
 f aug-cc-pvdz iop(5/13=1,5/36=2,99/5=2) pseudo=read geom=check guess=(
 read,tcheck) scf=(maxcycle=1)\\title\\0,1\N,0,-1.70341,-0.3102,-0.2363
 87\C,0,-2.061114,0.847482,0.586386\H,0,-1.515178,1.753761,0.30818\H,0,
 -1.849112,0.620728,1.634774\H,0,-3.134346,1.03412,0.499444\C,0,1.08476
 9,0.279627,-0.145902\C,0,2.423535,-0.052085,0.49073\H,0,2.351044,0.101
 184,1.572574\H,0,3.191565,0.613058,0.093418\H,0,2.704243,-1.095684,0.3
 23099\O,0,0.858098,1.352406,-0.660313\P,0,-0.208047,-1.093592,-0.20729

 Normal termination of Gaussian 16 at Tue Apr  8 23:39:34 2025.
