 Gaussian 16, Revision C.01,

 ----------------------------------------------------------------------
 #t hf aug-cc-pvdz symm=none int=(grid=ultrafine) guess=(read,tcheck) s
 table=(opt,rrhf)
 ----------------------------------------------------------------------
 -----
 title
 -----
 Symbolic Z-matrix:
 Charge =  0 Multiplicity = 1

 SCF Done:  E(RHF) =  -1155.76443605     A.U. after   12 cycles

 1\1\GINC-SE099\Stability\RHF\Aug-CC-pVDZ\C1Cl2F2\OHZDE\08-Apr-2025\0\\
 #t hf aug-cc-pvdz symm=none int=(grid=ultrafine) guess=(read,tcheck) s
 table=(opt,rrhf)\\title\\0,1\C,0,0.000011,0.344568,-0.000007\Cl,0,-1.4
 72819,-0.657066,0.000002\F,0,-0.000033,1.126227,1.080898\F,0,-0.000018
 ,1.126255,-1.080887\Cl,0,1.472842,-0.657036,-0.000006\\Version=ES64L-G
 16RevC.01\HF=-1155.7644361\RMSD=1.552e-09\Dipole=0.0000739,-0.2154589,
 -0.0000125\Quadrupole=1.2771436,-0.2350922,-1.0420514,-0.0000622,-0.00
 00044,-0.000033\PG=Unknown\\@

 Normal termination of Gaussian 16 at Tue Apr  8 22:45:28 2025.
 Gaussian 16:  ES64L-G16RevC.01  3-Jul-2019

 ----------------------------------------------------------------------
 #t hf aug-cc-pvdz iop(5/13=1,5/36=2,99/5=2) pseudo=read geom=check gue
 ss=(read,tcheck) scf=(maxcycle=1)
 ----------------------------------------------------------------------
 -----
 title
 -----
 Structure from the checkpoint file:  "BDE49_expt_1501_mol1.chk"
 Charge =  0 Multiplicity = 1

                         Standard orientation:
 ---------------------------------------------------------------------
 Center     Atomic      Atomic             Coordinates (Angstroms)
 Number     Number       Type             X           Y           Z
 ---------------------------------------------------------------------
      1          6           0        0.000011    0.344568   -0.000007
      2         17           0       -1.472819   -0.657066    0.000002
      3          9           0       -0.000033    1.126227    1.080898
      4          9           0       -0.000018    1.126255   -1.080887
      5         17           0        1.472842   -0.657036   -0.000006
 ---------------------------------------------------------------------

 SCF Done:  E(RHF) =  -1157.09059211     A.U. after    2 cycles

 The electronic state is 1-A.
 Alpha  occ. eigenvalues --  -99.93400 -99.93378 -29.34275 -29.34228 -11.62792
 Alpha  occ. eigenvalues --  -10.50887 -10.50870  -9.70718  -9.70521  -9.69825
 Alpha  occ. eigenvalues --   -9.69774  -9.69767  -9.69713  -1.50114  -1.33944
 Alpha  occ. eigenvalues --   -1.20017  -0.91748  -0.80803  -0.77045  -0.58152
 Alpha  occ. eigenvalues --   -0.57625  -0.54691  -0.53063  -0.48987  -0.43067
 Alpha  occ. eigenvalues --   -0.39072  -0.35719  -0.33137  -0.26264
 Alpha virt. eigenvalues --    0.02288   0.07155   0.07464   0.08550   0.12578
 Alpha virt. eigenvalues --    0.12939   0.13765   0.14641   0.15567   0.18251
 Alpha virt. eigenvalues --    0.18507   0.19295   0.19495   0.22343   0.25452

 Mulliken charges:
               1
     1  C   -2.079146
     2  Cl  -0.014342
     3  F    1.053917
     4  F    1.053910
     5  Cl  -0.014339
 Sum of Mulliken charges =  -0.00000

 Dipole moment (field-independent basis, Debye):
    X=              0.0000    Y=              4.9492    Z=              0.0000  Tot=              4.9492

 Test job not archived.
 1\1\GINC-SE099\SP\RHF\Aug-CC-pVDZ\C1Cl2F2\OHZDE\08-Apr-2025\0\\#t hf a
 ug-cc-pvdz iop(5/13=1,5/36=2,99/5=2) pseudo=read geom=check guess=(rea
 d,tcheck) scf=(maxcycle=1)\\title\\0,1\C,0,0.000011,0.344568,-0.000007
 \Cl,0,-1.472819,-0.657066,0.000002\F,0,-0.000033,1.126227,1.080898\F,0
 ,-0.000018,1.126255,-1.080887\Cl,0,1.472842,-0.657036,-0.000006\\Versi
 on=ES64L-G16RevC.01\State=1-A\HF=-1157.0905921\RMSD=3.769e-02\Dipole=0
 .0000009,1.9471465,0.0000121\Quadrupole=-2.9079047,1.7561802,1.1517245
 ,-0.0002885,-0.0000397,-0.000071\PG=C01 [X(C1Cl2F2)]\\@

 Normal termination of Gaussian 16 at Tue Apr  8 22:45:30 2025.
