 Gaussian 16, Revision C.01,

 ----------------------------------------------------------------------
 #t hf aug-cc-pvdz symm=none int=(grid=ultrafine) guess=(read,tcheck) s
 table=(opt,rrhf)
 ----------------------------------------------------------------------
 -----
 title
 -----
 Symbolic Z-matrix:
 Charge =  0 Multiplicity = 1

 SCF Done:  E(RHF) =  -1749.24837037     A.U. after   17 cycles
 Normal termination of Gaussian 16 at Wed Apr  9 00:30:41 2025.
 Gaussian 16:  ES64L-G16RevC.01  3-Jul-2019

 ----------------------------------------------------------------------
 #t hf aug-cc-pvdz iop(5/13=1,5/36=2,99/5=2) pseudo=read geom=check gue
 ss=(read,tcheck) scf=(maxcycle=1)
 ----------------------------------------------------------------------
 -----
 title
 -----
 Structure from the checkpoint file:  "BDE49_nonexpt_2720_mol1.chk"
 Charge =  0 Multiplicity = 1

                         Standard orientation:
 ---------------------------------------------------------------------
 Center     Atomic      Atomic             Coordinates (Angstroms)
 Number     Number       Type             X           Y           Z
 ---------------------------------------------------------------------
      1          6           0       -3.449560    0.471823   -0.475892
      2          8           0       -2.844863    1.418216   -0.883053
      3         16           0       -2.819844   -0.634045    0.855200
      4         16           0       -1.001275    0.242754    1.290509
      5          6           0        0.035320   -0.349107   -0.113653
      6          8           0       -0.346960   -1.129344   -0.932679
      7          6           0       -4.781584   -0.007110   -1.006419
      8          1           0       -5.366794    0.856666   -1.324104
      9          1           0       -5.337926   -0.592231   -0.272669
     10          1           0       -4.591449   -0.638140   -1.879529
     11          6           0        1.388103    0.292088   -0.074293
     12          6           0        1.474459    1.689215   -0.010068
     13          6           0        2.708396    2.329367   -0.029829
     14          6           0        3.875712    1.574307   -0.096984
     15          6           0        3.811084    0.184609   -0.152027
     16          6           0        2.574437   -0.452107   -0.149942
     17          1           0        2.755456    3.410871    0.005459
     18          1           0        4.713172   -0.411524   -0.197198
     19          1           0        0.558588    2.266308    0.025707
     20          1           0        4.843380    2.062188   -0.106784
     21         17           0        2.545873   -2.200175   -0.200102
 ---------------------------------------------------------------------

 SCF Done:  E(RHF) =  -1752.17832197     A.U. after    2 cycles

 The electronic state is 1-A.
 Alpha  occ. eigenvalues --  -99.90163 -75.72886 -75.72618 -21.08223 -21.07948
 Alpha  occ. eigenvalues --  -13.19799 -13.15842 -13.13634 -13.12319 -13.08425
 Alpha  occ. eigenvalues --  -13.06283 -11.54729 -11.53132 -11.52046 -11.48789
 Alpha  occ. eigenvalues --  -11.46964 -11.44648 -11.43892 -11.40884 -11.39655
 Alpha  occ. eigenvalues --  -10.47539  -9.67570  -9.66769  -9.66503  -8.06878
 Alpha  occ. eigenvalues --   -8.06681  -1.74202  -1.73519  -1.41760  -1.29711
 Alpha  occ. eigenvalues --   -1.25286  -1.16213  -1.12510  -1.10121  -1.03319
 Alpha  occ. eigenvalues --   -0.92746  -0.89001  -0.80361  -0.75309  -0.71775
 Alpha  occ. eigenvalues --   -0.66534  -0.63982  -0.63049  -0.61686  -0.61304
 Alpha  occ. eigenvalues --   -0.60766  -0.58887  -0.57842  -0.54841  -0.52209
 Alpha  occ. eigenvalues --   -0.51437  -0.50143  -0.49188  -0.47949  -0.47198
 Alpha  occ. eigenvalues --   -0.45416  -0.37910  -0.35113  -0.34632  -0.29625
 Alpha  occ. eigenvalues --   -0.28971  -0.26706  -0.24994
 Alpha virt. eigenvalues --    0.02931   0.03216   0.05057   0.05235   0.06194
 Alpha virt. eigenvalues --    0.06372   0.07028   0.07462   0.08195   0.08377
 Alpha virt. eigenvalues --    0.08837   0.08960   0.09491   0.10150   0.11513

 Mulliken charges:
               1
     1  C    3.087968
     2  O   -2.974676
     3  S   -0.035956
     4  S   -0.345703
     5  C    1.718747
     6  O   -3.012311
     7  C   -4.160416
     8  H    1.225612
     9  H    1.483165
    10  H    1.309543
    11  C    5.875865
    12  C   -1.249285
    13  C   -2.756107
    14  C   -1.258960
    15  C   -1.934729
    16  C   -2.965421
    17  H    1.535468
    18  H    1.728182
    19  H    2.052868
    20  H    1.543464
    21  Cl  -0.867317
 Sum of Mulliken charges =  -0.00000

 Dipole moment (field-independent basis, Debye):
    X=              0.1816    Y=              2.0437    Z=              0.9395  Tot=              2.2567

 Test job not archived.
 1\1\GINC-SE090\SP\RHF\Aug-CC-pVDZ\C9H7Cl1O2S2\OHZDE\09-Apr-2025\0\\#t
 hf aug-cc-pvdz iop(5/13=1,5/36=2,99/5=2) pseudo=read geom=check guess=
 (read,tcheck) scf=(maxcycle=1)\\title\\0,1\C,0,-3.44956,0.471823,-0.47
 5892\O,0,-2.844863,1.418216,-0.883053\S,0,-2.819844,-0.634045,0.8552\S
 ,0,-1.001275,0.242754,1.290509\C,0,0.03532,-0.349107,-0.113653\O,0,-0.
 34696,-1.129344,-0.932679\C,0,-4.781584,-0.00711,-1.006419\H,0,-5.3667
 94,0.856666,-1.324104\H,0,-5.337926,-0.592231,-0.272669\H,0,-4.591449,
 -0.63814,-1.879529\C,0,1.388103,0.292088,-0.074293\C,0,1.474459,1.6892

 Normal termination of Gaussian 16 at Wed Apr  9 00:30:59 2025.
