 Gaussian 16, Revision C.01,

 ----------------------------------------------------------------------
 #t hf aug-cc-pvdz symm=none int=(grid=ultrafine) guess=(read,tcheck) s
 table=(opt,rrhf)
 ----------------------------------------------------------------------
 -----
 title
 -----
 Symbolic Z-matrix:
 Charge =  0 Multiplicity = 1

 SCF Done:  E(RHF) =  -683.797010193     A.U. after   11 cycles
 Normal termination of Gaussian 16 at Tue Apr  8 22:59:36 2025.
 Gaussian 16:  ES64L-G16RevC.01  3-Jul-2019

 ----------------------------------------------------------------------
 #t hf aug-cc-pvdz iop(5/13=1,5/36=2,99/5=2) pseudo=read geom=check gue
 ss=(read,tcheck) scf=(maxcycle=1)
 ----------------------------------------------------------------------
 -----
 title
 -----
 Structure from the checkpoint file:  "BDE49_expt_1947_mol1.chk"
 Charge =  0 Multiplicity = 1

                         Standard orientation:
 ---------------------------------------------------------------------
 Center     Atomic      Atomic             Coordinates (Angstroms)
 Number     Number       Type             X           Y           Z
 ---------------------------------------------------------------------
      1         15           0       -0.000000    1.132036   -0.000000
      2         15           0       -0.000000   -1.132036   -0.000000
      3          1           0       -0.980045    1.224448    1.025115
      4          1           0       -0.980048    1.224448   -1.025113
      5          1           0        0.980045   -1.224448    1.025115
      6          1           0        0.980048   -1.224448   -1.025113
 ---------------------------------------------------------------------

 SCF Done:  E(RHF) =  -684.192229593     A.U. after    2 cycles

 The electronic state is 1-A.
 Alpha  occ. eigenvalues -- -105.19152-105.18861  -2.76161  -2.75188  -1.50427
 Alpha  occ. eigenvalues --   -1.44840  -1.44523  -1.43571  -1.42830  -1.31081
 Alpha  occ. eigenvalues --   -0.77589  -0.61945  -0.26151  -0.26045  -0.09225
 Alpha  occ. eigenvalues --   -0.08641   0.03252
 Alpha virt. eigenvalues --    0.06037   0.07307   0.07387   0.09683   0.10148
 Alpha virt. eigenvalues --    0.10380   0.12463   0.12847   0.15094   0.18086
 Alpha virt. eigenvalues --    0.20359   0.21129   0.21800   0.22094   0.24302

 Mulliken charges:
               1
     1  P    2.980475
     2  P    2.980475
     3  H   -1.490239
     4  H   -1.490236
     5  H   -1.490239
     6  H   -1.490236
 Sum of Mulliken charges =   0.00000

 Dipole moment (field-independent basis, Debye):
    X=             -0.0000    Y=              0.0000    Z=             -0.0000  Tot=              0.0000

 Test job not archived.
 1\1\GINC-SE073\SP\RHF\Aug-CC-pVDZ\H4P2\OHZDE\08-Apr-2025\0\\#t hf aug-
 cc-pvdz iop(5/13=1,5/36=2,99/5=2) pseudo=read geom=check guess=(read,t
 check) scf=(maxcycle=1)\\title\\0,1\P,0,0.,1.132036,0.\P,0,0.,-1.13203
 6,0.\H,0,-0.980045,1.224448,1.025115\H,0,-0.980048,1.224448,-1.025113\
 H,0,0.980045,-1.224448,1.025115\H,0,0.980048,-1.224448,-1.025113\\Vers
 ion=ES64L-G16RevC.01\State=1-A\HF=-684.1922296\RMSD=4.363e-01\Dipole=0
 .,0.,-0.000006\Quadrupole=-1.6714509,-2.8065356,4.4779865,5.7528116,0.
 ,0.\PG=C02 [X(H4P2)]\\@

 Normal termination of Gaussian 16 at Tue Apr  8 22:59:37 2025.
