 Gaussian 16, Revision C.01,

 ----------------------------------------------------------------------
 #t hf aug-cc-pvdz symm=none int=(grid=ultrafine) guess=(read,tcheck) s
 table=(opt,rrhf)
 ----------------------------------------------------------------------
 -----
 title
 -----
 Symbolic Z-matrix:
 Charge =  0 Multiplicity = 1

 SCF Done:  E(RHF) =  -1612.19982080     A.U. after   12 cycles
 Normal termination of Gaussian 16 at Tue Apr  8 23:57:22 2025.
 Gaussian 16:  ES64L-G16RevC.01  3-Jul-2019

 ----------------------------------------------------------------------
 #t hf aug-cc-pvdz iop(5/13=1,5/36=2,99/5=2) pseudo=read geom=check gue
 ss=(read,tcheck) scf=(maxcycle=1)
 ----------------------------------------------------------------------
 -----
 title
 -----
 Structure from the checkpoint file:  "BDE49_nonexpt_1955_mol1.chk"
 Charge =  0 Multiplicity = 1

                         Standard orientation:
 ---------------------------------------------------------------------
 Center     Atomic      Atomic             Coordinates (Angstroms)
 Number     Number       Type             X           Y           Z
 ---------------------------------------------------------------------
      1         14           0        0.514870    2.160044   -0.358679
      2          6           0       -0.953697    1.820852    0.801709
      3         15           0       -1.889416   -0.490351   -0.086132
      4          8           0       -1.473430   -1.218368    1.235651
      5          8           0       -3.397226   -0.905065   -0.319538
      6          1           0       -0.477810   -1.235265    1.355658
      7          1           0       -3.524164   -1.317879   -1.181242
      8          8           0       -1.001172   -0.739406   -1.250799
      9         15           0        1.876732   -0.542538    0.077835
     10          8           0        1.561225   -1.360601   -1.222626
     11          1           0        0.589317   -1.294474   -1.419758
     12          8           0        3.447648   -0.655733    0.236017
     13          1           0        3.696473   -1.299856    0.908708
     14          8           0        1.124852   -0.950768    1.291112
     15          8           0       -2.056781    1.053917    0.250984
     16          8           0        1.694042    0.978836   -0.284731
     17          1           0        1.167737    3.385128    0.142481
     18          1           0        0.070800    2.312839   -1.753180
     19          1           0       -1.392084    2.789542    1.054613
     20          1           0       -0.619264    1.365069    1.739846
 ---------------------------------------------------------------------

 SCF Done:  E(RHF) =  -1615.41457557     A.U. after    2 cycles

 The electronic state is 1-A.
 Alpha  occ. eigenvalues -- -105.34130-105.33416 -76.26748 -21.12796 -21.12771
 Alpha  occ. eigenvalues --  -21.09628 -21.09392 -21.09362 -21.09208 -21.04016
 Alpha  occ. eigenvalues --  -21.03866 -11.42797  -5.60344  -2.97635  -2.97095
 Alpha  occ. eigenvalues --   -2.27376  -2.23231  -2.22277  -2.00951  -2.00058
 Alpha  occ. eigenvalues --   -1.95710  -1.94790  -1.94340  -1.93973  -1.76183
 Alpha  occ. eigenvalues --   -1.75127  -1.43475  -1.41291  -1.40470  -1.39566
 Alpha  occ. eigenvalues --   -1.30788  -1.27657  -0.99750  -0.77409  -0.73000
 Alpha  occ. eigenvalues --   -0.68076  -0.64338  -0.61783  -0.59679  -0.58814
 Alpha  occ. eigenvalues --   -0.56198  -0.55744  -0.53345  -0.51851  -0.47905
 Alpha  occ. eigenvalues --   -0.46453  -0.45217  -0.43913  -0.41435  -0.41160
 Alpha  occ. eigenvalues --   -0.39874  -0.36972  -0.36430  -0.35614  -0.33101
 Alpha  occ. eigenvalues --   -0.32277  -0.28770  -0.28291  -0.27408  -0.21942
 Alpha  occ. eigenvalues --   -0.18942
 Alpha virt. eigenvalues --    0.03634   0.04727   0.04984   0.05403   0.06024
 Alpha virt. eigenvalues --    0.06778   0.07645   0.08552   0.08987   0.09412
 Alpha virt. eigenvalues --    0.10899   0.11383   0.11804   0.12109   0.12218

 Mulliken charges:
               1
     1  Si   6.478269
     2  C   -2.947625
     3  P    9.601058
     4  O   -3.422708
     5  O   -2.882854
     6  H    1.688280
     7  H    0.938194
     8  O   -3.192942
     9  P    9.585718
    10  O   -3.250989
    11  H    1.601435
    12  O   -2.668411
    13  H    0.921980
    14  O   -3.276398
    15  O   -3.841885
    16  O   -4.498867
    17  H   -1.893494
    18  H   -2.031085
    19  H    1.342937
    20  H    1.749387
 Sum of Mulliken charges =  -0.00000

 Dipole moment (field-independent basis, Debye):
    X=             -0.1315    Y=              0.8438    Z=             -0.0363  Tot=              0.8548

 Test job not archived.
 1\1\GINC-SE455\SP\RHF\Aug-CC-pVDZ\C1H8O8P2Si1\OHZDE\08-Apr-2025\0\\#t
 hf aug-cc-pvdz iop(5/13=1,5/36=2,99/5=2) pseudo=read geom=check guess=
 (read,tcheck) scf=(maxcycle=1)\\title\\0,1\Si,0,0.51487,2.160044,-0.35
 8679\C,0,-0.953697,1.820852,0.801709\P,0,-1.889416,-0.490351,-0.086132
 \O,0,-1.47343,-1.218368,1.235651\O,0,-3.397226,-0.905065,-0.319538\H,0
 ,-0.47781,-1.235265,1.355658\H,0,-3.524164,-1.317879,-1.181242\O,0,-1.
 001172,-0.739406,-1.250799\P,0,1.876732,-0.542538,0.077835\O,0,1.56122
 5,-1.360601,-1.222626\H,0,0.589317,-1.294474,-1.419758\O,0,3.447648,-0

 Normal termination of Gaussian 16 at Tue Apr  8 23:57:37 2025.
