 Gaussian 16, Revision C.01,

 ----------------------------------------------------------------------
 #t hf aug-cc-pvdz symm=none int=(grid=ultrafine) guess=(read,tcheck) s
 table=(opt,rrhf)
 ----------------------------------------------------------------------
 -----
 title
 -----
 Symbolic Z-matrix:
 Charge =  0 Multiplicity = 1

 SCF Done:  E(RHF) =  -1294.18062312     A.U. after   15 cycles
 Normal termination of Gaussian 16 at Tue Apr  8 23:01:38 2025.
 Gaussian 16:  ES64L-G16RevC.01  3-Jul-2019

 ----------------------------------------------------------------------
 #t hf aug-cc-pvdz iop(5/13=1,5/36=2,99/5=2) pseudo=read geom=check gue
 ss=(read,tcheck) scf=(maxcycle=1)
 ----------------------------------------------------------------------
 -----
 title
 -----
 Structure from the checkpoint file:  "BDE49_expt_1979_mol1.chk"
 Charge =  0 Multiplicity = 1

                         Standard orientation:
 ---------------------------------------------------------------------
 Center     Atomic      Atomic             Coordinates (Angstroms)
 Number     Number       Type             X           Y           Z
 ---------------------------------------------------------------------
      1         16           0       -1.276677   -0.352753   -0.556482
      2         16           0        0.413647   -0.830811    0.445689
      3         17           0        1.919967    0.549342   -0.160007
      4          6           0       -2.037991    0.980976    0.440991
      5          1           0       -3.006706    1.183967   -0.021206
      6          1           0       -1.418240    1.875291    0.398850
      7          1           0       -2.178056    0.653095    1.469216
 ---------------------------------------------------------------------

 SCF Done:  E(RHF) =  -1295.07958244     A.U. after    2 cycles

 The electronic state is 1-A.
 Alpha  occ. eigenvalues --  -99.90329 -75.76628 -75.73040 -13.15439 -13.13326
 Alpha  occ. eigenvalues --  -13.10541 -13.10111 -13.08320 -13.05523 -11.41570
 Alpha  occ. eigenvalues --  -10.47350  -9.67079  -9.66474  -9.66420  -8.10238
 Alpha  occ. eigenvalues --   -8.07095  -1.33867  -1.23508  -1.06942  -0.91365
 Alpha  occ. eigenvalues --   -0.61663  -0.60952  -0.56463  -0.54922  -0.54477
 Alpha  occ. eigenvalues --   -0.46393  -0.36410  -0.29484  -0.26656
 Alpha virt. eigenvalues --    0.02261   0.03465   0.05062   0.05959   0.06813
 Alpha virt. eigenvalues --    0.07602   0.11927   0.12347   0.13502   0.14306
 Alpha virt. eigenvalues --    0.14595   0.15563   0.16448   0.17277   0.18075

 Mulliken charges:
               1
     1  S    0.375021
     2  S    0.152188
     3  Cl  -0.358649
     4  C   -4.374166
     5  H    1.361898
     6  H    1.435525
     7  H    1.408183
 Sum of Mulliken charges =  -0.00000

 Dipole moment (field-independent basis, Debye):
    X=             -3.8937    Y=             -2.1587    Z=              0.2759  Tot=              4.4606

 Test job not archived.
 1\1\GINC-SE329\SP\RHF\Aug-CC-pVDZ\C1H3Cl1S2\OHZDE\08-Apr-2025\0\\#t hf
  aug-cc-pvdz iop(5/13=1,5/36=2,99/5=2) pseudo=read geom=check guess=(r
 ead,tcheck) scf=(maxcycle=1)\\title\\0,1\S,0,-1.276677,-0.352753,-0.55
 6482\S,0,0.413647,-0.830811,0.445689\Cl,0,1.919967,0.549342,-0.160007\
 C,0,-2.037991,0.980976,0.440991\H,0,-3.006706,1.183967,-0.021206\H,0,-
 1.41824,1.875291,0.39885\H,0,-2.178056,0.653095,1.469216\\Version=ES64
 L-G16RevC.01\State=1-A\HF=-1295.0795824\RMSD=6.487e-02\Dipole=-1.53188
 57,-0.8492858,0.1085283\Quadrupole=-0.3273408,0.8680144,-0.5406736,-1.

 Normal termination of Gaussian 16 at Tue Apr  8 23:01:41 2025.
