 Gaussian 16, Revision C.01,

 ----------------------------------------------------------------------
 #t hf aug-cc-pvdz symm=none int=(grid=ultrafine) guess=(read,tcheck) s
 table=(opt,rrhf)
 ----------------------------------------------------------------------
 -----
 title
 -----
 Symbolic Z-matrix:
 Charge =  0 Multiplicity = 1

 SCF Done:  E(RHF) =  -661.379837633     A.U. after   16 cycles
 Normal termination of Gaussian 16 at Wed Apr  9 00:29:00 2025.
 Gaussian 16:  ES64L-G16RevC.01  3-Jul-2019

 ----------------------------------------------------------------------
 #t hf aug-cc-pvdz iop(5/13=1,5/36=2,99/5=2) pseudo=read geom=check gue
 ss=(read,tcheck) scf=(maxcycle=1)
 ----------------------------------------------------------------------
 -----
 title
 -----
 Structure from the checkpoint file:  "BDE49_nonexpt_290_mol1.chk"
 Charge =  0 Multiplicity = 1

                         Standard orientation:
 ---------------------------------------------------------------------
 Center     Atomic      Atomic             Coordinates (Angstroms)
 Number     Number       Type             X           Y           Z
 ---------------------------------------------------------------------
      1          6           0       -0.068169    0.041864    0.435688
      2          7           0       -0.415315    1.332798   -0.338006
      3          5           0        1.448167   -0.379905    0.010372
      4          7           0       -1.066660   -0.989408   -0.118593
      5          6           0       -0.302544    0.287147    1.911682
      6          8           0       -1.056065   -1.137058   -1.337826
      7          8           0        1.732959   -1.048077   -1.125100
      8          8           0        0.504806    1.858583   -0.942639
      9          8           0        2.400723   -0.065355    0.918291
     10          8           0       -1.554729    1.742307   -0.258625
     11          8           0       -1.759049   -1.603231    0.660639
     12          1           0        0.395140    1.051604    2.255007
     13          1           0       -0.107713   -0.627490    2.470436
     14          1           0       -1.328430    0.606499    2.090912
     15          1           0        0.961959   -1.189926   -1.692122
     16          1           0        3.287140   -0.296309    0.617961
 ---------------------------------------------------------------------

 SCF Done:  E(RHF) =  -664.170460498     A.U. after    2 cycles

 The electronic state is 1-A.
 Alpha  occ. eigenvalues --  -21.14335 -21.13064 -21.12856 -21.12484 -21.09214
 Alpha  occ. eigenvalues --  -21.08417 -16.03207 -16.02776 -11.54980 -11.42954
 Alpha  occ. eigenvalues --   -7.70202  -2.04927  -2.01781  -1.85499  -1.73354
 Alpha  occ. eigenvalues --   -1.72830  -1.69752  -1.32371  -1.07570  -1.01537
 Alpha  occ. eigenvalues --   -0.88126  -0.78951  -0.76754  -0.74202  -0.70948
 Alpha  occ. eigenvalues --   -0.67899  -0.64385  -0.63902  -0.62939  -0.59195
 Alpha  occ. eigenvalues --   -0.58897  -0.58424  -0.52408  -0.47805  -0.42668
 Alpha  occ. eigenvalues --   -0.39977  -0.39203  -0.37289  -0.35326  -0.34689
 Alpha  occ. eigenvalues --   -0.33665  -0.33051
 Alpha virt. eigenvalues --    0.03028   0.04471   0.04912   0.05123   0.06819
 Alpha virt. eigenvalues --    0.07208   0.07518   0.08622   0.09360   0.09779
 Alpha virt. eigenvalues --    0.11298   0.12414   0.13439   0.14297   0.14487

 Mulliken charges:
               1
     1  C    2.173661
     2  N    3.716934
     3  B    7.648623
     4  N    3.509262
     5  C   -2.960565
     6  O   -2.855256
     7  O   -4.379303
     8  O   -2.711076
     9  O   -4.676708
    10  O   -3.081024
    11  O   -2.844894
    12  H    1.362049
    13  H    1.223717
    14  H    1.346435
    15  H    1.564900
    16  H    0.963245
 Sum of Mulliken charges =  -0.00000

 Dipole moment (field-independent basis, Debye):
    X=              1.3300    Y=             -0.3651    Z=              1.2244  Tot=              1.8443

 Test job not archived.
 1\1\GINC-SE458\SP\RHF\Aug-CC-pVDZ\C2H5B1N2O6\OHZDE\09-Apr-2025\0\\#t h
 f aug-cc-pvdz iop(5/13=1,5/36=2,99/5=2) pseudo=read geom=check guess=(
 read,tcheck) scf=(maxcycle=1)\\title\\0,1\C,0,-0.068169,0.041864,0.435
 688\N,0,-0.415315,1.332798,-0.338006\B,0,1.448167,-0.379905,0.010372\N
 ,0,-1.06666,-0.989408,-0.118593\C,0,-0.302544,0.287147,1.911682\O,0,-1
 .056065,-1.137058,-1.337826\O,0,1.732959,-1.048078,-1.1251\O,0,0.50480
 7,1.858583,-0.942639\O,0,2.400723,-0.065356,0.918291\O,0,-1.554728,1.7
 42308,-0.258625\O,0,-1.75905,-1.60323,0.660639\H,0,0.39514,1.051604,2.

 Normal termination of Gaussian 16 at Wed Apr  9 00:29:09 2025.
