 Gaussian 16, Revision C.01,

 ----------------------------------------------------------------------
 #t hf aug-cc-pvdz symm=none int=(grid=ultrafine) guess=(read,tcheck) s
 table=(opt,rrhf)
 ----------------------------------------------------------------------
 -----
 title
 -----
 Symbolic Z-matrix:
 Charge =  0 Multiplicity = 1

 SCF Done:  E(RHF) =  -253.195023803     A.U. after   13 cycles
 Normal termination of Gaussian 16 at Wed Apr  9 00:29:45 2025.
 Gaussian 16:  ES64L-G16RevC.01  3-Jul-2019

 ----------------------------------------------------------------------
 #t hf aug-cc-pvdz iop(5/13=1,5/36=2,99/5=2) pseudo=read geom=check gue
 ss=(read,tcheck) scf=(maxcycle=1)
 ----------------------------------------------------------------------
 -----
 title
 -----
 Structure from the checkpoint file:  "BDE49_nonexpt_325_mol1.chk"
 Charge =  0 Multiplicity = 1

                         Standard orientation:
 ---------------------------------------------------------------------
 Center     Atomic      Atomic             Coordinates (Angstroms)
 Number     Number       Type             X           Y           Z
 ---------------------------------------------------------------------
      1          6           0        0.911769   -0.661678    0.000021
      2          5           0       -0.518829   -0.028889    0.000005
      3          8           0       -0.771140    1.319441    0.000007
      4          8           0       -1.589927   -0.873657   -0.000014
      5          6           0        2.055640    0.026937   -0.000017
      6          1           0        0.972859   -1.748370    0.000059
      7          1           0        2.081384    1.115771   -0.000062
      8          1           0        3.029957   -0.452350   -0.000008
      9          1           0       -2.424888   -0.393366   -0.000023
     10          1           0        0.018919    1.864937    0.000034
 ---------------------------------------------------------------------

 SCF Done:  E(RHF) =  -254.293648848     A.U. after    2 cycles

 The electronic state is 1-A.
 Alpha  occ. eigenvalues --  -21.05972 -21.05103 -11.42214 -11.35874  -7.63709
 Alpha  occ. eigenvalues --   -1.81537  -1.65125  -1.15212  -0.86460  -0.73145
 Alpha  occ. eigenvalues --   -0.66013  -0.63765  -0.54195  -0.52009  -0.48870
 Alpha  occ. eigenvalues --   -0.42843  -0.37321  -0.36401  -0.36152
 Alpha virt. eigenvalues --    0.03090   0.04766   0.04849   0.05720   0.06657
 Alpha virt. eigenvalues --    0.07673   0.08352   0.09474   0.09522   0.10334
 Alpha virt. eigenvalues --    0.14846   0.15335   0.16515   0.16604   0.17742

 Mulliken charges:
               1
     1  C   -3.365681
     2  B    6.848062
     3  O   -3.606949
     4  O   -3.894817
     5  C   -2.309190
     6  H    1.576088
     7  H    1.136709
     8  H    1.308638
     9  H    1.062864
    10  H    1.244275
 Sum of Mulliken charges =   0.00000

 Dipole moment (field-independent basis, Debye):
    X=              0.7610    Y=              0.8788    Z=              0.0000  Tot=              1.1625

 Test job not archived.
 1\1\GINC-SE344\SP\RHF\Aug-CC-pVDZ\C2H5B1O2\OHZDE\09-Apr-2025\0\\#t hf
 aug-cc-pvdz iop(5/13=1,5/36=2,99/5=2) pseudo=read geom=check guess=(re
 ad,tcheck) scf=(maxcycle=1)\\title\\0,1\C,0,0.911769,-0.661678,0.00002
 1\B,0,-0.518829,-0.028889,0.000005\O,0,-0.77114,1.319441,0.000007\O,0,
 -1.589927,-0.873657,-0.000014\C,0,2.05564,0.026937,-0.000017\H,0,0.972
 859,-1.74837,0.000059\H,0,2.081384,1.115771,-0.000062\H,0,3.029957,-0.
 452351,-0.000008\H,0,-2.424888,-0.393365,-0.000023\H,0,0.01892,1.86493
 7,0.000034\\Version=ES64L-G16RevC.01\State=1-A\HF=-254.2936488\RMSD=4.

 Normal termination of Gaussian 16 at Wed Apr  9 00:29:48 2025.
