 Gaussian 16, Revision C.01,

 ----------------------------------------------------------------------
 #t hf aug-cc-pvdz symm=none int=(grid=ultrafine) guess=(read,tcheck) s
 table=(opt,rrhf)
 ----------------------------------------------------------------------
 -----
 title
 -----
 Symbolic Z-matrix:
 Charge =  0 Multiplicity = 1

 SCF Done:  E(RHF) =  -1172.22933196     A.U. after   13 cycles
 Normal termination of Gaussian 16 at Wed Apr  9 00:27:55 2025.
 Gaussian 16:  ES64L-G16RevC.01  3-Jul-2019

 ----------------------------------------------------------------------
 #t hf aug-cc-pvdz iop(5/13=1,5/36=2,99/5=2) pseudo=read geom=check gue
 ss=(read,tcheck) scf=(maxcycle=1)
 ----------------------------------------------------------------------
 -----
 title
 -----
 Structure from the checkpoint file:  "BDE49_nonexpt_283_mol1.chk"
 Charge =  0 Multiplicity = 1

                         Standard orientation:
 ---------------------------------------------------------------------
 Center     Atomic      Atomic             Coordinates (Angstroms)
 Number     Number       Type             X           Y           Z
 ---------------------------------------------------------------------
      1          6           0       -0.256063   -0.158161    0.311908
      2          5           0        1.264878    0.240454   -0.011632
      3          8           0        1.611553    1.253228   -0.842653
      4          8           0        2.218155   -0.511490    0.593634
      5          6           0       -0.512599   -0.814696    1.653275
      6          1           0        0.126381   -1.693650    1.747982
      7          1           0       -1.557517   -1.111000    1.752035
      8          1           0       -0.262546   -0.116097    2.455141
      9         17           0       -1.317466    1.328483    0.155141
     10         17           0       -0.719114   -1.321068   -1.028645
     11          1           0        3.108890   -0.254865    0.330460
     12          1           0        0.856574    1.750524   -1.176847
 ---------------------------------------------------------------------

 SCF Done:  E(RHF) =  -1173.83409408     A.U. after    2 cycles

 The electronic state is 1-A.
 Alpha  occ. eigenvalues --  -99.89911 -99.89640 -21.07353 -21.07289 -11.48961
 Alpha  occ. eigenvalues --  -11.39863 -10.47185 -10.46844  -9.67104  -9.66820
 Alpha  occ. eigenvalues --   -9.66483  -9.66331  -9.66173  -9.66049  -7.66472
 Alpha  occ. eigenvalues --   -1.83883  -1.67843  -1.39918  -1.28175  -1.12491
 Alpha  occ. eigenvalues --   -0.93639  -0.77412  -0.69714  -0.67810  -0.64409
 Alpha  occ. eigenvalues --   -0.61081  -0.56866  -0.56091  -0.52405  -0.51029
 Alpha  occ. eigenvalues --   -0.49175  -0.48930  -0.48322  -0.44346  -0.38834
 Alpha  occ. eigenvalues --   -0.38079
 Alpha virt. eigenvalues --    0.02868   0.04037   0.04875   0.04927   0.05649
 Alpha virt. eigenvalues --    0.07216   0.07459   0.07917   0.08301   0.09479
 Alpha virt. eigenvalues --    0.10288   0.12175   0.13216   0.13956   0.15720

 Mulliken charges:
               1
     1  C   -3.324348
     2  B    8.769399
     3  O   -4.055478
     4  O   -4.327839
     5  C   -3.441740
     6  H    1.366552
     7  H    1.219852
     8  H    1.243980
     9  Cl   0.057562
    10  Cl   0.221277
    11  H    1.037381
    12  H    1.233404
 Sum of Mulliken charges =  -0.00000

 Dipole moment (field-independent basis, Debye):
    X=              1.7052    Y=              0.0583    Z=              1.3574  Tot=              2.1803

 Test job not archived.
 1\1\GINC-SE096\SP\RHF\Aug-CC-pVDZ\C2H5B1Cl2O2\OHZDE\09-Apr-2025\0\\#t
 hf aug-cc-pvdz iop(5/13=1,5/36=2,99/5=2) pseudo=read geom=check guess=
 (read,tcheck) scf=(maxcycle=1)\\title\\0,1\C,0,-0.256063,-0.158161,0.3
 11908\B,0,1.264878,0.240454,-0.011632\O,0,1.611553,1.253228,-0.842653\
 O,0,2.218155,-0.51149,0.593634\C,0,-0.512599,-0.814696,1.653275\H,0,0.
 126381,-1.69365,1.747982\H,0,-1.557517,-1.110999,1.752035\H,0,-0.26254
 6,-0.116097,2.455141\Cl,0,-1.317466,1.328484,0.155141\Cl,0,-0.719114,-
 1.321068,-1.028645\H,0,3.10889,-0.254866,0.33046\H,0,0.856575,1.750524

 Normal termination of Gaussian 16 at Wed Apr  9 00:28:01 2025.
