 Gaussian 16, Revision C.01,

 ----------------------------------------------------------------------
 #t hf aug-cc-pvdz symm=none int=(grid=ultrafine) guess=(read,tcheck) s
 table=(opt,rrhf)
 ----------------------------------------------------------------------
 -----
 title
 -----
 Symbolic Z-matrix:
 Charge =  0 Multiplicity = 1

 SCF Done:  E(RHF) =  -999.707272085     A.U. after   15 cycles
 Normal termination of Gaussian 16 at Wed Apr  9 00:26:43 2025.
 Gaussian 16:  ES64L-G16RevC.01  3-Jul-2019

 ----------------------------------------------------------------------
 #t hf aug-cc-pvdz iop(5/13=1,5/36=2,99/5=2) pseudo=read geom=check gue
 ss=(read,tcheck) scf=(maxcycle=1)
 ----------------------------------------------------------------------
 -----
 title
 -----
 Structure from the checkpoint file:  "BDE49_nonexpt_2750_mol1.chk"
 Charge =  0 Multiplicity = 1

                         Standard orientation:
 ---------------------------------------------------------------------
 Center     Atomic      Atomic             Coordinates (Angstroms)
 Number     Number       Type             X           Y           Z
 ---------------------------------------------------------------------
      1         16           0        1.845705    0.323326   -0.090179
      2         16           0        0.265333   -0.952049    0.016433
      3          7           0       -1.257814    0.217911   -0.002177
      4          8           0       -2.291236   -0.406895   -0.006001
      5          8           0       -1.082577    1.404473    0.001827
      6          1           0        2.018596    0.553564    1.228568
 ---------------------------------------------------------------------

 SCF Done:  E(RHF) =  -1001.00808856     A.U. after    2 cycles

 The electronic state is 1-A.
 Alpha  occ. eigenvalues --  -75.79099 -75.76150 -21.12689 -21.12077 -16.02376
 Alpha  occ. eigenvalues --  -13.20847 -13.17842 -13.15450 -13.12865 -13.10174
 Alpha  occ. eigenvalues --  -13.08367  -8.12658  -8.10018  -2.01658  -1.72460
 Alpha  occ. eigenvalues --   -1.27871  -1.07922  -0.88371  -0.71416  -0.68428
 Alpha  occ. eigenvalues --   -0.63130  -0.55809  -0.42825  -0.36386  -0.33852
 Alpha  occ. eigenvalues --   -0.32689  -0.30512  -0.29027
 Alpha virt. eigenvalues --    0.01788   0.04227   0.07962   0.09233   0.09884
 Alpha virt. eigenvalues --    0.11485   0.12611   0.14262   0.15436   0.16455
 Alpha virt. eigenvalues --    0.16725   0.18393   0.18858   0.20764   0.22169

 Mulliken charges:
               1
     1  S   -1.098822
     2  S    0.301563
     3  N    4.577443
     4  O   -2.530926
     5  O   -2.528113
     6  H    1.278856
 Sum of Mulliken charges =   0.00000

 Dipole moment (field-independent basis, Debye):
    X=              2.7629    Y=             -0.8009    Z=             -0.7999  Tot=              2.9857

 Test job not archived.
 1\1\GINC-SE462\SP\RHF\Aug-CC-pVDZ\H1N1O2S2\OHZDE\09-Apr-2025\0\\#t hf
 aug-cc-pvdz iop(5/13=1,5/36=2,99/5=2) pseudo=read geom=check guess=(re
 ad,tcheck) scf=(maxcycle=1)\\title\\0,1\S,0,1.845705,0.323326,-0.09017
 9\S,0,0.265333,-0.952049,0.016433\N,0,-1.257814,0.217911,-0.002177\O,0
 ,-2.291236,-0.406895,-0.006001\O,0,-1.082577,1.404473,0.001827\H,0,2.0
 18596,0.553564,1.228568\\Version=ES64L-G16RevC.01\State=1-A\HF=-1001.0
 080886\RMSD=9.609e-02\Dipole=1.0869913,-0.3150976,-0.3146909\Quadrupol
 e=-0.1167291,0.0357067,0.0810224,2.2113633,-0.8730203,0.0744905\PG=C01

 Normal termination of Gaussian 16 at Wed Apr  9 00:26:45 2025.
