 Gaussian 16, Revision C.01,

 ----------------------------------------------------------------------
 #t hf aug-cc-pvdz symm=none int=(grid=ultrafine) guess=(read,tcheck) s
 table=(opt,rrhf)
 ----------------------------------------------------------------------
 -----
 title
 -----
 Symbolic Z-matrix:
 Charge =  0 Multiplicity = 1

 SCF Done:  E(RHF) =  -1865.02763071     A.U. after   18 cycles
 Normal termination of Gaussian 16 at Tue Apr  8 23:26:27 2025.
 Gaussian 16:  ES64L-G16RevC.01  3-Jul-2019

 ----------------------------------------------------------------------
 #t hf aug-cc-pvdz iop(5/13=1,5/36=2,99/5=2) pseudo=read geom=check gue
 ss=(read,tcheck) scf=(maxcycle=1)
 ----------------------------------------------------------------------
 -----
 title
 -----
 Structure from the checkpoint file:  "BDE49_nonexpt_1261_mol1.chk"
 Charge =  0 Multiplicity = 1

                         Standard orientation:
 ---------------------------------------------------------------------
 Center     Atomic      Atomic             Coordinates (Angstroms)
 Number     Number       Type             X           Y           Z
 ---------------------------------------------------------------------
      1         17           0        2.864038   -0.673082   -0.180353
      2         17           0       -2.713088   -0.424241   -0.889002
      3          8           0        0.065540   -1.984906    1.168110
      4          8           0        1.519517    2.270820    0.241943
      5         15           0       -1.694951    0.133175    0.877969
      6         15           0        0.946059   -0.223328   -0.799674
      7          6           0       -0.130357   -0.976236    0.565674
      8          6           0       -0.825402    1.698981    0.303540
      9          1           0       -1.323275    2.068654   -0.597645
     10          1           0       -0.906465    2.470921    1.073171
     11          6           0        0.658511    1.473906    0.005564
 ---------------------------------------------------------------------

 SCF Done:  E(RHF) =  -1866.99779892     A.U. after    2 cycles

 The electronic state is 1-A.
 Alpha  occ. eigenvalues -- -105.27035-105.25630 -99.92069 -99.91679 -21.12428
 Alpha  occ. eigenvalues --  -21.10761 -11.53251 -11.51834 -11.44198 -10.49311
 Alpha  occ. eigenvalues --  -10.48975  -9.69203  -9.68847  -9.68542  -9.68505
 Alpha  occ. eigenvalues --   -9.68114  -9.68096  -2.84970  -2.84289  -1.76988
 Alpha  occ. eigenvalues --   -1.75848  -1.57020  -1.55744  -1.54017  -1.53875
 Alpha  occ. eigenvalues --   -1.52597  -1.52234  -1.26027  -1.25024  -1.11894
 Alpha  occ. eigenvalues --   -0.88677  -0.82440  -0.71055  -0.66332  -0.64072
 Alpha  occ. eigenvalues --   -0.58812  -0.56998  -0.55971  -0.55560  -0.55507
 Alpha  occ. eigenvalues --   -0.51639  -0.50056  -0.49177  -0.47062  -0.46343
 Alpha  occ. eigenvalues --   -0.38787  -0.27872  -0.16138  -0.09355  -0.02548
 Alpha virt. eigenvalues --    0.03718   0.05265   0.05951   0.07200   0.07858
 Alpha virt. eigenvalues --    0.08339   0.08636   0.09230   0.09996   0.10969
 Alpha virt. eigenvalues --    0.11511   0.12465   0.13028   0.13615   0.14005

 Mulliken charges:
               1
     1  Cl  -1.326396
     2  Cl  -1.413529
     3  O   -2.878134
     4  O   -2.935442
     5  P    5.774523
     6  P    5.203732
     7  C   -0.914635
     8  C   -5.527656
     9  H    1.240137
    10  H    1.352660
    11  C    1.424740
 Sum of Mulliken charges =  -0.00000

 Dipole moment (field-independent basis, Debye):
    X=             -1.6267    Y=              0.1808    Z=             -1.9991  Tot=              2.5837

 Test job not archived.
 1\1\GINC-SE074\SP\RHF\Aug-CC-pVDZ\C3H2Cl2O2P2\OHZDE\08-Apr-2025\0\\#t
 hf aug-cc-pvdz iop(5/13=1,5/36=2,99/5=2) pseudo=read geom=check guess=
 (read,tcheck) scf=(maxcycle=1)\\title\\0,1\Cl,0,2.864038,-0.673082,-0.
 180353\Cl,0,-2.713088,-0.424241,-0.889002\O,0,0.06554,-1.984906,1.1681
 1\O,0,1.519517,2.27082,0.241943\P,0,-1.694951,0.133175,0.877969\P,0,0.
 946059,-0.223328,-0.799674\C,0,-0.130357,-0.976236,0.565674\C,0,-0.825
 402,1.698981,0.30354\H,0,-1.323275,2.068654,-0.597645\H,0,-0.906465,2.
 470921,1.073171\C,0,0.658511,1.473906,0.005564\\Version=ES64L-G16RevC.

 Normal termination of Gaussian 16 at Tue Apr  8 23:26:34 2025.
