 Gaussian 16, Revision C.01,

 ----------------------------------------------------------------------
 #t hf aug-cc-pvdz symm=none int=(grid=ultrafine) guess=(read,tcheck) s
 table=opt
 ----------------------------------------------------------------------
 -----
 title
 -----
 Symbolic Z-matrix:
 Charge =  0 Multiplicity = 2

 SCF Done:  E(UHF) =  -429.872389963     A.U. after   16 cycles
 Normal termination of Gaussian 16 at Tue Apr  8 23:55:24 2025.
 Gaussian 16:  ES64L-G16RevC.01  3-Jul-2019

 ----------------------------------------------------------------------
 #t hf aug-cc-pvdz iop(5/13=1,5/36=2,99/5=2) pseudo=read geom=check gue
 ss=(read,tcheck) scf=(maxcycle=1)
 ----------------------------------------------------------------------
 -----
 title
 -----
 Structure from the checkpoint file:  "BDE49_nonexpt_1963_mol2.chk"
 Charge =  0 Multiplicity = 2

                         Standard orientation:
 ---------------------------------------------------------------------
 Center     Atomic      Atomic             Coordinates (Angstroms)
 Number     Number       Type             X           Y           Z
 ---------------------------------------------------------------------
      1         14           0       -1.507551   -0.124251   -0.059398
      2          5           0        0.481580    0.108115    0.001832
      3          1           0       -2.410579    0.971353    0.363372
      4          1           0       -2.084255   -1.447158    0.281012
      5          8           0        0.912351    1.401825    0.007228
      6          6           0        1.474896   -1.117513    0.006328
      7          1           0        1.547772   -1.526507    1.022476
      8          1           0        2.491710   -0.850859   -0.308892
      9          1           0        1.131593   -1.941055   -0.626465
     10          1           0        1.873385    1.483649   -0.004884
 ---------------------------------------------------------------------

 SCF Done:  E(UHF) =  -430.638676509     A.U. after    2 cycles

 The electronic state is 2-A.
 Alpha  occ. eigenvalues --  -76.20286 -21.06879 -11.34201  -7.62464  -5.53884
 Alpha  occ. eigenvalues --   -2.17144  -2.15992  -2.14090  -1.74106  -1.06937
 Alpha  occ. eigenvalues --   -0.80257  -0.67502  -0.58986  -0.57076  -0.56077
 Alpha  occ. eigenvalues --   -0.46076  -0.43148  -0.41657  -0.35731  -0.24079
 Alpha virt. eigenvalues --    0.02898   0.04101   0.05068   0.05096   0.07534
 Alpha virt. eigenvalues --    0.08177   0.08758   0.09398   0.09562   0.09661
 Alpha virt. eigenvalues --    0.09880   0.10392   0.11160   0.13599   0.15317

  Beta  occ. eigenvalues --  -76.19786 -21.06778 -11.34209  -7.62535  -5.53139
  Beta  occ. eigenvalues --   -2.16547  -2.15334  -2.10485  -1.73897  -1.06827
  Beta  occ. eigenvalues --   -0.77150  -0.65814  -0.58931  -0.56951  -0.55892
  Beta  occ. eigenvalues --   -0.46228  -0.42363  -0.41389  -0.35047
  Beta virt. eigenvalues --    0.02850   0.03451   0.04307   0.05134   0.06284
  Beta virt. eigenvalues --    0.07677   0.08254   0.08859   0.09597   0.09780
  Beta virt. eigenvalues --    0.10062   0.10999   0.11200   0.11726   0.15110

 Mulliken charges and spin densities:
               1          2
     1  Si   4.128160   1.106636
     2  B    3.239445   0.024621
     3  H   -1.497859  -0.070298
     4  H   -1.404201  -0.088262
     5  O   -4.105334   0.051380
     6  C   -5.304095  -0.020789
     7  H    1.094637   0.012145
     8  H    1.189893   0.002546
     9  H    1.301389  -0.014737
    10  H    1.357965  -0.003243
 Sum of Mulliken charges =  -0.00000   1.00000

 Dipole moment (field-independent basis, Debye):
    X=              1.5853    Y=              0.0772    Z=              0.0031  Tot=              1.5871
                          Isotropic Fermi Contact Couplings
        Atom                 a.u.       MegaHertz       Gauss      10(-4) cm-1
     1  Si(29)             0.25286    -224.72049     -80.18586     -74.95869
     2  B(11)             -0.00974     -13.97443      -4.98642      -4.66137
     3  H(1)              -0.00833     -37.25223     -13.29252     -12.42601
     4  H(1)              -0.00870     -38.90803     -13.88335     -12.97832
     5  O(17)              0.00243      -1.47448      -0.52613      -0.49183
     6  C(13)             -0.00173      -1.94489      -0.69398      -0.64874
     7  H(1)               0.00125       5.59810       1.99754       1.86732
     8  H(1)               0.00052       2.33218       0.83218       0.77793

 1\1\GINC-SE252\SP\UHF\Aug-CC-pVDZ\C1H6B1O1Si1(2)\OHZDE\08-Apr-2025\0\\
 #t hf aug-cc-pvdz iop(5/13=1,5/36=2,99/5=2) pseudo=read geom=check gue
 ss=(read,tcheck) scf=(maxcycle=1)\\title\\0,2\Si,0,-1.507551,-0.124251
 ,-0.059398\B,0,0.48158,0.108115,0.001832\H,0,-2.410579,0.971353,0.3633
 72\H,0,-2.084255,-1.447158,0.281012\O,0,0.912351,1.401825,0.007228\C,0
 ,1.474896,-1.117513,0.006328\H,0,1.547772,-1.526507,1.022476\H,0,2.491
 71,-0.850859,-0.308892\H,0,1.131593,-1.941055,-0.626465\H,0,1.873385,1
 .483649,-0.004884\\Version=ES64L-G16RevC.01\State=2-A\HF=-430.6386765\

 Normal termination of Gaussian 16 at Tue Apr  8 23:55:27 2025.
