 Gaussian 16, Revision C.01,

 ----------------------------------------------------------------------
 #t hf aug-cc-pvdz symm=none int=(grid=ultrafine) guess=(read,tcheck) s
 table=(opt,rrhf)
 ----------------------------------------------------------------------
 -----
 title
 -----
 Symbolic Z-matrix:
 Charge =  0 Multiplicity = 1

 SCF Done:  E(RHF) =  -990.248319769     A.U. after   13 cycles

 1\1\GINC-SE361\Stability\RHF\Aug-CC-pVDZ\C5H10S2\OHZDE\08-Apr-2025\0\\
 #t hf aug-cc-pvdz symm=none int=(grid=ultrafine) guess=(read,tcheck) s
 table=(opt,rrhf)\\title\\0,1\S,0,0.24843,1.510373,0.006939\C,0,1.84607
 6,0.655027,-0.258562\C,0,1.747864,-0.72878,0.368305\H,0,2.617229,1.262
 254,0.222431\H,0,2.0595,0.584133,-1.325867\S,0,0.203111,-1.484749,-0.2
 38147\H,0,1.745659,-0.672449,1.458508\H,0,2.567458,-1.377769,0.049914\
 C,0,-0.872166,0.005209,0.025583\C,0,-1.584872,-0.057071,1.381828\H,0,-
 0.873284,-0.172513,2.199568\H,0,-2.280768,-0.900637,1.40373\H,0,-2.153

 Normal termination of Gaussian 16 at Tue Apr  8 23:06:28 2025.
 Gaussian 16:  ES64L-G16RevC.01  3-Jul-2019

 ----------------------------------------------------------------------
 #t hf aug-cc-pvdz iop(5/13=1,5/36=2,99/5=2) pseudo=read geom=check gue
 ss=(read,tcheck) scf=(maxcycle=1)
 ----------------------------------------------------------------------
 -----
 title
 -----
 Structure from the checkpoint file:  "BDE49_expt_379_mol1.chk"
 Charge =  0 Multiplicity = 1

                         Standard orientation:
 ---------------------------------------------------------------------
 Center     Atomic      Atomic             Coordinates (Angstroms)
 Number     Number       Type             X           Y           Z
 ---------------------------------------------------------------------
      1         16           0        0.248430    1.510373    0.006939
      2          6           0        1.846076    0.655027   -0.258562
      3          6           0        1.747864   -0.728780    0.368305
      4          1           0        2.617229    1.262253    0.222431
      5          1           0        2.059500    0.584133   -1.325867
      6         16           0        0.203111   -1.484749   -0.238147
      7          1           0        1.745659   -0.672449    1.458508
      8          1           0        2.567458   -1.377770    0.049914
      9          6           0       -0.872166    0.005209    0.025583
     10          6           0       -1.584872   -0.057071    1.381828
     11          1           0       -0.873284   -0.172513    2.199568
     12          1           0       -2.280768   -0.900636    1.403730
     13          1           0       -2.153613    0.862148    1.555048
     14          6           0       -1.883064    0.078130   -1.124656
     15          1           0       -1.379247    0.166919   -2.086608
     16          1           0       -2.540466    0.942130   -0.994252
     17          1           0       -2.510147   -0.819289   -1.138126
 ---------------------------------------------------------------------

 SCF Done:  E(RHF) =  -991.717618155     A.U. after    2 cycles

 The electronic state is 1-A.
 Alpha  occ. eigenvalues --  -75.67709 -75.67336 -13.14939 -13.12770 -13.11322
 Alpha  occ. eigenvalues --  -13.08648 -13.06071 -13.03183 -11.45533 -11.43907
 Alpha  occ. eigenvalues --  -11.39514 -11.39303 -11.36738  -8.01841  -8.01305
 Alpha  occ. eigenvalues --   -1.34737  -1.18093  -1.10077  -1.01488  -0.98967
 Alpha  occ. eigenvalues --   -0.85334  -0.77025  -0.65858  -0.62753  -0.60070
 Alpha  occ. eigenvalues --   -0.59782  -0.58039  -0.54742  -0.53538  -0.47890
 Alpha  occ. eigenvalues --   -0.42059  -0.41160  -0.40156  -0.31687  -0.22951
 Alpha  occ. eigenvalues --   -0.22631
 Alpha virt. eigenvalues --    0.03405   0.03741   0.05025   0.05484   0.06396
 Alpha virt. eigenvalues --    0.06540   0.06861   0.07509   0.08413   0.08571
 Alpha virt. eigenvalues --    0.08937   0.10526   0.11012   0.12658   0.13284

 Mulliken charges:
               1
     1  S    0.547779
     2  C   -3.582538
     3  C   -3.735274
     4  H    1.399474
     5  H    1.532317
     6  S    0.651102
     7  H    1.513405
     8  H    1.337642
     9  C    1.063132
    10  C   -4.256435
    11  H    1.423498
    12  H    1.232110
    13  H    1.261236
    14  C   -4.258702
    15  H    1.428189
    16  H    1.200394
    17  H    1.242670
 Sum of Mulliken charges =  -0.00000

 Dipole moment (field-independent basis, Debye):
    X=              0.2322    Y=             -0.1627    Z=             -0.1857  Tot=              0.3390

 Test job not archived.
 1\1\GINC-SE361\SP\RHF\Aug-CC-pVDZ\C5H10S2\OHZDE\08-Apr-2025\0\\#t hf a
 ug-cc-pvdz iop(5/13=1,5/36=2,99/5=2) pseudo=read geom=check guess=(rea
 d,tcheck) scf=(maxcycle=1)\\title\\0,1\S,0,0.24843,1.510373,0.006939\C
 ,0,1.846076,0.655027,-0.258562\C,0,1.747864,-0.72878,0.368305\H,0,2.61
 7229,1.262254,0.222431\H,0,2.0595,0.584133,-1.325867\S,0,0.203111,-1.4
 84749,-0.238147\H,0,1.745659,-0.672449,1.458508\H,0,2.567458,-1.377769
 ,0.049914\C,0,-0.872166,0.005209,0.025583\C,0,-1.584872,-0.057071,1.38
 1828\H,0,-0.873284,-0.172513,2.199568\H,0,-2.280768,-0.900637,1.40373\

 Normal termination of Gaussian 16 at Tue Apr  8 23:06:35 2025.
