 Gaussian 16, Revision C.01,

 ----------------------------------------------------------------------
 #t hf aug-cc-pvdz symm=none int=(grid=ultrafine) guess=(read,tcheck) s
 table=(opt,rrhf)
 ----------------------------------------------------------------------
 -----
 title
 -----
 Symbolic Z-matrix:
 Charge =  0 Multiplicity = 1

 SCF Done:  E(RHF) =  -823.066480323     A.U. after   14 cycles
 Normal termination of Gaussian 16 at Tue Apr  8 22:53:00 2025.
 Gaussian 16:  ES64L-G16RevC.01  3-Jul-2019

 ----------------------------------------------------------------------
 #t hf aug-cc-pvdz iop(5/13=1,5/36=2,99/5=2) pseudo=read geom=check gue
 ss=(read,tcheck) scf=(maxcycle=1)
 ----------------------------------------------------------------------
 -----
 title
 -----
 Structure from the checkpoint file:  "BDE49_expt_1725_mol1.chk"
 Charge =  0 Multiplicity = 1

                         Standard orientation:
 ---------------------------------------------------------------------
 Center     Atomic      Atomic             Coordinates (Angstroms)
 Number     Number       Type             X           Y           Z
 ---------------------------------------------------------------------
      1          6           0       -1.620917    0.054459    0.795316
      2          6           0       -0.226923   -0.576738    0.758592
      3         17           0       -2.509308   -0.174802   -0.774814
      4          1           0       -1.621082    1.122890    1.000189
      5          1           0       -2.191144   -0.478623    1.548724
      6          7           0        0.776406    0.111920    0.141137
      7          6           0        0.623975    1.412762   -0.516682
      8          8           0       -0.055294   -1.659166    1.298010
      9          6           0        2.107405   -0.511837    0.113282
     10          6           0        1.018002    2.596720    0.372279
     11          1           0       -0.399976    1.522810   -0.871550
     12          1           0        1.247593    1.399300   -1.415409
     13          1           0        0.377102    2.658721    1.255635
     14          1           0        0.924751    3.534675   -0.182170
     15          1           0        2.051748    2.510405    0.715765
     16          6           0        2.292245   -1.463020   -1.070749
     17          1           0        2.238568   -1.055390    1.048778
     18          1           0        2.848192    0.291277    0.082848
     19          1           0        1.580282   -2.287211   -1.005208
     20          1           0        3.302716   -1.881340   -1.064913
     21          1           0        2.144267   -0.950078   -2.025120
 ---------------------------------------------------------------------

 SCF Done:  E(RHF) =  -825.057607576     A.U. after    2 cycles

 The electronic state is 1-A.
 Alpha  occ. eigenvalues --  -99.89199 -21.02545 -15.74744 -11.52250 -11.45330
 Alpha  occ. eigenvalues --  -11.44673 -11.42719 -11.38227 -11.36459 -10.46397
 Alpha  occ. eigenvalues --   -9.66361  -9.65747  -9.65607  -1.71178  -1.44382
 Alpha  occ. eigenvalues --   -1.33010  -1.16172  -1.11335  -1.04791  -0.92794
 Alpha  occ. eigenvalues --   -0.90661  -0.74952  -0.70655  -0.67771  -0.64724
 Alpha  occ. eigenvalues --   -0.63329  -0.61121  -0.58961  -0.56311  -0.54818
 Alpha  occ. eigenvalues --   -0.52307  -0.51849  -0.51080  -0.50140  -0.48880
 Alpha  occ. eigenvalues --   -0.47316  -0.45879  -0.45165  -0.29729  -0.29095
 Alpha virt. eigenvalues --    0.03246   0.04618   0.05106   0.05188   0.05613
 Alpha virt. eigenvalues --    0.05904   0.06041   0.06921   0.07042   0.07954
 Alpha virt. eigenvalues --    0.08489   0.08913   0.09040   0.11286   0.11907

 Mulliken charges:
               1
     1  C   -4.778886
     2  C    5.770816
     3  Cl   0.214054
     4  H    1.675913
     5  H    1.376924
     6  N   -2.765159
     7  C   -2.532892
     8  O   -3.307314
     9  C   -3.001506
    10  C   -3.759920
    11  H    1.804866
    12  H    1.639838
    13  H    1.465792
    14  H    1.117159
    15  H    1.430174
    16  C   -3.702788
    17  H    1.727334
    18  H    1.658516
    19  H    1.390799
    20  H    1.126886
    21  H    1.449391
 Sum of Mulliken charges =  -0.00000

 Dipole moment (field-independent basis, Debye):
    X=              2.0482    Y=              2.2081    Z=              0.3900  Tot=              3.0370

 Test job not archived.
 1\1\GINC-SE362\SP\RHF\Aug-CC-pVDZ\C6H12Cl1N1O1\OHZDE\08-Apr-2025\0\\#t
  hf aug-cc-pvdz iop(5/13=1,5/36=2,99/5=2) pseudo=read geom=check guess
 =(read,tcheck) scf=(maxcycle=1)\\title\\0,1\C,0,-1.620917,0.054459,0.7
 95316\C,0,-0.226923,-0.576738,0.758592\Cl,0,-2.509308,-0.174801,-0.774
 814\H,0,-1.621082,1.12289,1.000189\H,0,-2.191144,-0.478623,1.548724\N,
 0,0.776406,0.11192,0.141137\C,0,0.623975,1.412762,-0.516682\O,0,-0.055
 294,-1.659166,1.29801\C,0,2.107405,-0.511837,0.113282\C,0,1.018002,2.5
 9672,0.372279\H,0,-0.399976,1.52281,-0.87155\H,0,1.247593,1.3993,-1.41

 Normal termination of Gaussian 16 at Tue Apr  8 22:53:10 2025.
