 Gaussian 16, Revision C.01,

 ----------------------------------------------------------------------
 #t hf aug-cc-pvdz symm=none int=(grid=ultrafine) guess=(read,tcheck) s
 table=opt
 ----------------------------------------------------------------------
 -----
 title
 -----
 Symbolic Z-matrix:
 Charge =  0 Multiplicity = 2

 SCF Done:  E(UHF) =  -278.934681694     A.U. after   19 cycles
 Normal termination of Gaussian 16 at Tue Apr  8 23:34:28 2025.
 Gaussian 16:  ES64L-G16RevC.01  3-Jul-2019

 ----------------------------------------------------------------------
 #t hf aug-cc-pvdz iop(5/13=1,5/36=2,99/5=2) pseudo=read geom=check gue
 ss=(read,tcheck) scf=(maxcycle=1)
 ----------------------------------------------------------------------
 -----
 title
 -----
 Structure from the checkpoint file:  "BDE49_nonexpt_145_mol2.chk"
 Charge =  0 Multiplicity = 2

                         Standard orientation:
 ---------------------------------------------------------------------
 Center     Atomic      Atomic             Coordinates (Angstroms)
 Number     Number       Type             X           Y           Z
 ---------------------------------------------------------------------
      1          5           0        0.802483    1.964898   -0.078045
      2          5           0        0.027155    0.514246   -0.002640
      3          8           0       -1.340142    0.556766    0.003381
      4          8           0        0.650172   -0.709944   -0.000050
      5          6           0       -2.115314   -0.642395    0.005545
      6          1           0       -3.165096   -0.348477   -0.009067
      7          1           0       -1.916368   -1.237914    0.900977
      8          1           0       -1.895814   -1.254730   -0.873542
      9          6           0        2.067525   -0.812872    0.005359
     10          1           0        2.331276   -1.843033   -0.237146
     11          1           0        2.475890   -0.569915    0.992099
     12          1           0        2.522035   -0.152702   -0.743824
     13          1           0        1.306383    2.968076    0.281859
 ---------------------------------------------------------------------

 SCF Done:  E(UHF) =  -280.141652375     A.U. after    2 cycles

 The electronic state is 2-A.
 Alpha  occ. eigenvalues --  -21.02577 -21.01650 -11.41314 -11.39717  -7.62446
 Alpha  occ. eigenvalues --   -7.61784  -1.82953  -1.68648  -1.01881  -0.98152
 Alpha  occ. eigenvalues --   -0.83073  -0.66993  -0.63353  -0.62204  -0.59521
 Alpha  occ. eigenvalues --   -0.59257  -0.54174  -0.49333  -0.44018  -0.40331
 Alpha  occ. eigenvalues --   -0.34164  -0.33046  -0.26384
 Alpha virt. eigenvalues --    0.02192   0.02881   0.03827   0.04439   0.05915
 Alpha virt. eigenvalues --    0.07132   0.07518   0.07636   0.08863   0.09142
 Alpha virt. eigenvalues --    0.09798   0.10830   0.11102   0.11266   0.12815

  Beta  occ. eigenvalues --  -21.02501 -21.01500 -11.41315 -11.39734  -7.61893
  Beta  occ. eigenvalues --   -7.61081  -1.82713  -1.68411  -1.01650  -0.98044
  Beta  occ. eigenvalues --   -0.77916  -0.66194  -0.63209  -0.61920  -0.59398
  Beta  occ. eigenvalues --   -0.59124  -0.54143  -0.49098  -0.42240  -0.40091
  Beta  occ. eigenvalues --   -0.33553  -0.32228
  Beta virt. eigenvalues --    0.02444   0.02903   0.03166   0.03904   0.06194
  Beta virt. eigenvalues --    0.07065   0.07382   0.07690   0.08608   0.09643
  Beta virt. eigenvalues --    0.09866   0.10857   0.10950   0.11149   0.11696

 Mulliken charges and spin densities:
               1          2
     1  B   -1.854470   0.952520
     2  B    7.604574   0.024811
     3  O   -4.164349   0.086601
     4  O   -4.096662   0.024855
     5  C   -2.584745   0.000311
     6  H    1.222458   0.000462
     7  H    1.400760  -0.000503
     8  H    1.408200   0.001778
     9  C   -2.329046   0.013661
    10  H    1.309828  -0.000023
    11  H    1.477809  -0.008322
    12  H    1.484046  -0.006314
    13  H   -0.878405  -0.089837
 Sum of Mulliken charges =   0.00000   1.00000

 Dipole moment (field-independent basis, Debye):
    X=              0.6263    Y=             -0.9583    Z=              0.3557  Tot=              1.1987
                          Isotropic Fermi Contact Couplings
        Atom                 a.u.       MegaHertz       Gauss      10(-4) cm-1
     1  B(11)              0.07204     103.32831      36.87011      34.46661
     2  B(11)             -0.02375     -34.05910     -12.15314     -11.36089
     3  O(17)              0.00451      -2.73418      -0.97562      -0.91203
     4  O(17)              0.00420      -2.54320      -0.90748      -0.84832
     5  C(13)             -0.00248      -2.79065      -0.99577      -0.93086
     6  H(1)               0.00003       0.13770       0.04913       0.04593
     7  H(1)               0.00061       2.72684       0.97300       0.90958
     8  H(1)               0.00078       3.47373       1.23951       1.15871

 Normal termination of Gaussian 16 at Tue Apr  8 23:34:32 2025.
