 Gaussian 16, Revision C.01,

 ----------------------------------------------------------------------
 #t hf aug-cc-pvdz symm=none int=(grid=ultrafine) guess=(read,tcheck) s
 table=(opt,rrhf)
 ----------------------------------------------------------------------
 -----
 title
 -----
 Symbolic Z-matrix:
 Charge =  0 Multiplicity = 1

 SCF Done:  E(RHF) =  -1753.31192453     A.U. after   16 cycles
 Normal termination of Gaussian 16 at Tue Apr  8 23:09:15 2025.
 Gaussian 16:  ES64L-G16RevC.01  3-Jul-2019

 ----------------------------------------------------------------------
 #t hf aug-cc-pvdz iop(5/13=1,5/36=2,99/5=2) pseudo=read geom=check gue
 ss=(read,tcheck) scf=(maxcycle=1)
 ----------------------------------------------------------------------
 -----
 title
 -----
 Structure from the checkpoint file:  "BDE49_expt_1888_mol1.chk"
 Charge =  0 Multiplicity = 1

                         Standard orientation:
 ---------------------------------------------------------------------
 Center     Atomic      Atomic             Coordinates (Angstroms)
 Number     Number       Type             X           Y           Z
 ---------------------------------------------------------------------
      1          6           0        3.387405    0.587553    0.849852
      2          6           0        4.761286    0.793966    0.862500
      3          6           0        5.568821    0.047284    0.008268
      4          6           0        5.028498   -0.899425   -0.859125
      5          6           0        3.655086   -1.098909   -0.866536
      6          6           0        2.827057   -0.360878   -0.013859
      7          1           0        2.753076    1.166667    1.507057
      8          1           0        5.204589    1.525791    1.524670
      9          6           0        1.368506   -0.637429   -0.086680
     10          8           0        0.822938   -1.406975   -0.820320
     11          8           0        0.699712    0.139143    0.851004
     12          8           0       -0.699709   -0.139090    0.851012
     13          6           0       -1.368516    0.637495   -0.086653
     14          8           0       -0.822956    1.407030   -0.820310
     15          6           0       -2.827061    0.360909   -0.013846
     16          6           0       -3.387396   -0.587535    0.849859
     17          6           0       -3.655100    1.098920   -0.866531
     18          6           0       -5.028508    0.899404   -0.859133
     19          6           0       -4.761272   -0.793980    0.862496
     20          6           0       -5.568816   -0.047316    0.008256
     21          1           0       -2.753059   -1.166635    1.507070
     22          1           0       -5.204565   -1.525815    1.524662
     23          1           0        5.675717   -1.466291   -1.515180
     24          1           0       -5.675734    1.466256   -1.515193
     25          1           0        3.206576   -1.825991   -1.531527
     26          1           0       -3.206600    1.826012   -1.531518
     27         17           0        7.300043    0.305336    0.023709
     28         17           0       -7.300033   -0.305407    0.023682
 ---------------------------------------------------------------------

 SCF Done:  E(RHF) =  -1757.49230970     A.U. after    2 cycles

 The electronic state is 1-A.
 Alpha  occ. eigenvalues --  -99.91048 -99.91046 -21.15719 -21.15416 -21.07595
 Alpha  occ. eigenvalues --  -21.07584 -11.57272 -11.56856 -11.54767 -11.54519
 Alpha  occ. eigenvalues --  -11.48852 -11.48226 -11.47497 -11.47453 -11.46912
 Alpha  occ. eigenvalues --  -11.45722 -11.44528 -11.44420 -11.40433 -11.40416
 Alpha  occ. eigenvalues --  -10.48426 -10.48403  -9.68445  -9.68423  -9.67532
 Alpha  occ. eigenvalues --   -9.67531  -9.67352  -9.67351  -2.04653  -1.76284
 Alpha  occ. eigenvalues --   -1.71972  -1.52095  -1.42335  -1.41622  -1.30487
 Alpha  occ. eigenvalues --   -1.29950  -1.13061  -1.12950  -1.12828  -1.12161
 Alpha  occ. eigenvalues --   -0.94844  -0.92155  -0.90853  -0.90646  -0.82898
 Alpha  occ. eigenvalues --   -0.78678  -0.74489  -0.73354  -0.69813  -0.68937
 Alpha  occ. eigenvalues --   -0.65231  -0.64940  -0.64447  -0.63311  -0.61575
 Alpha  occ. eigenvalues --   -0.61551  -0.59668  -0.59552  -0.58191  -0.57773
 Alpha  occ. eigenvalues --   -0.57660  -0.54288  -0.52698  -0.51835  -0.51477
 Alpha  occ. eigenvalues --   -0.50094  -0.49166  -0.48655  -0.47341  -0.46930
 Alpha  occ. eigenvalues --   -0.44282  -0.37137  -0.36606  -0.36121  -0.35579
 Alpha  occ. eigenvalues --   -0.35013  -0.33904  -0.31587  -0.31574
 Alpha virt. eigenvalues --    0.02686   0.04175   0.05181   0.05184   0.06108
 Alpha virt. eigenvalues --    0.06269   0.06981   0.07053   0.07160   0.07313
 Alpha virt. eigenvalues --    0.07531   0.07558   0.08812   0.08965   0.09468

 Mulliken charges:
               1
     1  C    0.586847
     2  C   -1.114547
     3  C   -3.777933
     4  C   -1.257807
     5  C   -1.381450
     6  C    2.344107
     7  H    2.038346
     8  H    1.797754
     9  C    3.694861
    10  O   -3.715208
    11  O   -2.274601
    12  O   -2.274598
    13  C    3.694935
    14  O   -3.715206
    15  C    2.344050
    16  C    0.586910
    17  C   -1.381345
    18  C   -1.257828
    19  C   -1.114679
    20  C   -3.777884
    21  H    2.038346
    22  H    1.797747
    23  H    1.725874
    24  H    1.725872
    25  H    1.872178
    26  H    1.872179
    27  Cl  -0.538449
    28  Cl  -0.538472
 Sum of Mulliken charges =   0.00000

 Dipole moment (field-independent basis, Debye):
    X=              0.0000    Y=             -0.0000    Z=              0.6860  Tot=              0.6860

 Test job not archived.
 1\1\GINC-SE393\SP\RHF\Aug-CC-pVDZ\C14H8Cl2O4\OHZDE\08-Apr-2025\0\\#t h
 f aug-cc-pvdz iop(5/13=1,5/36=2,99/5=2) pseudo=read geom=check guess=(
 read,tcheck) scf=(maxcycle=1)\\title\\0,1\C,0,-3.387405,-0.587553,0.84
 9852\C,0,-4.761286,-0.793966,0.8625\C,0,-5.568821,-0.047284,0.008268\C
 ,0,-5.028498,0.899425,-0.859125\C,0,-3.655086,1.098909,-0.866536\C,0,-
 2.827057,0.360878,-0.013859\H,0,-2.753076,-1.166667,1.507057\H,0,-5.20
 4589,-1.525791,1.52467\C,0,-1.368506,0.637429,-0.08668\O,0,-0.822938,1
 .406975,-0.82032\O,0,-0.699712,-0.139143,0.851004\O,0,0.699709,0.13909

 Normal termination of Gaussian 16 at Tue Apr  8 23:09:54 2025.
