 Gaussian 16, Revision C.01,

 ----------------------------------------------------------------------
 #t hf aug-cc-pvdz symm=none int=(grid=ultrafine) guess=(read,tcheck) s
 table=opt
 ----------------------------------------------------------------------
 -----
 title
 -----
 Symbolic Z-matrix:
 Charge =  0 Multiplicity = 2

 SCF Done:  E(UHF) =  -527.457014253     A.U. after   15 cycles
 Normal termination of Gaussian 16 at Tue Apr  8 23:55:55 2025.
 Gaussian 16:  ES64L-G16RevC.01  3-Jul-2019

 ----------------------------------------------------------------------
 #t hf aug-cc-pvdz iop(5/13=1,5/36=2,99/5=2) pseudo=read geom=check gue
 ss=(read,tcheck) scf=(maxcycle=1)
 ----------------------------------------------------------------------
 -----
 title
 -----
 Structure from the checkpoint file:  "BDE49_nonexpt_1977_mol2.chk"
 Charge =  0 Multiplicity = 2

                         Standard orientation:
 ---------------------------------------------------------------------
 Center     Atomic      Atomic             Coordinates (Angstroms)
 Number     Number       Type             X           Y           Z
 ---------------------------------------------------------------------
      1         14           0       -0.717629   -0.574967    0.112843
      2          6           0        1.066362   -0.340401   -0.491980
      3          9           0       -1.544605    0.786854   -0.162343
      4          1           0        1.098756    0.059292   -1.509565
      5          1           0        1.606347   -1.292840   -0.472042
      6          9           0        1.730915    0.561973    0.359465
      7          1           0       -0.733256   -0.813941    1.579581
 ---------------------------------------------------------------------

 SCF Done:  E(UHF) =  -528.462739336     A.U. after    2 cycles

 The electronic state is 2-A.
 Alpha  occ. eigenvalues --  -76.27450 -29.27402 -29.26233 -11.43208  -5.61757
 Alpha  occ. eigenvalues --   -2.26228  -2.23501  -2.21984  -1.15869  -0.86623
 Alpha  occ. eigenvalues --   -0.68578  -0.65575  -0.59706  -0.53006  -0.42341
 Alpha  occ. eigenvalues --   -0.37947  -0.34282  -0.33549  -0.27349  -0.25588
 Alpha  occ. eigenvalues --   -0.20253
 Alpha virt. eigenvalues --    0.03962   0.05228   0.05717   0.07217   0.08316
 Alpha virt. eigenvalues --    0.08506   0.12744   0.14043   0.15535   0.16356
 Alpha virt. eigenvalues --    0.17625   0.18182   0.20152   0.22802   0.24979

  Beta  occ. eigenvalues --  -76.26907 -29.27129 -29.26064 -11.42999  -5.60880
  Beta  occ. eigenvalues --   -2.25639  -2.22828  -2.18630  -1.15060  -0.83637
  Beta  occ. eigenvalues --   -0.68239  -0.65222  -0.58281  -0.51685  -0.38017
  Beta  occ. eigenvalues --   -0.36242  -0.34101  -0.33239  -0.25948  -0.23656
  Beta virt. eigenvalues --    0.02980   0.05321   0.05700   0.06225   0.08024
  Beta virt. eigenvalues --    0.08532   0.10716   0.13252   0.14530   0.15797
  Beta virt. eigenvalues --    0.18081   0.18463   0.20390   0.20871   0.24975

 Mulliken charges and spin densities:
               1          2
     1  Si   3.707426   0.899906
     2  C   -3.782451   0.034470
     3  F   -0.984896   0.010582
     4  H    1.289666  -0.017773
     5  H    1.384175  -0.008871
     6  F    0.141626   0.034657
     7  H   -1.755546   0.047030
 Sum of Mulliken charges =   0.00000   1.00000

 Dipole moment (field-independent basis, Debye):
    X=             -0.0735    Y=              2.5209    Z=             -0.0922  Tot=              2.5236
                          Isotropic Fermi Contact Couplings
        Atom                 a.u.       MegaHertz       Gauss      10(-4) cm-1
     1  Si(29)             0.41909    -372.45626    -132.90166    -124.23804
     2  C(13)              0.03816      42.89406      15.30567      14.30792
     3  F(19)              0.03644     153.32353      54.70965      51.14322
     4  H(1)              -0.00128      -5.73909      -2.04785      -1.91435
     5  H(1)              -0.00120      -5.35502      -1.91081      -1.78624
     6  F(19)              0.01183      49.76957      17.75902      16.60134
     7  H(1)               0.01544      68.99664      24.61972      23.01480
 --------------------------------------------------------

 Normal termination of Gaussian 16 at Tue Apr  8 23:55:57 2025.
