 Gaussian 16, Revision C.01,

 ----------------------------------------------------------------------
 #t hf aug-cc-pvdz symm=none int=(grid=ultrafine) guess=(read,tcheck) s
 table=(opt,rrhf)
 ----------------------------------------------------------------------
 -----
 title
 -----
 Symbolic Z-matrix:
 Charge =  0 Multiplicity = 1

 SCF Done:  E(RHF) =  -368.339084762     A.U. after   12 cycles
 Normal termination of Gaussian 16 at Wed Apr  9 00:41:50 2025.
 Gaussian 16:  ES64L-G16RevC.01  3-Jul-2019

 ----------------------------------------------------------------------
 #t hf aug-cc-pvdz iop(5/13=1,5/36=2,99/5=2) pseudo=read geom=check gue
 ss=(read,tcheck) scf=(maxcycle=1)
 ----------------------------------------------------------------------
 -----
 title
 -----
 Structure from the checkpoint file:  "BDE49_nonexpt_670_mol1.chk"
 Charge =  0 Multiplicity = 1

                         Standard orientation:
 ---------------------------------------------------------------------
 Center     Atomic      Atomic             Coordinates (Angstroms)
 Number     Number       Type             X           Y           Z
 ---------------------------------------------------------------------
      1          6           0       -0.777923   -0.826719   -0.347326
      2          8           0        0.176492    0.241109   -0.431206
      3          5           0        1.464466    0.080317   -0.010961
      4          8           0        2.347241    1.124302   -0.127023
      5          8           0        1.887155   -1.104823    0.527440
      6          6           0       -2.183041   -0.250912   -0.449013
      7          1           0       -0.644152   -1.366741    0.595675
      8          1           0       -0.593848   -1.531887   -1.164859
      9          6           0       -2.546045    0.681893    0.708806
     10          1           0       -2.886697   -1.090428   -0.490888
     11          1           0       -2.272415    0.282362   -1.401573
     12          1           0       -2.504983    0.154792    1.667405
     13          1           0       -3.556055    1.083018    0.591766
     14          1           0       -1.851842    1.523252    0.759387
     15          1           0        2.811308   -1.063517    0.788646
     16          1           0        1.931309    1.897286   -0.519246
 ---------------------------------------------------------------------

 SCF Done:  E(RHF) =  -369.964429954     A.U. after    2 cycles

 The electronic state is 1-A.
 Alpha  occ. eigenvalues --  -21.05355 -21.05266 -21.01788 -11.43892 -11.39083
 Alpha  occ. eigenvalues --  -11.35083  -7.65029  -1.88346  -1.68578  -1.65786
 Alpha  occ. eigenvalues --   -1.18350  -0.98505  -0.84336  -0.75787  -0.66271
 Alpha  occ. eigenvalues --   -0.64231  -0.61844  -0.56932  -0.56235  -0.51340
 Alpha  occ. eigenvalues --   -0.50318  -0.48044  -0.47044  -0.46493  -0.37738
 Alpha  occ. eigenvalues --   -0.36431  -0.35657  -0.33814
 Alpha virt. eigenvalues --    0.03711   0.04629   0.04858   0.05325   0.05935
 Alpha virt. eigenvalues --    0.06242   0.06444   0.06854   0.07251   0.08119
 Alpha virt. eigenvalues --    0.09297   0.09614   0.10316   0.13842   0.14666

 Mulliken charges:
               1
     1  C   -0.833081
     2  O   -5.526566
     3  B    9.106034
     4  O   -3.806897
     5  O   -4.041504
     6  C   -3.255105
     7  H    1.742936
     8  H    1.469397
     9  C   -3.686640
    10  H    1.311891
    11  H    1.434065
    12  H    1.277656
    13  H    1.157226
    14  H    1.408268
    15  H    1.123327
    16  H    1.118992
 Sum of Mulliken charges =  -0.00000

 Dipole moment (field-independent basis, Debye):
    X=             -0.4025    Y=             -0.0549    Z=             -0.1068  Tot=              0.4200

 Test job not archived.
 1\1\GINC-SE162\SP\RHF\Aug-CC-pVDZ\C3H9B1O3\OHZDE\09-Apr-2025\0\\#t hf
 aug-cc-pvdz iop(5/13=1,5/36=2,99/5=2) pseudo=read geom=check guess=(re
 ad,tcheck) scf=(maxcycle=1)\\title\\0,1\C,0,-0.777923,0.826719,0.34732
 6\O,0,0.176492,-0.241109,0.431206\B,0,1.464466,-0.080317,0.010961\O,0,
 2.347241,-1.124302,0.127023\O,0,1.887155,1.104823,-0.52744\C,0,-2.1830
 41,0.250912,0.449013\H,0,-0.644152,1.366741,-0.595675\H,0,-0.593848,1.
 531887,1.164859\C,0,-2.546045,-0.681893,-0.708806\H,0,-2.886697,1.0904
 28,0.490888\H,0,-2.272415,-0.282362,1.401573\H,0,-2.504983,-0.154792,-

 Normal termination of Gaussian 16 at Wed Apr  9 00:41:55 2025.
