 Gaussian 16, Revision C.01,

 ----------------------------------------------------------------------
 #t hf aug-cc-pvdz symm=none int=(grid=ultrafine) guess=(read,tcheck) s
 table=(opt,rrhf)
 ----------------------------------------------------------------------
 -----
 title
 -----
 Symbolic Z-matrix:
 Charge =  0 Multiplicity = 1

 SCF Done:  E(RHF) =  -1285.68654312     A.U. after   12 cycles
 Normal termination of Gaussian 16 at Tue Apr  8 23:44:51 2025.
 Gaussian 16:  ES64L-G16RevC.01  3-Jul-2019

 ----------------------------------------------------------------------
 #t hf aug-cc-pvdz iop(5/13=1,5/36=2,99/5=2) pseudo=read geom=check gue
 ss=(read,tcheck) scf=(maxcycle=1)
 ----------------------------------------------------------------------
 -----
 title
 -----
 Structure from the checkpoint file:  "BDE49_nonexpt_172_mol1.chk"
 Charge =  0 Multiplicity = 1

                         Standard orientation:
 ---------------------------------------------------------------------
 Center     Atomic      Atomic             Coordinates (Angstroms)
 Number     Number       Type             X           Y           Z
 ---------------------------------------------------------------------
      1         17           0       -0.941221   -1.516687    0.001274
      2         17           0       -0.941214    1.516690    0.001274
      3          5           0       -0.043127    0.000000    0.031270
      4         15           0        1.863322   -0.000003   -0.116802
      5          1           0        2.133597   -1.061018    0.776177
      6          1           0        2.133599    1.061010    0.776178
 ---------------------------------------------------------------------

 SCF Done:  E(RHF) =  -1286.47676866     A.U. after    2 cycles

 The electronic state is 1-A.
 Alpha  occ. eigenvalues -- -105.18917 -99.90848 -99.90838 -10.48256 -10.48015
 Alpha  occ. eigenvalues --   -9.68177  -9.67900  -9.67643  -9.67618  -9.67502
 Alpha  occ. eigenvalues --   -9.67396  -7.72824  -2.76283  -1.51751  -1.46083
 Alpha  occ. eigenvalues --   -1.43920  -1.37313  -1.30454  -0.83743  -0.72480
 Alpha  occ. eigenvalues --   -0.63524  -0.58340  -0.56717  -0.53246  -0.51101
 Alpha  occ. eigenvalues --   -0.26908  -0.21588  -0.06702
 Alpha virt. eigenvalues --    0.03819   0.04079   0.04536   0.04758   0.06404
 Alpha virt. eigenvalues --    0.09413   0.09613   0.10773   0.11627   0.11936
 Alpha virt. eigenvalues --    0.13811   0.15542   0.16713   0.17503   0.17705

 Mulliken charges:
               1
     1  Cl  -1.114622
     2  Cl  -1.114622
     3  B    1.429300
     4  P    2.009640
     5  H   -0.604848
     6  H   -0.604847
 Sum of Mulliken charges =  -0.00000

 Dipole moment (field-independent basis, Debye):
    X=              8.8982    Y=             -0.0000    Z=             -5.3832  Tot=             10.3998

 Test job not archived.
 1\1\GINC-SE029\SP\RHF\Aug-CC-pVDZ\B1Cl2H2P1\OHZDE\08-Apr-2025\0\\#t hf
  aug-cc-pvdz iop(5/13=1,5/36=2,99/5=2) pseudo=read geom=check guess=(r
 ead,tcheck) scf=(maxcycle=1)\\title\\0,1\Cl,0,-0.941222,-1.516686,0.00
 1274\Cl,0,-0.941213,1.516691,0.001274\B,0,-0.043127,0.,0.03127\P,0,1.8
 63322,-0.000005,-0.116802\H,0,2.133596,-1.06102,0.776177\H,0,2.1336,1.
 061008,0.776178\\Version=ES64L-G16RevC.01\State=1-A\HF=-1286.4767687\R
 MSD=2.130e-01\Dipole=3.5008116,-0.0000082,-2.1179145\Quadrupole=8.9571
 393,-3.8605675,-5.0965718,-0.0000324,-5.9197501,0.0000183\PG=C01 [X(B1

 Normal termination of Gaussian 16 at Tue Apr  8 23:44:53 2025.
