 Gaussian 16, Revision C.01,

 ----------------------------------------------------------------------
 #t hf aug-cc-pvdz symm=none int=(grid=ultrafine) guess=(read,tcheck) s
 table=(opt,rrhf)
 ----------------------------------------------------------------------
 -----
 title
 -----
 Symbolic Z-matrix:
 Charge =  0 Multiplicity = 1

 SCF Done:  E(RHF) =  -834.513591245     A.U. after   12 cycles
 Normal termination of Gaussian 16 at Wed Apr  9 00:14:18 2025.
 Gaussian 16:  ES64L-G16RevC.01  3-Jul-2019

 ----------------------------------------------------------------------
 #t hf aug-cc-pvdz iop(5/13=1,5/36=2,99/5=2) pseudo=read geom=check gue
 ss=(read,tcheck) scf=(maxcycle=1)
 ----------------------------------------------------------------------
 -----
 title
 -----
 Structure from the checkpoint file:  "BDE49_nonexpt_2454_mol1.chk"
 Charge =  0 Multiplicity = 1

                         Standard orientation:
 ---------------------------------------------------------------------
 Center     Atomic      Atomic             Coordinates (Angstroms)
 Number     Number       Type             X           Y           Z
 ---------------------------------------------------------------------
      1         14           0        2.816503    0.239961   -0.000015
      2         14           0        0.881141   -1.102543    0.000031
      3          5           0       -0.795310    0.070096   -0.000023
      4          1           0        0.913531   -2.001668    1.187913
      5          1           0        0.913556   -2.001770   -1.187775
      6          1           0        2.848282    1.106019   -1.203790
      7          1           0        4.046951   -0.591359    0.000023
      8          8           0       -2.091186   -0.347288   -0.000058
      9          8           0       -0.548456    1.408239    0.000004
     10          6           0       -2.505421   -1.708305    0.000027
     11          1           0       -3.113806   -1.892398   -0.888133
     12          1           0       -3.112331   -1.892819    0.889114
     13          1           0       -1.656102   -2.397119   -0.000847
     14          6           0       -1.614852    2.366190   -0.000001
     15          1           0       -1.157671    3.355033    0.000056
     16          1           0       -2.241228    2.250317    0.887665
     17          1           0       -2.241152    2.250386   -0.887730
     18          1           0        2.848272    1.106117    1.203689
 ---------------------------------------------------------------------

 SCF Done:  E(RHF) =  -835.963933705     A.U. after    2 cycles

 The electronic state is 1-A.
 Alpha  occ. eigenvalues --  -76.20487 -76.19526 -21.03387 -21.02681 -11.42017
 Alpha  occ. eigenvalues --  -11.40502  -7.63876  -5.53836  -5.53167  -2.16221
 Alpha  occ. eigenvalues --   -2.15891  -2.15890  -2.15681  -2.15007  -2.14338
 Alpha  occ. eigenvalues --   -1.83449  -1.69314  -1.02088  -0.98810  -0.81034
 Alpha  occ. eigenvalues --   -0.73252  -0.66542  -0.63800  -0.62473  -0.60171
 Alpha  occ. eigenvalues --   -0.59367  -0.54719  -0.47894  -0.47680  -0.45968
 Alpha  occ. eigenvalues --   -0.45182  -0.43212  -0.39711  -0.35654  -0.33605
 Alpha  occ. eigenvalues --   -0.30236
 Alpha virt. eigenvalues --    0.03252   0.03903   0.04700   0.05158   0.06109
 Alpha virt. eigenvalues --    0.06730   0.07109   0.07387   0.07494   0.08520
 Alpha virt. eigenvalues --    0.08752   0.08846   0.09236   0.09888   0.10454

 Mulliken charges:
               1
     1  Si   5.169508
     2  Si   3.476082
     3  B    5.984093
     4  H   -1.926064
     5  H   -1.925780
     6  H   -1.500266
     7  H   -1.744318
     8  O   -4.546116
     9  O   -5.092143
    10  C   -2.370458
    11  H    1.341817
    12  H    1.342066
    13  H    1.578989
    14  C   -2.575287
    15  H    1.263042
    16  H    1.512559
    17  H    1.512553
    18  H   -1.500277
 Sum of Mulliken charges =  -0.00000

 Dipole moment (field-independent basis, Debye):
    X=             -2.2073    Y=              0.0362    Z=              0.0001  Tot=              2.2076

 Test job not archived.
 1\1\GINC-SE071\SP\RHF\Aug-CC-pVDZ\C2H11B1O2Si2\OHZDE\09-Apr-2025\0\\#t
  hf aug-cc-pvdz iop(5/13=1,5/36=2,99/5=2) pseudo=read geom=check guess
 =(read,tcheck) scf=(maxcycle=1)\\title\\0,1\Si,0,2.816503,0.239961,-0.
 000015\Si,0,0.881141,-1.102543,0.000031\B,0,-0.79531,0.070096,-0.00002
 3\H,0,0.913531,-2.001668,1.187913\H,0,0.913556,-2.00177,-1.187775\H,0,
 2.848282,1.106019,-1.20379\H,0,4.046951,-0.591359,0.000023\O,0,-2.0911
 86,-0.347288,-0.000058\O,0,-0.548456,1.408239,0.000004\C,0,-2.505421,-
 1.708305,0.000027\H,0,-3.113806,-1.892398,-0.888133\H,0,-3.112331,-1.8

 Normal termination of Gaussian 16 at Wed Apr  9 00:14:25 2025.
