 Gaussian 16, Revision C.01,

 ----------------------------------------------------------------------
 #t hf aug-cc-pvdz symm=none int=(grid=ultrafine) guess=(read,tcheck) s
 table=(opt,rrhf)
 ----------------------------------------------------------------------
 -----
 title
 -----
 Symbolic Z-matrix:
 Charge =  0 Multiplicity = 1

 SCF Done:  E(RHF) =  -1658.79154249     A.U. after   15 cycles
 Normal termination of Gaussian 16 at Tue Apr  8 23:30:44 2025.
 Gaussian 16:  ES64L-G16RevC.01  3-Jul-2019

 ----------------------------------------------------------------------
 #t hf aug-cc-pvdz iop(5/13=1,5/36=2,99/5=2) pseudo=read geom=check gue
 ss=(read,tcheck) scf=(maxcycle=1)
 ----------------------------------------------------------------------
 -----
 title
 -----
 Structure from the checkpoint file:  "BDE49_nonexpt_1356_mol1.chk"
 Charge =  0 Multiplicity = 1

                         Standard orientation:
 ---------------------------------------------------------------------
 Center     Atomic      Atomic             Coordinates (Angstroms)
 Number     Number       Type             X           Y           Z
 ---------------------------------------------------------------------
      1          9           0       -0.000001   -1.333372   -1.709825
      2          9           0       -2.591349    1.438985    0.387405
      3          9           0        2.591351    1.438982    0.387405
      4         15           0       -0.000001   -2.081275   -0.217782
      5         15           0       -1.684983    0.607989   -0.652530
      6         15           0        1.684984    0.607986   -0.652530
      7          6           0        1.358237   -0.913905    0.464800
      8          6           0       -1.358238   -0.913903    0.464800
      9          6           0        0.000001    1.401086   -0.167436
     10          8           0        1.958581   -1.127449    1.473693
     11          8           0       -1.958585   -1.127448    1.473691
     12          8           0        0.000002    2.459706    0.388214
 ---------------------------------------------------------------------

 SCF Done:  E(RHF) =  -1661.74100604     A.U. after    2 cycles

 The electronic state is 1-A.
 Alpha  occ. eigenvalues -- -105.30745-105.29521-105.28922 -29.33200 -29.30819
 Alpha  occ. eigenvalues --  -29.30819 -21.13902 -21.13894 -21.12568 -11.53591
 Alpha  occ. eigenvalues --  -11.53246 -11.52488  -2.89181  -2.88051  -2.87795
 Alpha  occ. eigenvalues --   -1.78600  -1.78505  -1.77649  -1.63147  -1.62601
 Alpha  occ. eigenvalues --   -1.60623  -1.57811  -1.57398  -1.55826  -1.55033
 Alpha  occ. eigenvalues --   -1.55029  -1.54314  -1.00619  -0.91400  -0.91028
 Alpha  occ. eigenvalues --   -0.71220  -0.71045  -0.68770  -0.58644  -0.56815
 Alpha  occ. eigenvalues --   -0.55789  -0.54286  -0.53733  -0.53231  -0.52315
 Alpha  occ. eigenvalues --   -0.50637  -0.49997  -0.42899  -0.40583  -0.38798
 Alpha  occ. eigenvalues --   -0.38389  -0.36443  -0.35421  -0.34557  -0.33186
 Alpha  occ. eigenvalues --   -0.32221  -0.18059  -0.14552  -0.07841  -0.07824
 Alpha  occ. eigenvalues --   -0.02709  -0.01111
 Alpha virt. eigenvalues --    0.04015   0.06115   0.06335   0.07448   0.08384
 Alpha virt. eigenvalues --    0.08675   0.09524   0.09687   0.10802   0.11475
 Alpha virt. eigenvalues --    0.11489   0.12177   0.12423   0.13837   0.14626

 Mulliken charges:
               1
     1  F   -0.431594
     2  F   -0.211640
     3  F   -0.211641
     4  P    4.087734
     5  P    3.877639
     6  P    3.877643
     7  C   -1.006698
     8  C   -1.006691
     9  C   -1.221502
    10  O   -2.642045
    11  O   -2.642046
    12  O   -2.469160
 Sum of Mulliken charges =  -0.00000

 Dipole moment (field-independent basis, Debye):
    X=             -0.0000    Y=              4.8667    Z=             -4.9032  Tot=              6.9084

 Test job not archived.
 1\1\GINC-SE365\SP\RHF\Aug-CC-pVDZ\C3F3O3P3\OHZDE\08-Apr-2025\0\\#t hf
 aug-cc-pvdz iop(5/13=1,5/36=2,99/5=2) pseudo=read geom=check guess=(re
 ad,tcheck) scf=(maxcycle=1)\\title\\0,1\F,0,-0.000001,-1.333372,-1.709
 825\F,0,-2.591349,1.438985,0.387405\F,0,2.591351,1.438982,0.387405\P,0
 ,-0.000001,-2.081275,-0.217782\P,0,-1.684983,0.607989,-0.65253\P,0,1.6
 84984,0.607986,-0.65253\C,0,1.358237,-0.913905,0.4648\C,0,-1.358238,-0
 .913903,0.4648\C,0,0.000001,1.401086,-0.167436\O,0,1.958581,-1.127449,
 1.473693\O,0,-1.958585,-1.127448,1.473691\O,0,0.000002,2.459706,0.3882

 Normal termination of Gaussian 16 at Tue Apr  8 23:30:54 2025.
