 Gaussian 16, Revision C.01,

 ----------------------------------------------------------------------
 #t hf aug-cc-pvdz symm=none int=(grid=ultrafine) guess=(read,tcheck) s
 table=(opt,rrhf)
 ----------------------------------------------------------------------
 -----
 title
 -----
 Symbolic Z-matrix:
 Charge =  0 Multiplicity = 1

 SCF Done:  E(RHF) =  -1203.48738524     A.U. after   13 cycles
 Normal termination of Gaussian 16 at Wed Apr  9 00:16:05 2025.
 Gaussian 16:  ES64L-G16RevC.01  3-Jul-2019

 ----------------------------------------------------------------------
 #t hf aug-cc-pvdz iop(5/13=1,5/36=2,99/5=2) pseudo=read geom=check gue
 ss=(read,tcheck) scf=(maxcycle=1)
 ----------------------------------------------------------------------
 -----
 title
 -----
 Structure from the checkpoint file:  "BDE49_nonexpt_2518_mol1.chk"
 Charge =  0 Multiplicity = 1

                         Standard orientation:
 ---------------------------------------------------------------------
 Center     Atomic      Atomic             Coordinates (Angstroms)
 Number     Number       Type             X           Y           Z
 ---------------------------------------------------------------------
      1         14           0       -1.501272    0.064940   -0.349277
      2         16           0        0.376211   -0.829018   -1.020580
      3         16           0        1.616538   -0.483963    0.649974
      4          6           0        2.543314    1.008608    0.149356
      5          1           0        3.259368    1.192590    0.954525
      6          1           0        1.885271    1.870234    0.044383
      7          1           0        3.083946    0.828680   -0.778997
      8          6           0       -1.337100    1.906436   -0.033005
      9          1           0       -0.653749    2.103745    0.797208
     10          1           0       -2.312891    2.326754    0.231526
     11          1           0       -0.970414    2.430526   -0.918572
     12          6           0       -2.176996   -0.825193    1.154015
     13          1           0       -1.495761   -0.730312    2.003495
     14          1           0       -2.320240   -1.888175    0.946910
     15          1           0       -3.142890   -0.398772    1.443777
     16          1           0       -2.374113   -0.175833   -1.526868
 ---------------------------------------------------------------------

 SCF Done:  E(RHF) =  -1204.73624914     A.U. after    2 cycles

 The electronic state is 1-A.
 Alpha  occ. eigenvalues --  -76.22628 -75.70318 -75.68722 -13.13029 -13.11531
 Alpha  occ. eigenvalues --  -13.08685 -13.06808 -13.05570 -13.04808 -11.40044
 Alpha  occ. eigenvalues --  -11.35525 -11.35029  -8.04077  -8.02655  -5.56344
 Alpha  occ. eigenvalues --   -2.19989  -2.19141  -2.18123  -1.22950  -1.08209
 Alpha  occ. eigenvalues --   -1.04646  -1.01349  -0.89900  -0.68506  -0.59424
 Alpha  occ. eigenvalues --   -0.59214  -0.57382  -0.57101  -0.55289  -0.55212
 Alpha  occ. eigenvalues --   -0.46248  -0.44599  -0.41004  -0.37896  -0.34611
 Alpha  occ. eigenvalues --   -0.26369  -0.21845
 Alpha virt. eigenvalues --    0.02591   0.03346   0.04152   0.05260   0.06346
 Alpha virt. eigenvalues --    0.06671   0.06800   0.07109   0.07602   0.08331
 Alpha virt. eigenvalues --    0.08915   0.09237   0.10041   0.11555   0.12105

 Mulliken charges:
               1
     1  Si   7.099497
     2  S   -1.740245
     3  S   -0.063911
     4  C   -4.709839
     5  H    1.392877
     6  H    1.517515
     7  H    1.516500
     8  C   -5.298828
     9  H    1.383884
    10  H    1.288513
    11  H    1.274457
    12  C   -5.093967
    13  H    1.216570
    14  H    1.239353
    15  H    1.303221
    16  H   -2.325597
 Sum of Mulliken charges =  -0.00000

 Dipole moment (field-independent basis, Debye):
    X=              0.8301    Y=             -0.4264    Z=              0.6444  Tot=              1.1341

 Test job not archived.
 1\1\GINC-SE460\SP\RHF\Aug-CC-pVDZ\C3H10S2Si1\OHZDE\09-Apr-2025\0\\#t h
 f aug-cc-pvdz iop(5/13=1,5/36=2,99/5=2) pseudo=read geom=check guess=(
 read,tcheck) scf=(maxcycle=1)\\title\\0,1\Si,0,-1.501272,0.06494,-0.34
 9277\S,0,0.376211,-0.829018,-1.02058\S,0,1.616538,-0.483963,0.649974\C
 ,0,2.543314,1.008608,0.149356\H,0,3.259368,1.19259,0.954525\H,0,1.8852
 71,1.870234,0.044383\H,0,3.083946,0.82868,-0.778997\C,0,-1.3371,1.9064
 36,-0.033005\H,0,-0.653749,2.103745,0.797208\H,0,-2.312891,2.326754,0.
 231526\H,0,-0.970414,2.430526,-0.918572\C,0,-2.176996,-0.825193,1.1540

 Normal termination of Gaussian 16 at Wed Apr  9 00:16:11 2025.
