 Gaussian 16, Revision C.01,

 ----------------------------------------------------------------------
 #t hf aug-cc-pvdz symm=none int=(grid=ultrafine) guess=(read,tcheck) s
 table=(opt,rrhf)
 ----------------------------------------------------------------------
 -----
 title
 -----
 Symbolic Z-matrix:
 Charge =  0 Multiplicity = 1

 SCF Done:  E(RHF) =  -734.112758426     A.U. after   17 cycles
 Normal termination of Gaussian 16 at Tue Apr  8 23:14:23 2025.
 Gaussian 16:  ES64L-G16RevC.01  3-Jul-2019

 ----------------------------------------------------------------------
 #t hf aug-cc-pvdz iop(5/13=1,5/36=2,99/5=2) pseudo=read geom=check gue
 ss=(read,tcheck) scf=(maxcycle=1)
 ----------------------------------------------------------------------
 -----
 title
 -----
 Structure from the checkpoint file:  "BDE49_expt_679_mol1.chk"
 Charge =  0 Multiplicity = 1

                         Standard orientation:
 ---------------------------------------------------------------------
 Center     Atomic      Atomic             Coordinates (Angstroms)
 Number     Number       Type             X           Y           Z
 ---------------------------------------------------------------------
      1          6           0       -0.619047    1.309638   -0.022324
      2          6           0        0.766940    1.426849   -0.010811
      3          6           0       -1.205090    0.047072   -0.032328
      4          6           0       -0.401073   -1.097907   -0.029949
      5          6           0        0.978323   -0.978837   -0.018042
      6          6           0        1.582761    0.289352   -0.007019
      7          1           0        1.220459    2.411950   -0.006574
      8          1           0       -1.241748    2.194715   -0.030445
      9          1           0       -0.861618   -2.078023   -0.046416
     10          1           0        1.605688   -1.860795   -0.019439
     11          6           0        3.038479    0.458252    0.004415
     12          7           0        3.823950   -0.547891    0.005761
     13          1           0        3.444486    1.471165    0.011985
     14          8           0        5.158563   -0.150501    0.017689
     15          1           0        5.633134   -0.988296    0.017339
     16          6           0       -2.700460   -0.101354    0.003033
     17          9           0       -3.336836    1.017398   -0.404213
     18          9           0       -3.125067   -1.114473   -0.784978
     19          9           0       -3.147158   -0.372909    1.252509
 ---------------------------------------------------------------------

 SCF Done:  E(RHF) =  -737.100261079     A.U. after    2 cycles

 The electronic state is 1-A.
 Alpha  occ. eigenvalues --  -29.30921 -29.30690 -29.30383 -21.11275 -15.79612
 Alpha  occ. eigenvalues --  -11.62276 -11.54170 -11.47361 -11.46992 -11.46731
 Alpha  occ. eigenvalues --  -11.45237 -11.43676 -11.39165  -1.80532  -1.46065
 Alpha  occ. eigenvalues --   -1.35656  -1.25610  -1.12689  -1.11332  -0.94265
 Alpha  occ. eigenvalues --   -0.92477  -0.87649  -0.85245  -0.82115  -0.77377
 Alpha  occ. eigenvalues --   -0.71655  -0.65595  -0.62279  -0.60792  -0.59136
 Alpha  occ. eigenvalues --   -0.56382  -0.56259  -0.51910  -0.49936  -0.47371
 Alpha  occ. eigenvalues --   -0.46613  -0.43478  -0.43224  -0.40597  -0.37798
 Alpha  occ. eigenvalues --   -0.36466  -0.35126  -0.34495  -0.30215  -0.28965
 Alpha  occ. eigenvalues --   -0.25333  -0.24100  -0.21178
 Alpha virt. eigenvalues --    0.03398   0.04991   0.05341   0.06356   0.07117
 Alpha virt. eigenvalues --    0.07500   0.08113   0.08929   0.09957   0.10307
 Alpha virt. eigenvalues --    0.11227   0.11833   0.12301   0.12639   0.12977

 Mulliken charges:
               1
     1  C   -2.573301
     2  C   -1.484309
     3  C    0.088121
     4  C   -3.145910
     5  C   -1.474339
     6  C    4.683188
     7  H    1.833974
     8  H    1.881880
     9  H    1.836008
    10  H    1.785378
    11  C   -2.959707
    12  N   -0.743905
    13  H    1.522658
    14  O   -2.364816
    15  H    0.844412
    16  C   -0.335516
    17  F    0.336805
    18  F    0.158918
    19  F    0.110463
 Sum of Mulliken charges =   0.00000

 Dipole moment (field-independent basis, Debye):
    X=             -0.5268    Y=              0.1037    Z=              0.0900  Tot=              0.5444

 Test job not archived.
 1\1\GINC-SE177\SP\RHF\Aug-CC-pVDZ\C8H6F3N1O1\OHZDE\08-Apr-2025\0\\#t h
 f aug-cc-pvdz iop(5/13=1,5/36=2,99/5=2) pseudo=read geom=check guess=(
 read,tcheck) scf=(maxcycle=1)\\title\\0,1\C,0,-0.619047,1.309638,-0.02
 2324\C,0,0.76694,1.426849,-0.010811\C,0,-1.20509,0.047072,-0.032328\C,
 0,-0.401073,-1.097907,-0.029949\C,0,0.978323,-0.978837,-0.018042\C,0,1
 .582761,0.289352,-0.007019\H,0,1.220459,2.41195,-0.006574\H,0,-1.24174
 8,2.194715,-0.030445\H,0,-0.861618,-2.078023,-0.046416\H,0,1.605688,-1
 .860795,-0.019439\C,0,3.038479,0.458252,0.004415\N,0,3.82395,-0.547891

 Normal termination of Gaussian 16 at Tue Apr  8 23:14:36 2025.
