 Gaussian 16, Revision C.01,

 ----------------------------------------------------------------------
 #t hf aug-cc-pvdz symm=none int=(grid=ultrafine) guess=(read,tcheck) s
 table=(opt,rrhf)
 ----------------------------------------------------------------------
 -----
 title
 -----
 Symbolic Z-matrix:
 Charge =  0 Multiplicity = 1

 SCF Done:  E(RHF) =  -1062.52536413     A.U. after   16 cycles
 Normal termination of Gaussian 16 at Tue Apr  8 23:19:22 2025.
 Gaussian 16:  ES64L-G16RevC.01  3-Jul-2019

 ----------------------------------------------------------------------
 #t hf aug-cc-pvdz iop(5/13=1,5/36=2,99/5=2) pseudo=read geom=check gue
 ss=(read,tcheck) scf=(maxcycle=1)
 ----------------------------------------------------------------------
 -----
 title
 -----
 Structure from the checkpoint file:  "BDE49_expt_500_mol1.chk"
 Charge =  0 Multiplicity = 1

                         Standard orientation:
 ---------------------------------------------------------------------
 Center     Atomic      Atomic             Coordinates (Angstroms)
 Number     Number       Type             X           Y           Z
 ---------------------------------------------------------------------
      1          6           0        3.405452    0.428615    1.025970
      2          6           0        2.391726   -0.479709    0.737188
      3          6           0        3.761265    1.416713    0.109224
      4          6           0        3.084866    1.500013   -1.105235
      5          6           0        2.051035    0.613941   -1.393283
      6          6           0        1.702133   -0.382193   -0.475927
      7          1           0        2.130617   -1.263911    1.434056
      8          1           0        3.933940    0.348975    1.969244
      9          1           0        3.352292    2.262157   -1.828291
     10          1           0        1.511249    0.693346   -2.331350
     11          7           0        0.688095   -1.321300   -0.815743
     12          6           0       -1.589050   -0.057435    0.144783
     13          6           0       -1.342704    0.865302    1.160802
     14          6           0       -2.524429    0.200900   -0.857783
     15          6           0       -3.213827    1.409645   -0.845137
     16          6           0       -2.036824    2.072571    1.159875
     17          6           0       -2.967575    2.345507    0.159157
     18          1           0       -3.508832    3.284685    0.166390
     19          1           0       -3.949541    1.616423   -1.613639
     20          1           0       -2.720613   -0.546790   -1.615716
     21          1           0       -0.632654    0.628904    1.941902
     22          1           0       -1.854919    2.795823    1.946162
     23          1           0        4.561559    2.110956    0.337067
     24         16           0       -0.684266   -1.600147    0.114977
     25          1           0        0.444170   -1.351882   -1.798421
     26          8           0       -0.241207   -1.869896    1.458295
     27          8           0       -1.442303   -2.546411   -0.665124
 ---------------------------------------------------------------------

 SCF Done:  E(RHF) =  -1065.88114997     A.U. after    2 cycles

 The electronic state is 1-A.
 Alpha  occ. eigenvalues --  -75.90672 -21.04945 -21.04892 -15.77676 -13.54393
 Alpha  occ. eigenvalues --  -13.44538 -13.39863 -11.54429 -11.53687 -11.46734
 Alpha  occ. eigenvalues --  -11.46081 -11.45875 -11.44031 -11.43890 -11.43065
 Alpha  occ. eigenvalues --  -11.41918 -11.41421 -11.39095 -11.37352  -8.25853
 Alpha  occ. eigenvalues --   -1.84630  -1.66235  -1.44663  -1.36570  -1.29948
 Alpha  occ. eigenvalues --   -1.14368  -1.11666  -1.10276  -1.08478  -0.97100
 Alpha  occ. eigenvalues --   -0.89121  -0.88261  -0.87505  -0.83656  -0.74537
 Alpha  occ. eigenvalues --   -0.73053  -0.69411  -0.68453  -0.64593  -0.61762
 Alpha  occ. eigenvalues --   -0.60801  -0.60282  -0.59963  -0.58973  -0.57814
 Alpha  occ. eigenvalues --   -0.53145  -0.52664  -0.49555  -0.48764  -0.47727
 Alpha  occ. eigenvalues --   -0.46239  -0.44261  -0.43539  -0.40171  -0.39923
 Alpha  occ. eigenvalues --   -0.37887  -0.36415  -0.35150  -0.34955  -0.33880
 Alpha  occ. eigenvalues --   -0.30421
 Alpha virt. eigenvalues --    0.02758   0.04290   0.04576   0.04705   0.05158
 Alpha virt. eigenvalues --    0.05424   0.05834   0.06940   0.07264   0.07500
 Alpha virt. eigenvalues --    0.08171   0.08795   0.09816   0.09883   0.10788

 Mulliken charges:
               1
     1  C   -0.317979
     2  C   -2.459674
     3  C   -2.854063
     4  C   -0.441254
     5  C   -4.012530
     6  C    5.378585
     7  H    1.943266
     8  H    1.566005
     9  H    1.573009
    10  H    1.821038
    11  N   -4.942821
    12  C    2.639408
    13  C   -3.216081
    14  C   -4.080741
    15  C   -0.775187
    16  C   -0.994856
    17  C   -2.732869
    18  H    1.583111
    19  H    1.553873
    20  H    1.967260
    21  H    2.034132
    22  H    1.531240
    23  H    1.565021
    24  S    7.115538
    25  H    0.504357
    26  O   -2.992188
    27  O   -2.955597
 Sum of Mulliken charges =  -0.00000

 Dipole moment (field-independent basis, Debye):
    X=              0.0074    Y=              3.4432    Z=             -0.8718  Tot=              3.5518

 Test job not archived.
 1\1\GINC-SE095\SP\RHF\Aug-CC-pVDZ\C12H11N1O2S1\OHZDE\08-Apr-2025\0\\#t
  hf aug-cc-pvdz iop(5/13=1,5/36=2,99/5=2) pseudo=read geom=check guess
 =(read,tcheck) scf=(maxcycle=1)\\title\\0,1\C,0,3.405452,0.428615,1.02
 597\C,0,2.391726,-0.479709,0.737188\C,0,3.761265,1.416713,0.109224\C,0
 ,3.084866,1.500013,-1.105235\C,0,2.051035,0.613941,-1.393283\C,0,1.702
 133,-0.382193,-0.475927\H,0,2.130617,-1.263911,1.434056\H,0,3.93394,0.
 348975,1.969244\H,0,3.352292,2.262157,-1.828291\H,0,1.511249,0.693346,
 -2.33135\N,0,0.688095,-1.3213,-0.815743\C,0,-1.58905,-0.057435,0.14478

 Normal termination of Gaussian 16 at Tue Apr  8 23:19:56 2025.
