 Gaussian 16, Revision C.01,

 ----------------------------------------------------------------------
 #t hf aug-cc-pvdz symm=none int=(grid=ultrafine) guess=(read,tcheck) s
 table=(opt,rrhf)
 ----------------------------------------------------------------------
 -----
 title
 -----
 Symbolic Z-matrix:
 Charge =  0 Multiplicity = 1

 SCF Done:  E(RHF) =  -788.109332083     A.U. after   14 cycles
 Normal termination of Gaussian 16 at Wed Apr  9 00:13:01 2025.
 Gaussian 16:  ES64L-G16RevC.01  3-Jul-2019

 ----------------------------------------------------------------------
 #t hf aug-cc-pvdz iop(5/13=1,5/36=2,99/5=2) pseudo=read geom=check gue
 ss=(read,tcheck) scf=(maxcycle=1)
 ----------------------------------------------------------------------
 -----
 title
 -----
 Structure from the checkpoint file:  "BDE49_nonexpt_2409_mol1.chk"
 Charge =  0 Multiplicity = 1

                         Standard orientation:
 ---------------------------------------------------------------------
 Center     Atomic      Atomic             Coordinates (Angstroms)
 Number     Number       Type             X           Y           Z
 ---------------------------------------------------------------------
      1         14           0        2.224927   -0.054774   -0.434898
      2         14           0        0.301789   -0.868973    0.663748
      3          1           0        1.896848    0.309301   -1.834266
      4          1           0        3.272161   -1.107304   -0.469036
      5          1           0        2.776894    1.129340    0.260821
      6          6           0       -1.295454   -0.110932   -0.054488
      7          1           0        0.369299   -0.597418    2.119067
      8          1           0        0.175141   -2.336809    0.477735
      9          7           0       -1.456257    1.152457   -0.152059
     10          8           0       -0.328511    1.845587    0.349158
     11          1           0       -0.553326    2.770122    0.200853
     12          6           0       -2.428900   -0.969279   -0.553916
     13          1           0       -2.817276   -1.603330    0.249297
     14          1           0       -2.087504   -1.637475   -1.350697
     15          1           0       -3.238243   -0.344596   -0.936095
 ---------------------------------------------------------------------

 SCF Done:  E(RHF) =  -789.371049994     A.U. after    2 cycles

 The electronic state is 1-A.
 Alpha  occ. eigenvalues --  -76.21910 -76.21417 -21.09999 -15.78366 -11.42732
 Alpha  occ. eigenvalues --  -11.37548  -5.55542  -5.54767  -2.19666  -2.18039
 Alpha  occ. eigenvalues --   -2.17265  -2.16834  -2.16809  -2.15859  -1.78686
 Alpha  occ. eigenvalues --   -1.28224  -1.05139  -0.83941  -0.76009  -0.69650
 Alpha  occ. eigenvalues --   -0.64032  -0.59539  -0.59163  -0.51700  -0.51006
 Alpha  occ. eigenvalues --   -0.48208  -0.47098  -0.46123  -0.45389  -0.36987
 Alpha  occ. eigenvalues --   -0.32790  -0.30513
 Alpha virt. eigenvalues --    0.03797   0.04652   0.05506   0.05693   0.06299
 Alpha virt. eigenvalues --    0.06568   0.07693   0.07757   0.08314   0.08857
 Alpha virt. eigenvalues --    0.09088   0.09408   0.10355   0.10694   0.10862

 Mulliken charges:
               1
     1  Si   4.810711
     2  Si   4.447129
     3  H   -1.506578
     4  H   -1.672077
     5  H   -1.551634
     6  C    0.711282
     7  H   -2.013204
     8  H   -1.734905
     9  N   -0.547013
    10  O   -2.271626
    11  H    0.988758
    12  C   -3.516824
    13  H    1.277224
    14  H    1.273194
    15  H    1.305564
 Sum of Mulliken charges =  -0.00000

 Dipole moment (field-independent basis, Debye):
    X=             -0.2031    Y=              0.5211    Z=              0.0510  Tot=              0.5616

 Test job not archived.
 1\1\GINC-SE328\SP\RHF\Aug-CC-pVDZ\C2H9N1O1Si2\OHZDE\09-Apr-2025\0\\#t
 hf aug-cc-pvdz iop(5/13=1,5/36=2,99/5=2) pseudo=read geom=check guess=
 (read,tcheck) scf=(maxcycle=1)\\title\\0,1\Si,0,2.224927,-0.054774,-0.
 434898\Si,0,0.301789,-0.868973,0.663748\H,0,1.896848,0.309301,-1.83426
 6\H,0,3.272161,-1.107304,-0.469036\H,0,2.776894,1.12934,0.260821\C,0,-
 1.295454,-0.110932,-0.054488\H,0,0.369299,-0.597418,2.119067\H,0,0.175
 141,-2.336809,0.477735\N,0,-1.456257,1.152457,-0.152059\O,0,-0.328511,
 1.845587,0.349158\H,0,-0.553326,2.770122,0.200853\C,0,-2.4289,-0.96927

 Normal termination of Gaussian 16 at Wed Apr  9 00:13:06 2025.
