 Gaussian 16, Revision C.01,

 ----------------------------------------------------------------------
 #t hf aug-cc-pvdz symm=none int=(grid=ultrafine) guess=(read,tcheck) s
 table=(opt,rrhf)
 ----------------------------------------------------------------------
 -----
 title
 -----
 Symbolic Z-matrix:
 Charge =  0 Multiplicity = 1

 SCF Done:  E(RHF) =  -1755.28848612     A.U. after   17 cycles
 Normal termination of Gaussian 16 at Wed Apr  9 00:54:08 2025.
 Gaussian 16:  ES64L-G16RevC.01  3-Jul-2019

 ----------------------------------------------------------------------
 #t hf aug-cc-pvdz iop(5/13=1,5/36=2,99/5=2) pseudo=read geom=check gue
 ss=(read,tcheck) scf=(maxcycle=1)
 ----------------------------------------------------------------------
 -----
 title
 -----
 Structure from the checkpoint file:  "BDE49_nonexpt_936_mol1.chk"
 Charge =  0 Multiplicity = 1

                         Standard orientation:
 ---------------------------------------------------------------------
 Center     Atomic      Atomic             Coordinates (Angstroms)
 Number     Number       Type             X           Y           Z
 ---------------------------------------------------------------------
      1          6           0        0.520034    0.379345    0.057559
      2          6           0       -0.901161   -0.046203    0.098001
      3          6           0       -1.363628   -0.802431    1.180593
      4          1           0       -0.677676   -1.078401    1.971648
      5          6           0       -2.698221   -1.190746    1.234884
      6          1           0       -3.056120   -1.766885    2.080027
      7          6           0       -3.568416   -0.845653    0.203170
      8          1           0       -4.606625   -1.154701    0.243758
      9          6           0       -3.104462   -0.105889   -0.883987
     10          1           0       -3.778406    0.156444   -1.691008
     11          6           0       -1.776186    0.299863   -0.937386
     12          1           0       -1.414681    0.873520   -1.781317
     13          7           0        1.423425   -0.705200    0.316052
     14          7           0        1.049390    1.534638   -0.068741
     15         17           0        3.116206   -0.253105    0.461825
     16         17           0        1.253898   -1.995917   -0.907132
     17         17           0       -0.042102    2.898095   -0.041239
 ---------------------------------------------------------------------

 SCF Done:  E(RHF) =  -1757.79385187     A.U. after    2 cycles

 The electronic state is 1-A.
 Alpha  occ. eigenvalues --  -99.94108 -99.93358 -99.91233 -15.85522 -15.80007
 Alpha  occ. eigenvalues --  -11.54608 -11.52812 -11.45910 -11.45856 -11.43464
 Alpha  occ. eigenvalues --  -11.42627 -11.38562 -10.51125 -10.50450 -10.48384
 Alpha  occ. eigenvalues --   -9.71060  -9.70363  -9.70253  -9.70062  -9.69501
 Alpha  occ. eigenvalues --   -9.69333  -9.68290  -9.67484  -9.67273  -1.56802
 Alpha  occ. eigenvalues --   -1.44276  -1.35850  -1.31727  -1.25338  -1.13267
 Alpha  occ. eigenvalues --   -1.12011  -1.10866  -0.92458  -0.88845  -0.82011
 Alpha  occ. eigenvalues --   -0.75161  -0.70993  -0.69886  -0.68446  -0.65391
 Alpha  occ. eigenvalues --   -0.61175  -0.60433  -0.59975  -0.57743  -0.56322
 Alpha  occ. eigenvalues --   -0.54811  -0.53914  -0.52695  -0.51180  -0.48776
 Alpha  occ. eigenvalues --   -0.47351  -0.45468  -0.41561  -0.39129  -0.35011
 Alpha  occ. eigenvalues --   -0.34884
 Alpha virt. eigenvalues --   -0.00630   0.02917   0.04632   0.04786   0.04967
 Alpha virt. eigenvalues --    0.06169   0.06663   0.06877   0.08090   0.09173
 Alpha virt. eigenvalues --    0.09493   0.10096   0.10382   0.11591   0.11831

 Mulliken charges:
               1
     1  C    1.958277
     2  C    4.915601
     3  C   -3.123458
     4  H    1.680108
     5  C   -1.329330
     6  H    1.537614
     7  C   -3.086888
     8  H    1.583178
     9  C   -1.533467
    10  H    1.538613
    11  C   -2.371509
    12  H    1.661324
    13  N   -1.811818
    14  N   -2.621619
    15  Cl   0.387386
    16  Cl   0.240212
    17  Cl   0.375777
 Sum of Mulliken charges =   0.00000

 Dipole moment (field-independent basis, Debye):
    X=             -3.0370    Y=             -1.7669    Z=              0.2795  Tot=              3.5247

 Test job not archived.
 1\1\GINC-SE250\SP\RHF\Aug-CC-pVDZ\C7H5Cl3N2\OHZDE\09-Apr-2025\0\\#t hf
  aug-cc-pvdz iop(5/13=1,5/36=2,99/5=2) pseudo=read geom=check guess=(r
 ead,tcheck) scf=(maxcycle=1)\\title\\0,1\C,0,0.520034,0.379345,0.05755
 9\C,0,-0.901161,-0.046203,0.098001\C,0,-1.363628,-0.802431,1.180593\H,
 0,-0.677676,-1.078401,1.971648\C,0,-2.698221,-1.190746,1.234884\H,0,-3
 .05612,-1.766885,2.080027\C,0,-3.568416,-0.845653,0.20317\H,0,-4.60662
 5,-1.154701,0.243758\C,0,-3.104462,-0.105889,-0.883987\H,0,-3.778406,0
 .156444,-1.691008\C,0,-1.776186,0.299863,-0.937386\H,0,-1.414681,0.873

 Normal termination of Gaussian 16 at Wed Apr  9 00:54:28 2025.
