 Gaussian 16, Revision C.01,

 ----------------------------------------------------------------------
 #t hf aug-cc-pvdz symm=none int=(grid=ultrafine) guess=(read,tcheck) s
 table=(opt,rrhf)
 ----------------------------------------------------------------------
 -----
 title
 -----
 Symbolic Z-matrix:
 Charge =  0 Multiplicity = 1

 SCF Done:  E(RHF) =  -2171.54724707     A.U. after   12 cycles

 1\1\GINC-SE340\Stability\RHF\Aug-CC-pVDZ\H6S4Si2\OHZDE\09-Apr-2025\0\\
 #t hf aug-cc-pvdz symm=none int=(grid=ultrafine) guess=(read,tcheck) s
 table=(opt,rrhf)\\title\\0,1\Si,0,0.897978,1.433368,0.773908\Si,0,-0.8
 97983,1.433349,-0.773939\S,0,-1.798323,-0.536656,-1.00147\H,0,-0.43075
 1,1.765702,-2.14158\H,0,-1.925582,2.415792,-0.355641\S,0,-2.423123,-0.
 88477,0.988051\H,0,-1.305272,-1.505729,1.414291\S,0,1.798325,-0.536629
 ,1.001481\H,0,0.430744,1.765748,2.141543\H,0,1.925572,2.415807,0.35559
 \S,0,2.423123,-0.884785,-0.988035\H,0,1.305339,-1.50591,-1.414211\\Ver

 Normal termination of Gaussian 16 at Wed Apr  9 00:12:47 2025.
 Gaussian 16:  ES64L-G16RevC.01  3-Jul-2019

 ----------------------------------------------------------------------
 #t hf aug-cc-pvdz iop(5/13=1,5/36=2,99/5=2) pseudo=read geom=check gue
 ss=(read,tcheck) scf=(maxcycle=1)
 ----------------------------------------------------------------------
 -----
 title
 -----
 Structure from the checkpoint file:  "BDE49_nonexpt_2419_mol1.chk"
 Charge =  0 Multiplicity = 1

                         Standard orientation:
 ---------------------------------------------------------------------
 Center     Atomic      Atomic             Coordinates (Angstroms)
 Number     Number       Type             X           Y           Z
 ---------------------------------------------------------------------
      1         14           0        0.897978    1.433368    0.773908
      2         14           0       -0.897983    1.433349   -0.773939
      3         16           0       -1.798323   -0.536656   -1.001470
      4          1           0       -0.430751    1.765702   -2.141580
      5          1           0       -1.925582    2.415792   -0.355641
      6         16           0       -2.423123   -0.884770    0.988051
      7          1           0       -1.305272   -1.505729    1.414291
      8         16           0        1.798325   -0.536629    1.001481
      9          1           0        0.430744    1.765748    2.141543
     10          1           0        1.925572    2.415807    0.355590
     11         16           0        2.423123   -0.884785   -0.988035
     12          1           0        1.305339   -1.505910   -1.414211
 ---------------------------------------------------------------------

 SCF Done:  E(RHF) =  -2172.76515349     A.U. after    2 cycles

 The electronic state is 1-A.
 Alpha  occ. eigenvalues --  -76.25602 -76.25567 -75.72835 -75.72807 -75.71310
 Alpha  occ. eigenvalues --  -75.71208 -13.16385 -13.16325 -13.12454 -13.12178
 Alpha  occ. eigenvalues --  -13.10411 -13.09777 -13.08446 -13.08382 -13.06730
 Alpha  occ. eigenvalues --  -13.06447 -13.05901 -13.05461  -8.06441  -8.06414
 Alpha  occ. eigenvalues --   -8.05171  -8.05072  -5.58934  -5.58915  -2.20889
 Alpha  occ. eigenvalues --   -2.20813  -2.20801  -2.20668  -2.20255  -2.19315
 Alpha  occ. eigenvalues --   -1.21642  -1.20731  -1.00030  -0.99749  -0.79977
 Alpha  occ. eigenvalues --   -0.70522  -0.54222  -0.53033  -0.50399  -0.48288
 Alpha  occ. eigenvalues --   -0.45174  -0.41174  -0.40074  -0.38343  -0.34926
 Alpha  occ. eigenvalues --   -0.28936  -0.27315  -0.24668  -0.24668
 Alpha virt. eigenvalues --    0.01818   0.01989   0.03638   0.04043   0.05160
 Alpha virt. eigenvalues --    0.06028   0.06799   0.07724   0.08808   0.09032
 Alpha virt. eigenvalues --    0.09825   0.10236   0.11114   0.11449   0.11477

 Mulliken charges:
               1
     1  Si   5.341837
     2  Si   5.341907
     3  S   -1.522476
     4  H   -1.800185
     5  H   -1.853318
     6  S   -1.400661
     7  H    1.234759
     8  S   -1.522474
     9  H   -1.800162
    10  H   -1.853324
    11  S   -1.400687
    12  H    1.234784
 Sum of Mulliken charges =  -0.00000

 Dipole moment (field-independent basis, Debye):
    X=              0.0000    Y=             -2.5219    Z=             -0.0001  Tot=              2.5219

 Test job not archived.
 1\1\GINC-SE340\SP\RHF\Aug-CC-pVDZ\H6S4Si2\OHZDE\09-Apr-2025\0\\#t hf a
 ug-cc-pvdz iop(5/13=1,5/36=2,99/5=2) pseudo=read geom=check guess=(rea
 d,tcheck) scf=(maxcycle=1)\\title\\0,1\Si,0,0.897978,1.433368,0.773908
 \Si,0,-0.897983,1.433349,-0.773939\S,0,-1.798323,-0.536656,-1.00147\H,
 0,-0.430751,1.765702,-2.14158\H,0,-1.925582,2.415792,-0.355641\S,0,-2.
 423123,-0.88477,0.988051\H,0,-1.305272,-1.505729,1.414291\S,0,1.798325
 ,-0.536629,1.001481\H,0,0.430744,1.765748,2.141543\H,0,1.925572,2.4158
 07,0.35559\S,0,2.423123,-0.884785,-0.988035\H,0,1.305339,-1.50591,-1.4

 Normal termination of Gaussian 16 at Wed Apr  9 00:12:52 2025.
