 Gaussian 16, Revision C.01,

 ----------------------------------------------------------------------
 #t hf aug-cc-pvdz symm=none int=(grid=ultrafine) guess=(read,tcheck) s
 table=(opt,rrhf)
 ----------------------------------------------------------------------
 -----
 title
 -----
 Symbolic Z-matrix:
 Charge =  0 Multiplicity = 1

 SCF Done:  E(RHF) =  -533.631805705     A.U. after   15 cycles
 Normal termination of Gaussian 16 at Wed Apr  9 00:37:59 2025.
 Gaussian 16:  ES64L-G16RevC.01  3-Jul-2019

 ----------------------------------------------------------------------
 #t hf aug-cc-pvdz iop(5/13=1,5/36=2,99/5=2) pseudo=read geom=check gue
 ss=(read,tcheck) scf=(maxcycle=1)
 ----------------------------------------------------------------------
 -----
 title
 -----
 Structure from the checkpoint file:  "BDE49_nonexpt_569_mol1.chk"
 Charge =  0 Multiplicity = 1

                         Standard orientation:
 ---------------------------------------------------------------------
 Center     Atomic      Atomic             Coordinates (Angstroms)
 Number     Number       Type             X           Y           Z
 ---------------------------------------------------------------------
      1          7           0        0.085483   -0.406079    0.277836
      2          5           0       -1.267796    0.171936    0.012941
      3          7           0        1.302570    0.243313    0.000322
      4          9           0        0.211544   -1.754878    0.069376
      5          8           0        2.268795   -0.431614   -0.232465
      6          8           0        1.244268    1.469803    0.084005
      7          8           0       -1.452544    1.502668   -0.054663
      8          8           0       -2.253871   -0.740224   -0.101676
      9          1           0       -3.113041   -0.325188   -0.229747
     10          1           0       -0.621441    1.993704    0.031939
 ---------------------------------------------------------------------

 SCF Done:  E(RHF) =  -535.758903649     A.U. after    2 cycles

 The electronic state is 1-A.
 Alpha  occ. eigenvalues --  -29.33610 -21.14301 -21.12418 -21.09143 -21.08516
 Alpha  occ. eigenvalues --  -16.06837 -15.86017  -7.72008  -2.06174  -1.86726
 Alpha  occ. eigenvalues --   -1.74786  -1.70471  -1.51383  -1.02539  -0.88645
 Alpha  occ. eigenvalues --   -0.79097  -0.76523  -0.72689  -0.66995  -0.63722
 Alpha  occ. eigenvalues --   -0.57796  -0.51046  -0.49687  -0.47575  -0.41694
 Alpha  occ. eigenvalues --   -0.40015  -0.38435  -0.37394  -0.35881  -0.29389
 Alpha  occ. eigenvalues --   -0.25610
 Alpha virt. eigenvalues --    0.02961   0.04415   0.05004   0.06752   0.07525
 Alpha virt. eigenvalues --    0.08731   0.12847   0.13207   0.14955   0.16327
 Alpha virt. eigenvalues --    0.17321   0.18130   0.19318   0.20227   0.20572

 Mulliken charges:
               1
     1  N   -1.747815
     2  B    6.688187
     3  N    6.291890
     4  F    0.100643
     5  O   -2.940669
     6  O   -3.091481
     7  O   -3.861272
     8  O   -3.885428
     9  H    0.872972
    10  H    1.572972
 Sum of Mulliken charges =   0.00000

 Dipole moment (field-independent basis, Debye):
    X=             -1.2892    Y=             -1.8202    Z=             -0.3552  Tot=              2.2586

 Test job not archived.
 1\1\GINC-SE073\SP\RHF\Aug-CC-pVDZ\B1F1H2N2O4\OHZDE\09-Apr-2025\0\\#t h
 f aug-cc-pvdz iop(5/13=1,5/36=2,99/5=2) pseudo=read geom=check guess=(
 read,tcheck) scf=(maxcycle=1)\\title\\0,1\N,0,0.085483,-0.406079,0.277
 836\B,0,-1.267796,0.171936,0.012941\N,0,1.30257,0.243313,0.000322\F,0,
 0.211544,-1.754878,0.069376\O,0,2.268795,-0.431615,-0.232465\O,0,1.244
 269,1.469803,0.084005\O,0,-1.452543,1.502668,-0.054663\O,0,-2.253871,-
 0.740223,-0.101676\H,0,-3.113041,-0.325187,-0.229747\H,0,-0.62144,1.99
 3704,0.031939\\Version=ES64L-G16RevC.01\State=1-A\HF=-535.7589036\RMSD

 Normal termination of Gaussian 16 at Wed Apr  9 00:38:03 2025.
