 Gaussian 16, Revision C.01,

 ----------------------------------------------------------------------
 #t hf aug-cc-pvdz symm=none int=(grid=ultrafine) guess=(read,tcheck) s
 table=(opt,rrhf)
 ----------------------------------------------------------------------
 -----
 title
 -----
 Symbolic Z-matrix:
 Charge =  0 Multiplicity = 1

 SCF Done:  E(RHF) =  -654.766332674     A.U. after   13 cycles

 1\1\GINC-SE179\Stability\RHF\Aug-CC-pVDZ\C8H19P1\OHZDE\08-Apr-2025\0\\
 #t hf aug-cc-pvdz symm=none int=(grid=ultrafine) guess=(read,tcheck) s
 table=(opt,rrhf)\\title\\0,1\P,0,0.000457,-1.005253,-0.14391\C,0,1.589
 763,0.045533,0.003791\C,0,-1.585896,0.045533,0.007323\H,0,0.008721,-1.
 472079,1.196559\C,0,1.818445,0.695089,1.379373\H,0,1.063908,1.443866,1
 .618894\H,0,2.795325,1.194282,1.396874\H,0,1.816168,-0.052536,2.176994
 \C,0,2.723269,-0.973741,-0.248118\H,0,2.714911,-1.778745,0.493287\H,0,
 3.695607,-0.472378,-0.180812\H,0,2.64237,-1.430093,-1.237571\C,0,1.631

 Normal termination of Gaussian 16 at Tue Apr  8 23:18:34 2025.
 Gaussian 16:  ES64L-G16RevC.01  3-Jul-2019

 ----------------------------------------------------------------------
 #t hf aug-cc-pvdz iop(5/13=1,5/36=2,99/5=2) pseudo=read geom=check gue
 ss=(read,tcheck) scf=(maxcycle=1)
 ----------------------------------------------------------------------
 -----
 title
 -----
 Structure from the checkpoint file:  "BDE49_expt_821_mol1.chk"
 Charge =  0 Multiplicity = 1

                         Standard orientation:
 ---------------------------------------------------------------------
 Center     Atomic      Atomic             Coordinates (Angstroms)
 Number     Number       Type             X           Y           Z
 ---------------------------------------------------------------------
      1         15           0        0.000457   -1.005253   -0.143910
      2          6           0        1.589763    0.045533    0.003791
      3          6           0       -1.585896    0.045533    0.007323
      4          1           0        0.008721   -1.472079    1.196559
      5          6           0        1.818445    0.695089    1.379373
      6          1           0        1.063908    1.443866    1.618894
      7          1           0        2.795325    1.194282    1.396874
      8          1           0        1.816168   -0.052536    2.176994
      9          6           0        2.723269   -0.973741   -0.248118
     10          1           0        2.714911   -1.778745    0.493287
     11          1           0        3.695607   -0.472378   -0.180812
     12          1           0        2.642370   -1.430093   -1.237571
     13          6           0        1.631288    1.114844   -1.101905
     14          1           0        0.902697    1.910786   -0.930870
     15          1           0        1.439227    0.684123   -2.088819
     16          1           0        2.623073    1.580283   -1.131047
     17          6           0       -1.569988    1.179138    1.043422
     18          1           0       -1.302741    0.816487    2.038991
     19          1           0       -2.566982    1.631938    1.111210
     20          1           0       -0.873557    1.974703    0.771411
     21          6           0       -2.672482   -0.977993    0.402650
     22          1           0       -2.506091   -1.375420    1.407674
     23          1           0       -2.707366   -1.821140   -0.293156
     24          1           0       -3.656209   -0.495421    0.392039
     25          6           0       -1.933929    0.614240   -1.382837
     26          1           0       -1.980041   -0.176705   -2.136010
     27          1           0       -1.205625    1.355463   -1.719182
     28          1           0       -2.913062    1.105522   -1.350009
 ---------------------------------------------------------------------

 SCF Done:  E(RHF) =  -656.642935295     A.U. after    2 cycles

 The electronic state is 1-A.
 Alpha  occ. eigenvalues -- -105.16071 -11.42425 -11.41247 -11.39549 -11.39272
 Alpha  occ. eigenvalues --  -11.38829 -11.38739 -11.35255 -11.34714  -2.73016
 Alpha  occ. eigenvalues --   -1.49452  -1.44235  -1.42814  -1.24423  -1.20804
 Alpha  occ. eigenvalues --   -1.00934  -1.00291  -1.00235  -0.99978  -0.81187
 Alpha  occ. eigenvalues --   -0.74877  -0.69129  -0.60903  -0.60310  -0.60145
 Alpha  occ. eigenvalues --   -0.59610  -0.58867  -0.54869  -0.54218  -0.53432
 Alpha  occ. eigenvalues --   -0.53300  -0.52688  -0.51362  -0.50740  -0.44328
 Alpha  occ. eigenvalues --   -0.43805  -0.43262  -0.42703  -0.22600  -0.16585
 Alpha  occ. eigenvalues --   -0.00387
 Alpha virt. eigenvalues --    0.04221   0.05268   0.05418   0.05486   0.05652
 Alpha virt. eigenvalues --    0.05736   0.06062   0.06438   0.06713   0.06813
 Alpha virt. eigenvalues --    0.07432   0.07711   0.07960   0.08113   0.08981

 Mulliken charges:
               1
     1  P    6.246552
     2  C    1.784736
     3  C    2.157649
     4  H   -1.656778
     5  C   -5.451646
     6  H    1.376541
     7  H    1.092705
     8  H    1.272538
     9  C   -4.740846
    10  H    1.298416
    11  H    1.142839
    12  H    1.424129
    13  C   -5.510129
    14  H    1.523429
    15  H    1.425222
    16  H    1.047282
    17  C   -5.654373
    18  H    1.248391
    19  H    0.994611
    20  H    1.600340
    21  C   -4.802880
    22  H    1.410362
    23  H    1.369270
    24  H    1.123483
    25  C   -5.520665
    26  H    1.386068
    27  H    1.294397
    28  H    1.118355
 Sum of Mulliken charges =  -0.00000

 Dipole moment (field-independent basis, Debye):
    X=             -0.0902    Y=              1.8309    Z=              0.0192  Tot=              1.8332

 Test job not archived.
 1\1\GINC-SE179\SP\RHF\Aug-CC-pVDZ\C8H19P1\OHZDE\08-Apr-2025\0\\#t hf a
 ug-cc-pvdz iop(5/13=1,5/36=2,99/5=2) pseudo=read geom=check guess=(rea
 d,tcheck) scf=(maxcycle=1)\\title\\0,1\P,0,0.000457,-1.005253,-0.14391
 \C,0,1.589763,0.045533,0.003791\C,0,-1.585896,0.045533,0.007323\H,0,0.
 008721,-1.472079,1.196559\C,0,1.818445,0.695089,1.379373\H,0,1.063908,
 1.443866,1.618894\H,0,2.795325,1.194282,1.396874\H,0,1.816168,-0.05253
 6,2.176994\C,0,2.723269,-0.973741,-0.248118\H,0,2.714911,-1.778745,0.4
 93287\H,0,3.695607,-0.472378,-0.180812\H,0,2.64237,-1.430093,-1.237571

 Normal termination of Gaussian 16 at Tue Apr  8 23:18:55 2025.
