 Gaussian 16, Revision C.01,

 ----------------------------------------------------------------------
 #t hf aug-cc-pvdz symm=none int=(grid=ultrafine) guess=(read,tcheck) s
 table=(opt,rrhf)
 ----------------------------------------------------------------------
 -----
 title
 -----
 Symbolic Z-matrix:
 Charge =  0 Multiplicity = 1

 SCF Done:  E(RHF) =  -916.529023355     A.U. after   13 cycles
 Normal termination of Gaussian 16 at Tue Apr  8 23:53:43 2025.
 Gaussian 16:  ES64L-G16RevC.01  3-Jul-2019

 ----------------------------------------------------------------------
 #t hf aug-cc-pvdz iop(5/13=1,5/36=2,99/5=2) pseudo=read geom=check gue
 ss=(read,tcheck) scf=(maxcycle=1)
 ----------------------------------------------------------------------
 -----
 title
 -----
 Structure from the checkpoint file:  "BDE49_nonexpt_1931_mol1.chk"
 Charge =  0 Multiplicity = 1

                         Standard orientation:
 ---------------------------------------------------------------------
 Center     Atomic      Atomic             Coordinates (Angstroms)
 Number     Number       Type             X           Y           Z
 ---------------------------------------------------------------------
      1         14           0        2.291202    0.031763    0.023033
      2          6           0        0.624827    0.927417   -0.236386
      3          1           0        2.557761   -0.124591    1.465169
      4          1           0        3.321518    0.911493   -0.575614
      5          1           0        2.292971   -1.273387   -0.662934
      6         16           0       -0.769187   -0.181890   -0.006283
      7          8           0       -0.925386   -0.962624   -1.217132
      8          6           0       -2.196584    0.905009    0.128700
      9          1           0       -2.086265    1.537708    1.008388
     10          1           0       -3.058611    0.246802    0.242027
     11          1           0       -2.289762    1.494064   -0.782978
     12          8           0       -0.595546   -0.837027    1.277175
     13          1           0        0.553684    1.340476   -1.244343
     14          1           0        0.536858    1.735645    0.494131
 ---------------------------------------------------------------------

 SCF Done:  E(RHF) =  -918.005931461     A.U. after    2 cycles

 The electronic state is 1-A.
 Alpha  occ. eigenvalues --  -76.23312 -75.88162 -21.03888 -21.03831 -13.50628
 Alpha  occ. eigenvalues --  -13.40076 -13.33730 -11.43071 -11.40904  -8.23285
 Alpha  occ. eigenvalues --   -5.56727  -2.20360  -2.19109  -2.18978  -1.82545
 Alpha  occ. eigenvalues --   -1.64385  -1.18698  -1.08535  -0.87977  -0.76701
 Alpha  occ. eigenvalues --   -0.65534  -0.65001  -0.62395  -0.61005  -0.54318
 Alpha  occ. eigenvalues --   -0.47992  -0.47796  -0.46203  -0.42730  -0.38928
 Alpha  occ. eigenvalues --   -0.38345  -0.35848  -0.34711
 Alpha virt. eigenvalues --    0.02409   0.03978   0.04655   0.04849   0.06315
 Alpha virt. eigenvalues --    0.06444   0.07716   0.08556   0.09001   0.09889
 Alpha virt. eigenvalues --    0.10521   0.11405   0.12735   0.13571   0.14214

 Mulliken charges:
               1
     1  Si   6.153094
     2  C   -4.599055
     3  H   -1.738633
     4  H   -1.692008
     5  H   -1.689550
     6  S    6.269194
     7  O   -2.492933
     8  C   -4.608584
     9  H    1.364803
    10  H    1.342175
    11  H    1.284532
    12  O   -2.494535
    13  H    1.460915
    14  H    1.440584
 Sum of Mulliken charges =  -0.00000

 Dipole moment (field-independent basis, Debye):
    X=             -0.2908    Y=              2.2551    Z=             -0.0555  Tot=              2.2744

 Test job not archived.
 1\1\GINC-SE364\SP\RHF\Aug-CC-pVDZ\C2H8O2S1Si1\OHZDE\08-Apr-2025\0\\#t
 hf aug-cc-pvdz iop(5/13=1,5/36=2,99/5=2) pseudo=read geom=check guess=
 (read,tcheck) scf=(maxcycle=1)\\title\\0,1\Si,0,2.291202,0.031763,0.02
 3033\C,0,0.624827,0.927417,-0.236386\H,0,2.557761,-0.124591,1.465169\H
 ,0,3.321518,0.911493,-0.575614\H,0,2.292971,-1.273387,-0.662934\S,0,-0
 .769187,-0.18189,-0.006283\O,0,-0.925386,-0.962624,-1.217132\C,0,-2.19
 6584,0.905009,0.1287\H,0,-2.086265,1.537708,1.008388\H,0,-3.058611,0.2
 46802,0.242027\H,0,-2.289762,1.494064,-0.782978\O,0,-0.595546,-0.83702

 Normal termination of Gaussian 16 at Tue Apr  8 23:53:48 2025.
