 Gaussian 16, Revision C.01,

 ----------------------------------------------------------------------
 #t hf aug-cc-pvdz symm=none int=(grid=ultrafine) guess=(read,tcheck) s
 table=(opt,rrhf)
 ----------------------------------------------------------------------
 -----
 title
 -----
 Symbolic Z-matrix:
 Charge =  0 Multiplicity = 1

 SCF Done:  E(RHF) =  -477.927849078     A.U. after   12 cycles
 Normal termination of Gaussian 16 at Wed Apr  9 00:44:53 2025.
 Gaussian 16:  ES64L-G16RevC.01  3-Jul-2019

 ----------------------------------------------------------------------
 #t hf aug-cc-pvdz iop(5/13=1,5/36=2,99/5=2) pseudo=read geom=check gue
 ss=(read,tcheck) scf=(maxcycle=1)
 ----------------------------------------------------------------------
 -----
 title
 -----
 Structure from the checkpoint file:  "BDE49_nonexpt_767_mol1.chk"
 Charge =  0 Multiplicity = 1

                         Standard orientation:
 ---------------------------------------------------------------------
 Center     Atomic      Atomic             Coordinates (Angstroms)
 Number     Number       Type             X           Y           Z
 ---------------------------------------------------------------------
      1          5           0        0.509589    0.000000    0.016776
      2         15           0       -1.449909    0.000000   -0.121828
      3          7           0        1.195510    1.236588    0.007302
      4          7           0        1.195510   -1.236588    0.007302
      5          1           0        0.725352   -2.124853    0.024130
      6          1           0        2.200525   -1.314190   -0.019356
      7          1           0        0.725352    2.124853    0.024129
      8          1           0        2.200525    1.314190   -0.019356
      9          1           0       -1.694102    1.037244    0.815884
     10          1           0       -1.694102   -1.037244    0.815883
 ---------------------------------------------------------------------

 SCF Done:  E(RHF) =  -478.762527385     A.U. after    2 cycles

 The electronic state is 1-A.
 Alpha  occ. eigenvalues -- -105.15002 -15.71629 -15.71573  -7.61100  -2.72012
 Alpha  occ. eigenvalues --   -1.47208  -1.41736  -1.40136  -1.33415  -1.23720
 Alpha  occ. eigenvalues --   -0.79053  -0.71792  -0.66212  -0.62591  -0.53178
 Alpha  occ. eigenvalues --   -0.46087  -0.34976  -0.24441  -0.15526  -0.01708
 Alpha virt. eigenvalues --    0.03697   0.04155   0.05087   0.05942   0.08098
 Alpha virt. eigenvalues --    0.08395   0.09175   0.09851   0.10707   0.11113
 Alpha virt. eigenvalues --    0.12279   0.12708   0.16900   0.18443   0.18497

 Mulliken charges:
               1
     1  B    2.963883
     2  P    1.022909
     3  N   -2.900789
     4  N   -2.900788
     5  H    0.962010
     6  H    0.797732
     7  H    0.962011
     8  H    0.797732
     9  H   -0.852350
    10  H   -0.852351
 Sum of Mulliken charges =   0.00000

 Dipole moment (field-independent basis, Debye):
    X=             -0.6873    Y=             -0.0000    Z=             -3.2514  Tot=              3.3233

 Test job not archived.
 1\1\GINC-SE365\SP\RHF\Aug-CC-pVDZ\B1H6N2P1\OHZDE\09-Apr-2025\0\\#t hf
 aug-cc-pvdz iop(5/13=1,5/36=2,99/5=2) pseudo=read geom=check guess=(re
 ad,tcheck) scf=(maxcycle=1)\\title\\0,1\B,0,-0.509589,0.,0.016776\P,0,
 1.449909,0.,-0.121828\N,0,-1.19551,-1.236588,0.007302\N,0,-1.19551,1.2
 36588,0.007302\H,0,-0.725352,2.124853,0.02413\H,0,-2.200525,1.31419,-0
 .019356\H,0,-0.725352,-2.124853,0.024129\H,0,-2.200525,-1.31419,-0.019
 356\H,0,1.694102,-1.037244,0.815884\H,0,1.694102,1.037244,0.815883\\Ve
 rsion=ES64L-G16RevC.01\State=1-A\HF=-478.7625274\RMSD=2.352e-01\Dipole

 Normal termination of Gaussian 16 at Wed Apr  9 00:44:55 2025.
