 Gaussian 16, Revision C.01,

 ----------------------------------------------------------------------
 #t hf aug-cc-pvdz symm=none int=(grid=ultrafine) guess=(read,tcheck) s
 table=(opt,rrhf)
 ----------------------------------------------------------------------
 -----
 title
 -----
 Symbolic Z-matrix:
 Charge =  0 Multiplicity = 1

 SCF Done:  E(RHF) =  -1662.79454045     A.U. after   14 cycles
 Normal termination of Gaussian 16 at Tue Apr  8 22:52:30 2025.
 Gaussian 16:  ES64L-G16RevC.01  3-Jul-2019

 ----------------------------------------------------------------------
 #t hf aug-cc-pvdz iop(5/13=1,5/36=2,99/5=2) pseudo=read geom=check gue
 ss=(read,tcheck) scf=(maxcycle=1)
 ----------------------------------------------------------------------
 -----
 title
 -----
 Structure from the checkpoint file:  "BDE49_expt_1724_mol1.chk"
 Charge =  0 Multiplicity = 1

                         Standard orientation:
 ---------------------------------------------------------------------
 Center     Atomic      Atomic             Coordinates (Angstroms)
 Number     Number       Type             X           Y           Z
 ---------------------------------------------------------------------
      1          6           0        0.713435   -0.001156   -0.000869
      2          6           0       -0.668598    0.771991    0.008814
      3         17           0        2.046544    1.168785   -0.067735
      4         17           0        0.838486   -1.070241   -1.453664
      5         17           0        0.905761   -0.976979    1.510680
      6          7           0       -1.822896    0.051369    0.029588
      7          6           0       -3.078562    0.803793   -0.006479
      8          8           0       -0.629874    1.982908    0.000987
      9          1           0       -2.859567    1.866844   -0.007351
     10          1           0       -3.684988    0.554144    0.869303
     11          1           0       -3.642403    0.545165   -0.908550
     12          6           0       -2.006252   -1.397270    0.001216
     13          1           0       -1.090194   -1.935846    0.204832
     14          1           0       -2.390311   -1.712516   -0.974733
     15          1           0       -2.736859   -1.671397    0.767613
 ---------------------------------------------------------------------

 SCF Done:  E(RHF) =  -1664.85222235     A.U. after    2 cycles

 The electronic state is 1-A.
 Alpha  occ. eigenvalues --  -99.92375 -99.92359 -99.91050 -21.04723 -15.77079
 Alpha  occ. eigenvalues --  -11.58583 -11.52124 -11.42024 -11.40651 -10.49736
 Alpha  occ. eigenvalues --  -10.49614 -10.48415  -9.69621  -9.69589  -9.69097
 Alpha  occ. eigenvalues --   -9.68926  -9.68797  -9.68743  -9.68336  -9.67514
 Alpha  occ. eigenvalues --   -9.67383  -1.74064  -1.46815  -1.42721  -1.31409
 Alpha  occ. eigenvalues --   -1.30355  -1.07625  -1.05936  -0.97056  -0.79729
 Alpha  occ. eigenvalues --   -0.73235  -0.71914  -0.69399  -0.66909  -0.62556
 Alpha  occ. eigenvalues --   -0.59780  -0.57892  -0.57527  -0.56419  -0.53928
 Alpha  occ. eigenvalues --   -0.52175  -0.51871  -0.50373  -0.50116  -0.49909
 Alpha  occ. eigenvalues --   -0.47236  -0.32081  -0.31395
 Alpha virt. eigenvalues --    0.00333   0.03298   0.04796   0.05186   0.05635
 Alpha virt. eigenvalues --    0.06199   0.06614   0.07244   0.07638   0.08163
 Alpha virt. eigenvalues --    0.09977   0.10327   0.12482   0.13396   0.13689

 Mulliken charges:
               1
     1  C   -1.288609
     2  C    4.854626
     3  Cl   0.132285
     4  Cl   0.199839
     5  Cl   0.191557
     6  N   -2.924736
     7  C   -3.490790
     8  O   -3.083650
     9  H    1.460290
    10  H    1.404874
    11  H    1.424766
    12  C   -3.269798
    13  H    1.616836
    14  H    1.334750
    15  H    1.437762
 Sum of Mulliken charges =  -0.00000

 Dipole moment (field-independent basis, Debye):
    X=             -3.1689    Y=             -0.6570    Z=             -0.0063  Tot=              3.2363

 Test job not archived.
 1\1\GINC-SE331\SP\RHF\Aug-CC-pVDZ\C4H6Cl3N1O1\OHZDE\08-Apr-2025\0\\#t
 hf aug-cc-pvdz iop(5/13=1,5/36=2,99/5=2) pseudo=read geom=check guess=
 (read,tcheck) scf=(maxcycle=1)\\title\\0,1\C,0,0.713435,-0.001156,-0.0
 00869\C,0,-0.668598,0.771991,0.008814\Cl,0,2.046544,1.168785,-0.067735
 \Cl,0,0.838486,-1.070241,-1.453664\Cl,0,0.905761,-0.976979,1.51068\N,0
 ,-1.822896,0.051369,0.029588\C,0,-3.078562,0.803793,-0.006479\O,0,-0.6
 29874,1.982908,0.000987\H,0,-2.859567,1.866844,-0.007351\H,0,-3.684988
 ,0.554143,0.869303\H,0,-3.642403,0.545164,-0.90855\C,0,-2.006252,-1.39

 Normal termination of Gaussian 16 at Tue Apr  8 22:52:37 2025.
