 Gaussian 16, Revision C.01,

 ----------------------------------------------------------------------
 #t hf aug-cc-pvdz symm=none int=(grid=ultrafine) guess=(read,tcheck) s
 table=(opt,rrhf)
 ----------------------------------------------------------------------
 -----
 title
 -----
 Symbolic Z-matrix:
 Charge =  0 Multiplicity = 1

 SCF Done:  E(RHF) =  -1081.84164829     A.U. after   13 cycles
 Normal termination of Gaussian 16 at Tue Apr  8 23:45:04 2025.
 Gaussian 16:  ES64L-G16RevC.01  3-Jul-2019

 ----------------------------------------------------------------------
 #t hf aug-cc-pvdz iop(5/13=1,5/36=2,99/5=2) pseudo=read geom=check gue
 ss=(read,tcheck) scf=(maxcycle=1)
 ----------------------------------------------------------------------
 -----
 title
 -----
 Structure from the checkpoint file:  "BDE49_nonexpt_1709_mol1.chk"
 Charge =  0 Multiplicity = 1

                         Standard orientation:
 ---------------------------------------------------------------------
 Center     Atomic      Atomic             Coordinates (Angstroms)
 Number     Number       Type             X           Y           Z
 ---------------------------------------------------------------------
      1          6           0       -1.765928    0.085508    0.309065
      2         16           0       -0.436409   -0.818834   -0.650647
      3         15           0        1.279949    0.050958    0.204513
      4          8           0        1.174950    0.342410    1.633928
      5          8           0        2.425113   -0.974024   -0.270483
      6          6           0       -2.016081    1.481254   -0.257118
      7          1           0       -2.363130    1.427897   -1.292668
      8          1           0       -1.114956    2.095612   -0.227354
      9          6           0       -3.015862   -0.794707    0.290326
     10          1           0       -1.370275    0.154196    1.322895
     11          1           0       -3.810414   -0.308382    0.863917
     12          1           0       -2.824205   -1.773445    0.733717
     13          1           0       -3.384488   -0.943864   -0.728815
     14          1           0       -2.786459    1.985451    0.335729
     15          1           0        2.428953   -1.785719    0.252253
     16          8           0        1.669029    1.339616   -0.658383
     17          1           0        1.642767    1.188886   -1.611163
 ---------------------------------------------------------------------

 SCF Done:  E(RHF) =  -1083.81919017     A.U. after    2 cycles

 The electronic state is 1-A.
 Alpha  occ. eigenvalues -- -105.32009 -75.69616 -21.12425 -21.12160 -21.02747
 Alpha  occ. eigenvalues --  -13.15223 -13.10441 -13.05533 -11.44582 -11.39867
 Alpha  occ. eigenvalues --  -11.37312  -8.03852  -2.94314  -1.99503  -1.90557
 Alpha  occ. eigenvalues --   -1.80145  -1.54053  -1.40919  -1.27445  -1.24858
 Alpha  occ. eigenvalues --   -1.03299  -1.01903  -0.82933  -0.69862  -0.64069
 Alpha  occ. eigenvalues --   -0.61571  -0.60690  -0.57884  -0.55022  -0.53182
 Alpha  occ. eigenvalues --   -0.49876  -0.48154  -0.45345  -0.43202  -0.38091
 Alpha  occ. eigenvalues --   -0.36507  -0.33814  -0.28963  -0.26873  -0.22039
 Alpha  occ. eigenvalues --   -0.14705
 Alpha virt. eigenvalues --    0.03378   0.04435   0.04913   0.05781   0.06160
 Alpha virt. eigenvalues --    0.06754   0.07319   0.07775   0.08274   0.10075
 Alpha virt. eigenvalues --    0.11216   0.12215   0.12778   0.13510   0.13679

 Mulliken charges:
               1
     1  C   -2.056111
     2  S   -1.557851
     3  P    8.638398
     4  O   -3.061628
     5  O   -2.717456
     6  C   -3.734517
     7  H    1.398339
     8  H    1.352306
     9  C   -3.979669
    10  H    1.831354
    11  H    1.202213
    12  H    1.375687
    13  H    1.249379
    14  H    1.211396
    15  H    0.897977
    16  O   -2.993160
    17  H    0.943346
 Sum of Mulliken charges =  -0.00000

 Dipole moment (field-independent basis, Debye):
    X=              0.7673    Y=             -0.6654    Z=             -2.4377  Tot=              2.6409

 Test job not archived.
 1\1\GINC-SE097\SP\RHF\Aug-CC-pVDZ\C3H9O3P1S1\OHZDE\08-Apr-2025\0\\#t h
 f aug-cc-pvdz iop(5/13=1,5/36=2,99/5=2) pseudo=read geom=check guess=(
 read,tcheck) scf=(maxcycle=1)\\title\\0,1\C,0,-1.765928,0.085508,0.309
 065\S,0,-0.436409,-0.818834,-0.650647\P,0,1.279949,0.050958,0.204513\O
 ,0,1.17495,0.34241,1.633928\O,0,2.425113,-0.974024,-0.270483\C,0,-2.01
 6081,1.481254,-0.257118\H,0,-2.36313,1.427897,-1.292668\H,0,-1.114956,
 2.095612,-0.227354\C,0,-3.015862,-0.794707,0.290326\H,0,-1.370275,0.15
 4196,1.322895\H,0,-3.810414,-0.308382,0.863917\H,0,-2.824205,-1.773445

 Normal termination of Gaussian 16 at Tue Apr  8 23:45:12 2025.
