 Gaussian 16, Revision C.01,

 ----------------------------------------------------------------------
 #t hf aug-cc-pvdz symm=none int=(grid=ultrafine) guess=(read,tcheck) s
 table=(opt,rrhf)
 ----------------------------------------------------------------------
 -----
 title
 -----
 Symbolic Z-matrix:
 Charge =  0 Multiplicity = 1

 SCF Done:  E(RHF) =  -618.011472309     A.U. after   13 cycles
 Normal termination of Gaussian 16 at Wed Apr  9 00:44:32 2025.
 Gaussian 16:  ES64L-G16RevC.01  3-Jul-2019

 ----------------------------------------------------------------------
 #t hf aug-cc-pvdz iop(5/13=1,5/36=2,99/5=2) pseudo=read geom=check gue
 ss=(read,tcheck) scf=(maxcycle=1)
 ----------------------------------------------------------------------
 -----
 title
 -----
 Structure from the checkpoint file:  "BDE49_nonexpt_715_mol1.chk"
 Charge =  0 Multiplicity = 1

                         Standard orientation:
 ---------------------------------------------------------------------
 Center     Atomic      Atomic             Coordinates (Angstroms)
 Number     Number       Type             X           Y           Z
 ---------------------------------------------------------------------
      1          6           0       -0.243549    2.127363    0.238468
      2          5           0       -0.355418    0.577680   -0.071947
      3          1           0       -1.187626    2.676420    0.270396
      4          1           0        0.389226    2.622567   -0.505632
      5          1           0        0.258574    2.289621    1.200813
      6         15           0        1.277815   -0.426101   -0.521277
      7          7           0       -1.581385   -0.113419   -0.090211
      8          6           0       -2.870762    0.466085    0.279237
      9          1           0       -2.759558    1.494550    0.610660
     10          1           0       -3.328563   -0.107764    1.094285
     11          1           0       -3.564462    0.445260   -0.570554
     12          6           0       -1.725532   -1.517608   -0.467285
     13          1           0       -2.533056   -1.628345   -1.200482
     14          1           0       -0.808121   -1.890775   -0.920486
     15          1           0       -1.975985   -2.141459    0.399916
     16          6           0        1.494674   -1.476463    1.014302
     17          1           0        1.456614   -0.892552    1.938216
     18          1           0        2.462218   -1.982174    0.962690
     19          1           0        0.721452   -2.245673    1.057377
     20          6           0        2.637608    0.813222   -0.226172
     21          1           0        3.599291    0.300466   -0.307803
     22          1           0        2.610759    1.581486   -1.001884
     23          1           0        2.584163    1.299833    0.751556
 ---------------------------------------------------------------------

 SCF Done:  E(RHF) =  -619.642258979     A.U. after    2 cycles

 The electronic state is 1-A.
 Alpha  occ. eigenvalues -- -105.13429 -15.69859 -11.39724 -11.38726 -11.36393
 Alpha  occ. eigenvalues --  -11.35866 -11.33358  -7.59588  -2.71444  -1.47559
 Alpha  occ. eigenvalues --   -1.44512  -1.42171  -1.39163  -1.07445  -1.04276
 Alpha  occ. eigenvalues --   -1.00631  -0.95331  -0.92895  -0.71008  -0.64111
 Alpha  occ. eigenvalues --   -0.63281  -0.60381  -0.56453  -0.56026  -0.55096
 Alpha  occ. eigenvalues --   -0.54775  -0.54432  -0.54088  -0.53003  -0.52516
 Alpha  occ. eigenvalues --   -0.49569  -0.43684  -0.35131  -0.19316  -0.12629
 Alpha  occ. eigenvalues --    0.00693
 Alpha virt. eigenvalues --    0.03626   0.04323   0.04700   0.05562   0.06681
 Alpha virt. eigenvalues --    0.06805   0.06877   0.07262   0.07353   0.07558
 Alpha virt. eigenvalues --    0.07805   0.08099   0.08196   0.08806   0.08952

 Mulliken charges:
               1
     1  C   -6.810449
     2  B    4.078953
     3  H    1.172965
     4  H    0.816446
     5  H    0.846856
     6  P    6.940279
     7  N   -4.309415
     8  C   -3.258863
     9  H    1.653812
    10  H    1.446149
    11  H    1.435358
    12  C   -2.732470
    13  H    1.425424
    14  H    1.833413
    15  H    1.483999
    16  C   -6.495951
    17  H    1.309407
    18  H    1.206924
    19  H    1.143721
    20  C   -6.631040
    21  H    1.175831
    22  H    1.127782
    23  H    1.140870
 Sum of Mulliken charges =   0.00000

 Dipole moment (field-independent basis, Debye):
    X=             -2.4296    Y=             -0.1654    Z=              0.1904  Tot=              2.4426

 Test job not archived.
 1\1\GINC-SE329\SP\RHF\Aug-CC-pVDZ\C5H15B1N1P1\OHZDE\09-Apr-2025\0\\#t
 hf aug-cc-pvdz iop(5/13=1,5/36=2,99/5=2) pseudo=read geom=check guess=
 (read,tcheck) scf=(maxcycle=1)\\title\\0,1\C,0,-0.243549,2.127363,0.23
 8468\B,0,-0.355418,0.57768,-0.071947\H,0,-1.187626,2.67642,0.270396\H,
 0,0.389226,2.622567,-0.505632\H,0,0.258574,2.289621,1.200813\P,0,1.277
 815,-0.426101,-0.521277\N,0,-1.581385,-0.113419,-0.090211\C,0,-2.87076
 2,0.466085,0.279237\H,0,-2.759558,1.49455,0.61066\H,0,-3.328563,-0.107
 764,1.094285\H,0,-3.564462,0.44526,-0.570554\C,0,-1.725532,-1.517608,-

 Normal termination of Gaussian 16 at Wed Apr  9 00:44:44 2025.
