 Gaussian 16, Revision C.01,

 ----------------------------------------------------------------------
 #t hf aug-cc-pvdz symm=none int=(grid=ultrafine) guess=(read,tcheck) s
 table=(opt,rrhf)
 ----------------------------------------------------------------------
 -----
 title
 -----
 Symbolic Z-matrix:
 Charge =  0 Multiplicity = 1

 SCF Done:  E(RHF) =  -1068.01068699     A.U. after   15 cycles
 Normal termination of Gaussian 16 at Wed Apr  9 00:16:55 2025.
 Gaussian 16:  ES64L-G16RevC.01  3-Jul-2019

 ----------------------------------------------------------------------
 #t hf aug-cc-pvdz iop(5/13=1,5/36=2,99/5=2) pseudo=read geom=check gue
 ss=(read,tcheck) scf=(maxcycle=1)
 ----------------------------------------------------------------------
 -----
 title
 -----
 Structure from the checkpoint file:  "BDE49_nonexpt_2510_mol1.chk"
 Charge =  0 Multiplicity = 1

                         Standard orientation:
 ---------------------------------------------------------------------
 Center     Atomic      Atomic             Coordinates (Angstroms)
 Number     Number       Type             X           Y           Z
 ---------------------------------------------------------------------
      1         16           0        1.187309    0.000000   -0.571152
      2         14           0        2.214706    0.000000    1.424868
      3          8           0        1.503084    1.271716   -1.214454
      4          8           0        1.503084   -1.271716   -1.214454
      5          6           0       -0.575240    0.000000   -0.212860
      6          6           0       -1.242259   -1.217104   -0.076793
      7          6           0       -1.242259    1.217104   -0.076792
      8          6           0       -2.604559   -1.210363    0.210466
      9          6           0       -2.604559    1.210363    0.210466
     10          6           0       -3.281727    0.000000    0.357011
     11          1           0       -0.701277   -2.144212   -0.218717
     12          1           0       -3.138340   -2.148165    0.311161
     13          1           0       -0.701277    2.144212   -0.218717
     14          1           0       -3.138340    2.148165    0.311161
     15          1           0       -4.342896    0.000000    0.578670
     16          1           0        3.650395    0.000000    1.089172
     17          1           0        1.811582   -1.220587    2.149916
     18          1           0        1.811582    1.220587    2.149916
 ---------------------------------------------------------------------

 SCF Done:  E(RHF) =  -1070.15887118     A.U. after    2 cycles

 The electronic state is 1-A.
 Alpha  occ. eigenvalues --  -76.26854 -75.86973 -21.03741 -21.03668 -13.49060
 Alpha  occ. eigenvalues --  -13.36795 -13.32716 -11.53941 -11.45918 -11.45622
 Alpha  occ. eigenvalues --  -11.43728 -11.43038 -11.38984  -8.21960  -5.60190
 Alpha  occ. eigenvalues --   -2.22611  -2.22378  -2.22371  -1.81216  -1.63931
 Alpha  occ. eigenvalues --   -1.36692  -1.14329  -1.11693  -0.99223  -0.89082
 Alpha  occ. eigenvalues --   -0.86423  -0.79552  -0.73471  -0.66248  -0.61285
 Alpha  occ. eigenvalues --   -0.60831  -0.60029  -0.57158  -0.52095  -0.51723
 Alpha  occ. eigenvalues --   -0.51103  -0.47809  -0.47765  -0.43524  -0.39060
 Alpha  occ. eigenvalues --   -0.38455  -0.35203  -0.35145  -0.34651  -0.30623
 Alpha virt. eigenvalues --    0.02629   0.03840   0.04849   0.04911   0.05647
 Alpha virt. eigenvalues --    0.05990   0.06606   0.07249   0.07712   0.08250
 Alpha virt. eigenvalues --    0.09237   0.10053   0.10479   0.11685   0.11939

 Mulliken charges:
               1
     1  S    4.378128
     2  Si   5.698588
     3  O   -2.586586
     4  O   -2.586586
     5  C    2.061495
     6  C   -3.396505
     7  C   -3.396495
     8  C   -0.508205
     9  C   -0.508198
    10  C   -2.634531
    11  H    1.935798
    12  H    1.515167
    13  H    1.935798
    14  H    1.515167
    15  H    1.549243
    16  H   -1.632143
    17  H   -1.670067
    18  H   -1.670067
 Sum of Mulliken charges =  -0.00000

 Dipole moment (field-independent basis, Debye):
    X=             -2.2171    Y=             -0.0000    Z=              1.8727  Tot=              2.9022

 Test job not archived.
 1\1\GINC-SE332\SP\RHF\Aug-CC-pVDZ\C6H8O2S1Si1\OHZDE\09-Apr-2025\0\\#t
 hf aug-cc-pvdz iop(5/13=1,5/36=2,99/5=2) pseudo=read geom=check guess=
 (read,tcheck) scf=(maxcycle=1)\\title\\0,1\S,0,-1.187309,0.,-0.571152\
 Si,0,-2.214706,0.,1.424868\O,0,-1.503084,-1.271716,-1.214454\O,0,-1.50
 3084,1.271716,-1.214454\C,0,0.57524,0.,-0.21286\C,0,1.242259,1.217104,
 -0.076793\C,0,1.242259,-1.217104,-0.076792\C,0,2.604559,1.210363,0.210
 466\C,0,2.604559,-1.210363,0.210466\C,0,3.281727,0.,0.357011\H,0,0.701
 277,2.144212,-0.218717\H,0,3.13834,2.148165,0.311161\H,0,0.701277,-2.1

 Normal termination of Gaussian 16 at Wed Apr  9 00:17:04 2025.
