 Gaussian 16, Revision C.01,

 ----------------------------------------------------------------------
 #t hf aug-cc-pvdz symm=none int=(grid=ultrafine) guess=(read,tcheck) s
 table=(opt,rrhf)
 ----------------------------------------------------------------------
 -----
 title
 -----
 Symbolic Z-matrix:
 Charge =  0 Multiplicity = 1

 SCF Done:  E(RHF) =  -743.945771041     A.U. after   14 cycles
 Normal termination of Gaussian 16 at Wed Apr  9 00:47:56 2025.
 Gaussian 16:  ES64L-G16RevC.01  3-Jul-2019

 ----------------------------------------------------------------------
 #t hf aug-cc-pvdz iop(5/13=1,5/36=2,99/5=2) pseudo=read geom=check gue
 ss=(read,tcheck) scf=(maxcycle=1)
 ----------------------------------------------------------------------
 -----
 title
 -----
 Structure from the checkpoint file:  "BDE49_nonexpt_823_mol1.chk"
 Charge =  0 Multiplicity = 1

                         Standard orientation:
 ---------------------------------------------------------------------
 Center     Atomic      Atomic             Coordinates (Angstroms)
 Number     Number       Type             X           Y           Z
 ---------------------------------------------------------------------
      1          6           0       -0.666971   -0.386178    0.202779
      2          5           0        2.481846    0.224724   -0.144643
      3          9           0        2.394243    1.536153    0.067734
      4          9           0        3.550541   -0.181022   -0.816974
      5          6           0       -0.970471    0.977412    0.351249
      6          6           0       -1.694802   -1.252524   -0.201582
      7          6           0       -2.256799    1.454680    0.113104
      8          6           0       -3.265224    0.578031   -0.282955
      9          6           0       -2.982159   -0.776552   -0.441637
     10          1           0       -3.762201   -1.462285   -0.753564
     11          1           0       -1.490012   -2.310152   -0.333380
     12          1           0       -2.470942    2.510943    0.232947
     13          1           0       -4.266343    0.950024   -0.470427
     14          1           0       -0.195933    1.676870    0.647962
     15         14           0        1.057233   -1.048205    0.553283
     16          1           0        1.207109   -2.386315   -0.064883
     17          1           0        1.283324   -1.193230    2.016015
 ---------------------------------------------------------------------

 SCF Done:  E(RHF) =  -745.986315899     A.U. after    2 cycles

 The electronic state is 1-A.
 Alpha  occ. eigenvalues --  -76.21761 -29.26240 -29.26083 -11.51686 -11.43387
 Alpha  occ. eigenvalues --  -11.43047 -11.41140 -11.40820 -11.36647  -7.70249
 Alpha  occ. eigenvalues --   -5.55519  -2.20432  -2.19116  -2.17652  -1.34179
 Alpha  occ. eigenvalues --   -1.11613  -1.09563  -1.09360  -0.86813  -0.86698
 Alpha  occ. eigenvalues --   -0.77446  -0.74468  -0.70352  -0.64058  -0.58935
 Alpha  occ. eigenvalues --   -0.57372  -0.54237  -0.52827  -0.50855  -0.49958
 Alpha  occ. eigenvalues --   -0.47242  -0.45274  -0.44514  -0.44325  -0.40305
 Alpha  occ. eigenvalues --   -0.34507  -0.34145  -0.33656  -0.33437  -0.24293
 Alpha virt. eigenvalues --    0.03002   0.04134   0.04704   0.05250   0.05468
 Alpha virt. eigenvalues --    0.05757   0.06852   0.07543   0.08063   0.08958
 Alpha virt. eigenvalues --    0.09653   0.09820   0.10055   0.10883   0.11448

 Mulliken charges:
               1
     1  C   -0.199030
     2  B    0.245408
     3  F   -1.219158
     4  F   -0.239005
     5  C   -1.272925
     6  C   -3.643689
     7  C   -0.735416
     8  C   -2.078598
     9  C   -0.695923
    10  H    1.544368
    11  H    1.804499
    12  H    1.536985
    13  H    1.515378
    14  H    1.936679
    15  Si   5.319330
    16  H   -1.756128
    17  H   -2.062776
 Sum of Mulliken charges =   0.00000

 Dipole moment (field-independent basis, Debye):
    X=              0.4110    Y=              1.9924    Z=             -1.1843  Tot=              2.3539

 Test job not archived.
 1\1\GINC-SE345\SP\RHF\Aug-CC-pVDZ\C6H7B1F2Si1\OHZDE\09-Apr-2025\0\\#t
 hf aug-cc-pvdz iop(5/13=1,5/36=2,99/5=2) pseudo=read geom=check guess=
 (read,tcheck) scf=(maxcycle=1)\\title\\0,1\C,0,-0.666971,-0.386178,0.2
 02779\B,0,2.481846,0.224724,-0.144643\F,0,2.394243,1.536153,0.067734\F
 ,0,3.550541,-0.181022,-0.816974\C,0,-0.970471,0.977412,0.351249\C,0,-1
 .694802,-1.252524,-0.201582\C,0,-2.256799,1.45468,0.113104\C,0,-3.2652
 24,0.578031,-0.282955\C,0,-2.982159,-0.776552,-0.441637\H,0,-3.762201,
 -1.462285,-0.753564\H,0,-1.490012,-2.310152,-0.33338\H,0,-2.470942,2.5

 Normal termination of Gaussian 16 at Wed Apr  9 00:48:04 2025.
