 Gaussian 16, Revision C.01,

 ----------------------------------------------------------------------
 #t hf aug-cc-pvdz symm=none int=(grid=ultrafine) guess=(read,tcheck) s
 table=(opt,rrhf)
 ----------------------------------------------------------------------
 -----
 title
 -----
 Symbolic Z-matrix:
 Charge =  0 Multiplicity = 1

 SCF Done:  E(RHF) =  -1467.50845642     A.U. after   12 cycles
 Normal termination of Gaussian 16 at Wed Apr  9 00:26:32 2025.
 Gaussian 16:  ES64L-G16RevC.01  3-Jul-2019

 ----------------------------------------------------------------------
 #t hf aug-cc-pvdz iop(5/13=1,5/36=2,99/5=2) pseudo=read geom=check gue
 ss=(read,tcheck) scf=(maxcycle=1)
 ----------------------------------------------------------------------
 -----
 title
 -----
 Structure from the checkpoint file:  "BDE49_nonexpt_2738_mol1.chk"
 Charge =  0 Multiplicity = 1

                         Standard orientation:
 ---------------------------------------------------------------------
 Center     Atomic      Atomic             Coordinates (Angstroms)
 Number     Number       Type             X           Y           Z
 ---------------------------------------------------------------------
      1          6           0        0.990654    1.663139    0.234709
      2         16           0        0.990654    0.289161   -0.992260
      3          9           0        2.234355    2.169304    0.208321
      4          9           0        0.720920    1.259575    1.477889
      5          9           0        0.127143    2.633430   -0.078665
      6         16           0       -0.990654   -0.289161   -0.992260
      7          6           0       -0.990654   -1.663139    0.234709
      8          9           0       -2.234355   -2.169304    0.208321
      9          9           0       -0.720920   -1.259575    1.477889
     10          9           0       -0.127143   -2.633430   -0.078665
 ---------------------------------------------------------------------

 SCF Done:  E(RHF) =  -1470.30043820     A.U. after    2 cycles

 The electronic state is 1-A.
 Alpha  occ. eigenvalues --  -75.76839 -75.76643 -29.33972 -29.33971 -29.33717
 Alpha  occ. eigenvalues --  -29.33716 -29.33544 -29.33542 -13.22748 -13.18381
 Alpha  occ. eigenvalues --  -13.16655 -13.14746 -13.11019 -13.09840 -11.61743
 Alpha  occ. eigenvalues --  -11.61425  -8.10927  -8.10799  -1.47288  -1.44289
 Alpha  occ. eigenvalues --   -1.22860  -1.05347  -0.92484  -0.91636  -0.91477
 Alpha  occ. eigenvalues --   -0.91195  -0.74131  -0.68371  -0.51420  -0.50501
 Alpha  occ. eigenvalues --   -0.47394  -0.46362  -0.46039  -0.45209  -0.44150
 Alpha  occ. eigenvalues --   -0.41100  -0.40445  -0.39742  -0.36423  -0.34079
 Alpha  occ. eigenvalues --   -0.34037  -0.29786  -0.29009  -0.27542  -0.26781
 Alpha  occ. eigenvalues --   -0.24885  -0.23910  -0.23468  -0.22523
 Alpha virt. eigenvalues --    0.06399   0.06602   0.08800   0.09909   0.10256
 Alpha virt. eigenvalues --    0.13003   0.13017   0.13643   0.13890   0.14356
 Alpha virt. eigenvalues --    0.14632   0.15052   0.18228   0.18279   0.18325

 Mulliken charges:
               1
     1  C   -1.286475
     2  S   -0.348832
     3  F    0.594928
     4  F    0.535075
     5  F    0.505304
     6  S   -0.348832
     7  C   -1.286475
     8  F    0.594928
     9  F    0.535075
    10  F    0.505304
 Sum of Mulliken charges =   0.00000

 Dipole moment (field-independent basis, Debye):
    X=             -0.0000    Y=             -0.0000    Z=              2.5656  Tot=              2.5656

 Test job not archived.
 1\1\GINC-SE186\SP\RHF\Aug-CC-pVDZ\C2F6S2\OHZDE\09-Apr-2025\0\\#t hf au
 g-cc-pvdz iop(5/13=1,5/36=2,99/5=2) pseudo=read geom=check guess=(read
 ,tcheck) scf=(maxcycle=1)\\title\\0,1\C,0,0.990654,1.663139,0.234709\S
 ,0,0.990654,0.289161,-0.99226\F,0,2.234355,2.169304,0.208321\F,0,0.720
 92,1.259575,1.477889\F,0,0.127143,2.63343,-0.078665\S,0,-0.990654,-0.2
 89161,-0.99226\C,0,-0.990654,-1.663139,0.234709\F,0,-2.234355,-2.16930
 4,0.208321\F,0,-0.72092,-1.259575,1.477889\F,0,-0.127143,-2.63343,-0.0
 78665\\Version=ES64L-G16RevC.01\State=1-A\HF=-1470.3004382\RMSD=5.173e

 Normal termination of Gaussian 16 at Wed Apr  9 00:26:37 2025.
