 Gaussian 16, Revision C.01,

 ----------------------------------------------------------------------
 #t hf aug-cc-pvdz symm=none int=(grid=ultrafine) guess=(read,tcheck) s
 table=(opt,rrhf)
 ----------------------------------------------------------------------
 -----
 title
 -----
 Symbolic Z-matrix:
 Charge =  0 Multiplicity = 1

 SCF Done:  E(RHF) =  -474.719545845     A.U. after   12 cycles
 Normal termination of Gaussian 16 at Tue Apr  8 22:45:31 2025.
 Gaussian 16:  ES64L-G16RevC.01  3-Jul-2019

 ----------------------------------------------------------------------
 #t hf aug-cc-pvdz iop(5/13=1,5/36=2,99/5=2) pseudo=read geom=check gue
 ss=(read,tcheck) scf=(maxcycle=1)
 ----------------------------------------------------------------------
 -----
 title
 -----
 Structure from the checkpoint file:  "BDE49_expt_1511_mol1.chk"
 Charge =  0 Multiplicity = 1

                         Standard orientation:
 ---------------------------------------------------------------------
 Center     Atomic      Atomic             Coordinates (Angstroms)
 Number     Number       Type             X           Y           Z
 ---------------------------------------------------------------------
      1          6           0        1.156135    0.243060    0.000000
      2          6           0       -0.360768    0.190551    0.000000
      3          1           0        1.488898    0.768019    0.897575
      4          1           0        1.488898    0.768019   -0.897575
      5          9           0        1.664387   -1.038421    0.000000
      6          9           0       -0.841833   -0.437299   -1.085551
      7          9           0       -0.841833    1.453273    0.000000
      8          9           0       -0.841833   -0.437299    1.085551
 ---------------------------------------------------------------------

 SCF Done:  E(RHF) =  -476.420468797     A.U. after    2 cycles

 The electronic state is 1-A'.
 Alpha  occ. eigenvalues --  -29.32281 -29.31898 -29.31850 -29.29063 -11.61326
 Alpha  occ. eigenvalues --  -11.48138  -1.45655  -1.16284  -0.90987  -0.90670
 Alpha  occ. eigenvalues --   -0.77332  -0.69357  -0.66659  -0.49159  -0.44802
 Alpha  occ. eigenvalues --   -0.44590  -0.42150  -0.37307  -0.36933  -0.34011
 Alpha  occ. eigenvalues --   -0.28275  -0.27661  -0.26557  -0.24733  -0.22403
 Alpha virt. eigenvalues --    0.04387   0.05488   0.10243   0.10829   0.12131
 Alpha virt. eigenvalues --    0.12494   0.13207   0.16608   0.17629   0.21356
 Alpha virt. eigenvalues --    0.22442   0.22692   0.24778   0.25832   0.28087

 Mulliken charges:
               1
     1  C   -3.596302
     2  C   -0.654486
     3  H    1.235247
     4  H    1.235247
     5  F    0.408832
     6  F    0.491151
     7  F    0.389161
     8  F    0.491151
 Sum of Mulliken charges =  -0.00000

 Dipole moment (field-independent basis, Debye):
    X=             -0.5847    Y=             -1.2244    Z=              0.0000  Tot=              1.3569

 Test job not archived.
 1\1\GINC-SE221\SP\RHF\Aug-CC-pVDZ\C2H2F4\OHZDE\08-Apr-2025\0\\#t hf au
 g-cc-pvdz iop(5/13=1,5/36=2,99/5=2) pseudo=read geom=check guess=(read
 ,tcheck) scf=(maxcycle=1)\\title\\0,1\C,0,1.156135,0.24306,0.\C,0,-0.3
 60768,0.190551,0.\H,0,1.488898,0.768019,0.897575\H,0,1.488898,0.768019
 ,-0.897575\F,0,1.664387,-1.038421,0.\F,0,-0.841833,-0.437299,-1.085551
 \F,0,-0.841833,1.453273,0.\F,0,-0.841833,-0.437299,1.085551\\Version=E
 S64L-G16RevC.01\State=1-A'\HF=-476.4204688\RMSD=1.811e-01\Dipole=-0.23
 00472,-0.481721,0.\Quadrupole=0.2776297,-0.1752888,-0.1023409,-0.82481

 Normal termination of Gaussian 16 at Tue Apr  8 22:45:33 2025.
