 Gaussian 16, Revision C.01,

 ----------------------------------------------------------------------
 #t hf aug-cc-pvdz symm=none int=(grid=ultrafine) guess=(read,tcheck) s
 table=opt
 ----------------------------------------------------------------------
 -----
 title
 -----
 Symbolic Z-matrix:
 Charge =  0 Multiplicity = 2

 SCF Done:  E(UHF) =  -1203.27406298     A.U. after   21 cycles
 Normal termination of Gaussian 16 at Tue Apr  8 22:52:34 2025.
 Gaussian 16:  ES64L-G16RevC.01  3-Jul-2019

 ----------------------------------------------------------------------
 #t hf aug-cc-pvdz iop(5/13=1,5/36=2,99/5=2) pseudo=read geom=check gue
 ss=(read,tcheck) scf=(maxcycle=1)
 ----------------------------------------------------------------------
 -----
 title
 -----
 Structure from the checkpoint file:  "BDE49_expt_1724_mol2.chk"
 Charge =  0 Multiplicity = 2

                         Standard orientation:
 ---------------------------------------------------------------------
 Center     Atomic      Atomic             Coordinates (Angstroms)
 Number     Number       Type             X           Y           Z
 ---------------------------------------------------------------------
      1          6           0       -0.808709    0.033786    0.095123
      2          6           0        0.494529   -0.667967   -0.149775
      3         17           0       -1.114192    1.598139   -0.576039
      4         17           0       -2.183737   -0.922686    0.447744
      5          7           0        1.636391    0.032052    0.120749
      6          6           0        2.911103   -0.539642   -0.296027
      7          8           0        0.480389   -1.802404   -0.600107
      8          1           0        2.722583   -1.358569   -0.985250
      9          1           0        3.467187   -0.925472    0.566170
     10          1           0        3.516510    0.227686   -0.787537
     11          6           0        1.710867    1.211528    0.972126
     12          1           0        0.766356    1.377729    1.485120
     13          1           0        1.963664    2.109067    0.398145
     14          1           0        2.483904    1.055498    1.731303
 ---------------------------------------------------------------------

 SCF Done:  E(UHF) =  -1205.05620872     A.U. after    2 cycles

 The electronic state is 2-A.
 Alpha  occ. eigenvalues --  -99.92794 -99.91831 -21.04341 -15.76238 -11.53350
 Alpha  occ. eigenvalues --  -11.48681 -11.41916 -11.40382 -10.50204 -10.49255
 Alpha  occ. eigenvalues --   -9.69935  -9.69416  -9.69287  -9.69009  -9.68343
 Alpha  occ. eigenvalues --   -9.68251  -1.73125  -1.45764  -1.41390  -1.31444
 Alpha  occ. eigenvalues --   -1.08610  -1.05656  -0.96283  -0.78398  -0.71991
 Alpha  occ. eigenvalues --   -0.69613  -0.67190  -0.65384  -0.61525  -0.59028
 Alpha  occ. eigenvalues --   -0.57114  -0.55660  -0.53322  -0.52780  -0.51749
 Alpha  occ. eigenvalues --   -0.50070  -0.48952  -0.37684  -0.32044  -0.30619
 Alpha virt. eigenvalues --    0.03079   0.03688   0.05237   0.05507   0.05888
 Alpha virt. eigenvalues --    0.06312   0.07714   0.08157   0.08462   0.09562
 Alpha virt. eigenvalues --    0.12257   0.12875   0.13306   0.14192   0.14345

  Beta  occ. eigenvalues --  -99.92776 -99.91794 -21.03807 -15.76268 -11.52841
  Beta  occ. eigenvalues --  -11.46863 -11.41898 -11.40387 -10.50183 -10.49215
  Beta  occ. eigenvalues --   -9.70232  -9.69375  -9.69272  -9.68954  -9.68232
  Beta  occ. eigenvalues --   -9.67913  -1.72204  -1.44985  -1.40050  -1.31177
  Beta  occ. eigenvalues --   -1.07338  -1.04274  -0.93078  -0.77288  -0.71115
  Beta  occ. eigenvalues --   -0.68459  -0.65573  -0.63014  -0.59104  -0.58603
  Beta  occ. eigenvalues --   -0.57064  -0.54214  -0.52860  -0.52025  -0.51558
  Beta  occ. eigenvalues --   -0.49743  -0.47994  -0.31559  -0.29818
  Beta virt. eigenvalues --    0.02147   0.03488   0.05032   0.05265   0.05628
  Beta virt. eigenvalues --    0.05909   0.06528   0.07742   0.08507   0.08621
  Beta virt. eigenvalues --    0.09589   0.12473   0.12951   0.13496   0.14273

 Mulliken charges and spin densities:
               1          2
     1  C   -1.073790   1.452797
     2  C    4.963691  -0.491734
     3  Cl   0.113454  -0.044344
     4  Cl  -0.018105  -0.014781
     5  N   -2.668737  -0.009845
     6  C   -3.557581  -0.004845
     7  O   -2.955414   0.147663
     8  H    1.441187  -0.004132
     9  H    1.347648   0.001013
    10  H    1.459469   0.000333
    11  C   -3.458990   0.007778
    12  H    1.571339  -0.037465
    13  H    1.341460  -0.001132
    14  H    1.494369  -0.001306
 Sum of Mulliken charges =  -0.00000   1.00000

 Dipole moment (field-independent basis, Debye):
    X=              2.6995    Y=              1.0338    Z=              0.8045  Tot=              3.0006
                          Isotropic Fermi Contact Couplings
        Atom                 a.u.       MegaHertz       Gauss      10(-4) cm-1
     1  C(13)              0.20456     229.96633      82.05771      76.70851
     2  C(13)             -0.03136     -35.25804     -12.58094     -11.76081
     3  Cl(35)             0.03990      17.49501       6.24265       5.83571
     4  Cl(35)             0.04567      20.02347       7.14487       6.67911
     5  N(14)             -0.00972      -3.13905      -1.12009      -1.04707
     6  C(13)             -0.00100      -1.12941      -0.40300      -0.37673
     7  O(17)              0.03312     -20.07845      -7.16449      -6.69745
     8  H(1)               0.00008       0.36028       0.12856       0.12018

 1\1\GINC-SE338\SP\UHF\Aug-CC-pVDZ\C4H6Cl2N1O1(2)\OHZDE\08-Apr-2025\0\\
 #t hf aug-cc-pvdz iop(5/13=1,5/36=2,99/5=2) pseudo=read geom=check gue
 ss=(read,tcheck) scf=(maxcycle=1)\\title\\0,2\C,0,-0.808709,0.033786,0
 .095123\C,0,0.494529,-0.667967,-0.149775\Cl,0,-1.114192,1.598139,-0.57
 6039\Cl,0,-2.183737,-0.922686,0.447744\N,0,1.636391,0.032052,0.120749\
 C,0,2.911103,-0.539642,-0.296027\O,0,0.480389,-1.802404,-0.600107\H,0,
 2.722583,-1.358569,-0.98525\H,0,3.467187,-0.925472,0.56617\H,0,3.51651
 ,0.227686,-0.787537\C,0,1.710867,1.211528,0.972126\H,0,0.766356,1.3777

 Normal termination of Gaussian 16 at Tue Apr  8 22:52:40 2025.
