 Gaussian 16, Revision C.01,

 ----------------------------------------------------------------------
 #t hf aug-cc-pvdz symm=none int=(grid=ultrafine) guess=(read,tcheck) s
 table=(opt,rrhf)
 ----------------------------------------------------------------------
 -----
 title
 -----
 Symbolic Z-matrix:
 Charge =  0 Multiplicity = 1

 SCF Done:  E(RHF) =  -1058.32319862     A.U. after   12 cycles
 Normal termination of Gaussian 16 at Wed Apr  9 00:15:58 2025.
 Gaussian 16:  ES64L-G16RevC.01  3-Jul-2019

 ----------------------------------------------------------------------
 #t hf aug-cc-pvdz iop(5/13=1,5/36=2,99/5=2) pseudo=read geom=check gue
 ss=(read,tcheck) scf=(maxcycle=1)
 ----------------------------------------------------------------------
 -----
 title
 -----
 Structure from the checkpoint file:  "BDE49_nonexpt_251_mol1.chk"
 Charge =  0 Multiplicity = 1

                         Standard orientation:
 ---------------------------------------------------------------------
 Center     Atomic      Atomic             Coordinates (Angstroms)
 Number     Number       Type             X           Y           Z
 ---------------------------------------------------------------------
      1          5           0       -0.140089   -0.125726    0.000319
      2         17           0       -1.861616   -0.531541   -0.000111
      3         17           0        0.338467    1.589553   -0.000092
      4          8           0        0.746830   -1.117694    0.000174
      5          6           0        2.172051   -0.945010    0.000061
      6          1           0        2.605633   -1.943075   -0.000038
      7          1           0        2.490770   -0.401502    0.891028
      8          1           0        2.490628   -0.401389   -0.890888
 ---------------------------------------------------------------------

 SCF Done:  E(RHF) =  -1059.42055318     A.U. after    2 cycles

 The electronic state is 1-A.
 Alpha  occ. eigenvalues --  -99.89958 -99.89242 -21.06072 -11.43293 -10.47290
 Alpha  occ. eigenvalues --  -10.46528  -9.67250  -9.66781  -9.66524  -9.66474
 Alpha  occ. eigenvalues --   -9.66022  -9.65852  -7.73226  -1.81358  -1.36519
 Alpha  occ. eigenvalues --   -1.29601  -1.02739  -0.78360  -0.67949  -0.64851
 Alpha  occ. eigenvalues --   -0.64398  -0.57983  -0.57518  -0.52487  -0.51481
 Alpha  occ. eigenvalues --   -0.50366  -0.41896  -0.41320
 Alpha virt. eigenvalues --    0.02495   0.04407   0.04534   0.04857   0.06769
 Alpha virt. eigenvalues --    0.07747   0.08505   0.10335   0.11178   0.12865
 Alpha virt. eigenvalues --    0.14060   0.14471   0.15024   0.16507   0.17609

 Mulliken charges:
               1
     1  B    3.780490
     2  Cl  -1.207556
     3  Cl  -1.089671
     4  O   -3.179415
     5  C   -2.223767
     6  H    1.335568
     7  H    1.292179
     8  H    1.292173
 Sum of Mulliken charges =   0.00000

 Dipole moment (field-independent basis, Debye):
    X=              2.3518    Y=             -0.9331    Z=              0.0004  Tot=              2.5301

 Test job not archived.
 1\1\GINC-SE054\SP\RHF\Aug-CC-pVDZ\C1H3B1Cl2O1\OHZDE\09-Apr-2025\0\\#t
 hf aug-cc-pvdz iop(5/13=1,5/36=2,99/5=2) pseudo=read geom=check guess=
 (read,tcheck) scf=(maxcycle=1)\\title\\0,1\B,0,0.140089,-0.125726,-0.0
 00319\Cl,0,1.861616,-0.53154,0.000111\Cl,0,-0.338468,1.589553,0.000092
 \O,0,-0.74683,-1.117694,-0.000174\C,0,-2.172051,-0.945011,-0.000061\H,
 0,-2.605632,-1.943076,0.000038\H,0,-2.49077,-0.401503,-0.891028\H,0,-2
 .490628,-0.40139,0.890888\\Version=ES64L-G16RevC.01\State=1-A\HF=-1059
 .4205532\RMSD=5.214e-02\Dipole=-0.9252628,-0.367107,-0.0001709\Quadrup

 Normal termination of Gaussian 16 at Wed Apr  9 00:16:00 2025.
