 Gaussian 16, Revision C.01,

 ----------------------------------------------------------------------
 #t hf aug-cc-pvdz symm=none int=(grid=ultrafine) guess=(read,tcheck) s
 table=(opt,rrhf)
 ----------------------------------------------------------------------
 -----
 title
 -----
 Symbolic Z-matrix:
 Charge =  0 Multiplicity = 1

 SCF Done:  E(RHF) =  -551.604802303     A.U. after   13 cycles
 Normal termination of Gaussian 16 at Tue Apr  8 23:23:56 2025.
 Gaussian 16:  ES64L-G16RevC.01  3-Jul-2019

 ----------------------------------------------------------------------
 #t hf aug-cc-pvdz iop(5/13=1,5/36=2,99/5=2) pseudo=read geom=check gue
 ss=(read,tcheck) scf=(maxcycle=1)
 ----------------------------------------------------------------------
 -----
 title
 -----
 Structure from the checkpoint file:  "BDE49_nonexpt_1218_mol1.chk"
 Charge =  0 Multiplicity = 1

                         Standard orientation:
 ---------------------------------------------------------------------
 Center     Atomic      Atomic             Coordinates (Angstroms)
 Number     Number       Type             X           Y           Z
 ---------------------------------------------------------------------
      1         16           0       -1.654161    0.003914   -0.093551
      2          8           0       -0.062542   -0.509083    0.088118
      3          6           0        0.934438    0.525937   -0.036721
      4          6           0        2.288285   -0.156609    0.000549
      5          1           0        0.825527    1.236008    0.792580
      6          1           0        0.782897    1.071466   -0.974125
      7          1           0        2.416243   -0.707917    0.934448
      8          1           0        3.085074    0.588505   -0.074565
      9          1           0        2.388516   -0.857523   -0.830701
     10          1           0       -1.867679    0.463532    1.161261
 ---------------------------------------------------------------------

 SCF Done:  E(RHF) =  -552.553315545     A.U. after    2 cycles

 The electronic state is 1-A.
 Alpha  occ. eigenvalues --  -75.72996 -21.07004 -13.20612 -13.12612 -13.07237
 Alpha  occ. eigenvalues --  -11.43515 -11.36759  -8.06479  -1.75794  -1.14509
 Alpha  occ. eigenvalues --   -1.03271  -0.87527  -0.65506  -0.61377  -0.54693
 Alpha  occ. eigenvalues --   -0.53466  -0.50660  -0.47319  -0.39184  -0.33107
 Alpha  occ. eigenvalues --   -0.24088
 Alpha virt. eigenvalues --    0.03622   0.04343   0.05866   0.06005   0.06330
 Alpha virt. eigenvalues --    0.07183   0.09678   0.10088   0.12607   0.13360
 Alpha virt. eigenvalues --    0.15198   0.15412   0.16657   0.17081   0.18387

 Mulliken charges:
               1
     1  S   -0.213453
     2  O   -2.289819
     3  C   -1.490203
     4  C   -3.607421
     5  H    1.419303
     6  H    1.536940
     7  H    1.219521
     8  H    1.170116
     9  H    1.225968
    10  H    1.029048
 Sum of Mulliken charges =  -0.00000

 Dipole moment (field-independent basis, Debye):
    X=              0.4381    Y=              0.0579    Z=             -0.8249  Tot=              0.9358

 Test job not archived.
 1\1\GINC-SE044\SP\RHF\Aug-CC-pVDZ\C2H6O1S1\OHZDE\08-Apr-2025\0\\#t hf
 aug-cc-pvdz iop(5/13=1,5/36=2,99/5=2) pseudo=read geom=check guess=(re
 ad,tcheck) scf=(maxcycle=1)\\title\\0,1\S,0,-1.654161,0.003914,-0.0935
 51\O,0,-0.062542,-0.509083,0.088118\C,0,0.934438,0.525937,-0.036721\C,
 0,2.288285,-0.156609,0.000549\H,0,0.825527,1.236008,0.79258\H,0,0.7828
 97,1.071466,-0.974125\H,0,2.416243,-0.707917,0.934448\H,0,3.085074,0.5
 88505,-0.074565\H,0,2.388516,-0.857523,-0.830701\H,0,-1.867679,0.46353
 2,1.161261\\Version=ES64L-G16RevC.01\State=1-A\HF=-552.5533155\RMSD=1.

 Normal termination of Gaussian 16 at Tue Apr  8 23:23:58 2025.
