 Gaussian 16, Revision C.01,

 ----------------------------------------------------------------------
 #t hf aug-cc-pvdz symm=none int=(grid=ultrafine) guess=(read,tcheck) s
 table=(opt,rrhf)
 ----------------------------------------------------------------------
 -----
 title
 -----
 Symbolic Z-matrix:
 Charge =  0 Multiplicity = 1

 SCF Done:  E(RHF) =  -663.077747062     A.U. after   13 cycles
 Normal termination of Gaussian 16 at Tue Apr  8 23:38:36 2025.
 Gaussian 16:  ES64L-G16RevC.01  3-Jul-2019

 ----------------------------------------------------------------------
 #t hf aug-cc-pvdz iop(5/13=1,5/36=2,99/5=2) pseudo=read geom=check gue
 ss=(read,tcheck) scf=(maxcycle=1)
 ----------------------------------------------------------------------
 -----
 title
 -----
 Structure from the checkpoint file:  "BDE49_nonexpt_1542_mol1.chk"
 Charge =  0 Multiplicity = 1

                         Standard orientation:
 ---------------------------------------------------------------------
 Center     Atomic      Atomic             Coordinates (Angstroms)
 Number     Number       Type             X           Y           Z
 ---------------------------------------------------------------------
      1          6           0        0.933456    0.260726    0.457013
      2          7           0       -1.799779   -0.030654   -0.141654
      3          8           0       -1.555603   -1.006361   -1.140078
      4          8           0       -1.803087   -0.702151    1.124793
      5          6           0        2.041891    0.124715   -0.280971
      6          6           0        3.279334   -0.612484    0.131912
      7          1           0        2.073217    0.592998   -1.264734
      8          1           0        3.173822   -1.061320    1.121424
      9          1           0        4.141939    0.062829    0.147141
     10          1           0        3.517913   -1.404119   -0.586778
     11          1           0       -0.702000   -1.416334   -0.913878
     12          1           0       -2.733711   -0.933071    1.237874
     13         15           0       -0.499694    1.187186   -0.195437
     14          1           0        0.872902   -0.198173    1.440794
     15          1           0       -0.908787    1.794331    1.015841
 ---------------------------------------------------------------------

 SCF Done:  E(RHF) =  -664.711870118     A.U. after    2 cycles

 The electronic state is 1-A.
 Alpha  occ. eigenvalues -- -105.19813 -21.09757 -21.09441 -15.79330 -11.44775
 Alpha  occ. eigenvalues --  -11.40429 -11.37798  -2.77591  -1.85327  -1.67237
 Alpha  occ. eigenvalues --   -1.52297  -1.49186  -1.46551  -1.20593  -1.03159
 Alpha  occ. eigenvalues --   -0.97898  -0.79978  -0.72494  -0.66571  -0.59741
 Alpha  occ. eigenvalues --   -0.57989  -0.56599  -0.55424  -0.52092  -0.50634
 Alpha  occ. eigenvalues --   -0.45979  -0.37618  -0.34890  -0.31459  -0.25300
 Alpha  occ. eigenvalues --   -0.23077  -0.02045
 Alpha virt. eigenvalues --    0.03566   0.05443   0.05914   0.06025   0.06445
 Alpha virt. eigenvalues --    0.06809   0.07614   0.08023   0.09745   0.10059
 Alpha virt. eigenvalues --    0.11482   0.12274   0.13938   0.14554   0.15622

 Mulliken charges:
               1
     1  C   -1.520639
     2  N    2.180182
     3  O   -2.364166
     4  O   -2.405897
     5  C   -1.941731
     6  C   -4.666118
     7  H    1.478769
     8  H    1.047773
     9  H    1.204181
    10  H    1.223105
    11  H    0.805434
    12  H    0.874177
    13  P    3.559478
    14  H    1.303723
    15  H   -0.778273
 Sum of Mulliken charges =   0.00000

 Dipole moment (field-independent basis, Debye):
    X=              0.8234    Y=             -1.0073    Z=              0.1765  Tot=              1.3129

 Test job not archived.
 1\1\GINC-SE094\SP\RHF\Aug-CC-pVDZ\C3H8N1O2P1\OHZDE\08-Apr-2025\0\\#t h
 f aug-cc-pvdz iop(5/13=1,5/36=2,99/5=2) pseudo=read geom=check guess=(
 read,tcheck) scf=(maxcycle=1)\\title\\0,1\C,0,0.933456,0.260726,0.4570
 13\N,0,-1.799779,-0.030654,-0.141654\O,0,-1.555603,-1.006361,-1.140078
 \O,0,-1.803087,-0.702151,1.124793\C,0,2.041891,0.124715,-0.280971\C,0,
 3.279334,-0.612484,0.131912\H,0,2.073217,0.592998,-1.264734\H,0,3.1738
 22,-1.06132,1.121424\H,0,4.141939,0.062829,0.147141\H,0,3.517913,-1.40
 4119,-0.586778\H,0,-0.702,-1.416334,-0.913878\H,0,-2.733711,-0.933071,

 Normal termination of Gaussian 16 at Tue Apr  8 23:38:42 2025.
