 Gaussian 16, Revision C.01,

 ----------------------------------------------------------------------
 #t hf aug-cc-pvdz symm=none int=(grid=ultrafine) guess=(read,tcheck) s
 table=(opt,rrhf)
 ----------------------------------------------------------------------
 -----
 title
 -----
 Symbolic Z-matrix:
 Charge =  0 Multiplicity = 1

 SCF Done:  E(RHF) =  -831.757341569     A.U. after   16 cycles
 Normal termination of Gaussian 16 at Tue Apr  8 23:40:17 2025.
 Gaussian 16:  ES64L-G16RevC.01  3-Jul-2019

 ----------------------------------------------------------------------
 #t hf aug-cc-pvdz iop(5/13=1,5/36=2,99/5=2) pseudo=read geom=check gue
 ss=(read,tcheck) scf=(maxcycle=1)
 ----------------------------------------------------------------------
 -----
 title
 -----
 Structure from the checkpoint file:  "BDE49_nonexpt_1556_mol1.chk"
 Charge =  0 Multiplicity = 1

                         Standard orientation:
 ---------------------------------------------------------------------
 Center     Atomic      Atomic             Coordinates (Angstroms)
 Number     Number       Type             X           Y           Z
 ---------------------------------------------------------------------
      1          6           0       -1.782509    1.791617   -0.277850
      2          6           0       -0.492419    1.592970    0.212169
      3          6           0       -2.667778    0.729201   -0.407851
      4          6           0       -2.281045   -0.571128   -0.043863
      5          6           0       -0.986325   -0.764495    0.459865
      6          6           0       -0.090582    0.301758    0.589553
      7          1           0       -0.677343   -1.761633    0.758058
      8          1           0       -3.670356    0.901624   -0.786321
      9          1           0       -2.102831    2.787430   -0.564341
     10          1           0        0.188641    2.429160    0.311056
     11          7           0        2.576950   -0.179873   -0.260663
     12          8           0        2.264920   -1.455128   -0.844449
     13          8           0        2.312768    0.809828   -1.225692
     14          7           0       -3.180832   -1.629595   -0.117361
     15          1           0       -3.941136   -1.516104   -0.770700
     16          1           0       -2.771224   -2.550793   -0.157383
     17          1           0        3.112001   -1.729505   -1.216318
     18          1           0        1.357850    0.764125   -1.413899
     19         15           0        1.595380   -0.081914    1.225139
     20          1           0        1.983302    1.253545    1.477922
 ---------------------------------------------------------------------

 SCF Done:  E(RHF) =  -834.168469508     A.U. after    2 cycles

 The electronic state is 1-A.
 Alpha  occ. eigenvalues -- -105.20311 -21.09595 -21.09146 -15.79339 -15.76707
 Alpha  occ. eigenvalues --  -11.52646 -11.46066 -11.44359 -11.41972 -11.41429
 Alpha  occ. eigenvalues --  -11.37030  -2.77936  -1.85229  -1.67155  -1.53750
 Alpha  occ. eigenvalues --   -1.49959  -1.47997  -1.41426  -1.26600  -1.09522
 Alpha  occ. eigenvalues --   -1.06119  -1.01876  -0.87336  -0.85132  -0.74567
 Alpha  occ. eigenvalues --   -0.69963  -0.68221  -0.66213  -0.63664  -0.59146
 Alpha  occ. eigenvalues --   -0.55725  -0.55389  -0.54323  -0.51727  -0.51360
 Alpha  occ. eigenvalues --   -0.47034  -0.46042  -0.43779  -0.34905  -0.34258
 Alpha  occ. eigenvalues --   -0.31057  -0.28399  -0.26023  -0.22987  -0.01854
 Alpha virt. eigenvalues --    0.03406   0.04681   0.04906   0.06074   0.06586
 Alpha virt. eigenvalues --    0.06772   0.07797   0.08096   0.08953   0.09751
 Alpha virt. eigenvalues --    0.10165   0.11367   0.12034   0.12124   0.12875

 Mulliken charges:
               1
     1  C    0.204302
     2  C   -5.352210
     3  C   -2.498001
     4  C    2.812854
     5  C   -3.560058
     6  C    3.835067
     7  H    2.093902
     8  H    1.673499
     9  H    1.466706
    10  H    1.974403
    11  N    2.029615
    12  O   -2.567837
    13  O   -2.457897
    14  N   -4.019634
    15  H    0.647873
    16  H    0.639619
    17  H    0.944947
    18  H    1.017561
    19  P    2.482071
    20  H   -1.366781
 Sum of Mulliken charges =  -0.00000

 Dipole moment (field-independent basis, Debye):
    X=             -2.0726    Y=             -1.7835    Z=             -1.9054  Tot=              3.3327

 Test job not archived.
 1\1\GINC-SE364\SP\RHF\Aug-CC-pVDZ\C6H9N2O2P1\OHZDE\08-Apr-2025\0\\#t h
 f aug-cc-pvdz iop(5/13=1,5/36=2,99/5=2) pseudo=read geom=check guess=(
 read,tcheck) scf=(maxcycle=1)\\title\\0,1\C,0,-1.782509,1.791617,-0.27
 785\C,0,-0.492419,1.59297,0.212169\C,0,-2.667778,0.729201,-0.407851\C,
 0,-2.281045,-0.571128,-0.043863\C,0,-0.986325,-0.764495,0.459865\C,0,-
 0.090582,0.301758,0.589553\H,0,-0.677343,-1.761633,0.758058\H,0,-3.670
 356,0.901624,-0.786321\H,0,-2.102831,2.78743,-0.564341\H,0,0.188641,2.
 42916,0.311056\N,0,2.57695,-0.179873,-0.260663\O,0,2.26492,-1.455128,-

 Normal termination of Gaussian 16 at Tue Apr  8 23:40:30 2025.
