 Gaussian 16, Revision C.01,

 ----------------------------------------------------------------------
 #t hf aug-cc-pvdz symm=none int=(grid=ultrafine) guess=(read,tcheck) s
 table=opt
 ----------------------------------------------------------------------
 -----
 title
 -----
 Symbolic Z-matrix:
 Charge =  0 Multiplicity = 2

 SCF Done:  E(UHF) =  -272.647100242     A.U. after   18 cycles
 Normal termination of Gaussian 16 at Wed Apr  9 00:33:51 2025.
 Gaussian 16:  ES64L-G16RevC.01  3-Jul-2019

 ----------------------------------------------------------------------
 #t hf aug-cc-pvdz iop(5/13=1,5/36=2,99/5=2) pseudo=read geom=check gue
 ss=(read,tcheck) scf=(maxcycle=1)
 ----------------------------------------------------------------------
 -----
 title
 -----
 Structure from the checkpoint file:  "BDE49_nonexpt_425_mol2.chk"
 Charge =  0 Multiplicity = 2

                         Standard orientation:
 ---------------------------------------------------------------------
 Center     Atomic      Atomic             Coordinates (Angstroms)
 Number     Number       Type             X           Y           Z
 ---------------------------------------------------------------------
      1          9           0       -2.512927    0.209468    0.000077
      2          5           0       -1.235190   -0.038859   -0.000829
      3          7           0       -0.006277   -0.262836    0.000837
      4          7           0        1.229541   -0.674721   -0.000310
      5          6           0        2.167245    0.445634   -0.000043
      6          1           0        2.022269    1.077209   -0.886571
      7          1           0        3.180536    0.044871   -0.000818
      8          1           0        2.023170    1.076097    0.887413
 ---------------------------------------------------------------------

 SCF Done:  E(UHF) =  -273.738348949     A.U. after    2 cycles

 The electronic state is 2-A.
 Alpha  occ. eigenvalues --  -29.30114 -15.78370 -15.70211 -11.38545  -7.73661
 Alpha  occ. eigenvalues --   -1.51108  -1.17404  -0.97514  -0.95973  -0.68745
 Alpha  occ. eigenvalues --   -0.68043  -0.66875  -0.59655  -0.56097  -0.46772
 Alpha  occ. eigenvalues --   -0.45862  -0.44512  -0.25531  -0.23064
 Alpha virt. eigenvalues --    0.03160   0.03306   0.04259   0.05969   0.07071
 Alpha virt. eigenvalues --    0.07658   0.08472   0.09275   0.12236   0.13999
 Alpha virt. eigenvalues --    0.14109   0.15941   0.16007   0.16738   0.18011

  Beta  occ. eigenvalues --  -29.30023 -15.75351 -15.70876 -11.38833  -7.73239
  Beta  occ. eigenvalues --   -1.47112  -1.15144  -0.97333  -0.93564  -0.67578
  Beta  occ. eigenvalues --   -0.65346  -0.65090  -0.56795  -0.55854  -0.46416
  Beta  occ. eigenvalues --   -0.43745  -0.34192  -0.25485
  Beta virt. eigenvalues --    0.03178   0.03457   0.04349   0.05997   0.07078
  Beta virt. eigenvalues --    0.07504   0.09068   0.09498   0.11841   0.12308
  Beta virt. eigenvalues --    0.14398   0.15286   0.16108   0.16749   0.16887

 Mulliken charges and spin densities:
               1          2
     1  F   -0.064537   0.087195
     2  B    0.044162   0.199973
     3  N   -1.946040  -0.229062
     4  N    0.826480   1.039887
     5  C   -2.861813  -0.170213
     6  H    1.365998   0.033358
     7  H    1.269367   0.005433
     8  H    1.366382   0.033428
 Sum of Mulliken charges =   0.00000   1.00000

 Dipole moment (field-independent basis, Debye):
    X=             -4.3328    Y=              1.7723    Z=             -0.0016  Tot=              4.6813
                          Isotropic Fermi Contact Couplings
        Atom                 a.u.       MegaHertz       Gauss      10(-4) cm-1
     1  F(19)             -0.00179      -7.53241      -2.68775      -2.51254
     2  B(11)              0.01926      27.62674       9.85791       9.21529
     3  N(14)             -0.09405     -30.38730     -10.84294     -10.13611
     4  N(14)              0.22476      72.61987      25.91257      24.22338
     5  C(13)             -0.03069     -34.49690     -12.30935     -11.50693
     6  H(1)               0.01340      59.88923      21.36996      19.97690
     7  H(1)               0.00059       2.64099       0.94237       0.88094
     8  H(1)               0.01339      59.86891      21.36271      19.97012

 Normal termination of Gaussian 16 at Wed Apr  9 00:33:53 2025.
