 Gaussian 16, Revision C.01,

 ----------------------------------------------------------------------
 #t hf aug-cc-pvdz symm=none int=(grid=ultrafine) guess=(read,tcheck) s
 table=(opt,rrhf)
 ----------------------------------------------------------------------
 -----
 title
 -----
 Symbolic Z-matrix:
 Charge =  0 Multiplicity = 1

 SCF Done:  E(RHF) =  -536.493055861     A.U. after   12 cycles

 1\1\GINC-SE250\Stability\RHF\Aug-CC-pVDZ\C5H11P1\OHZDE\08-Apr-2025\0\\
 #t hf aug-cc-pvdz symm=none int=(grid=ultrafine) guess=(read,tcheck) s
 table=(opt,rrhf)\\title\\0,1\P,0,-1.87765,-0.108821,-0.333595\C,0,-0.3
 7392,0.007864,0.793754\C,0,0.564014,1.21228,0.571143\C,0,0.575205,-1.1
 95439,0.593985\C,0,1.508884,-0.77888,-0.565848\H,0,0.052063,-2.13565,0
 .402234\H,0,1.158606,-1.334771,1.51057\C,0,1.530887,0.777693,-0.557442
 \H,0,1.122266,-1.148942,-1.51877\H,0,2.506596,-1.20686,-0.447434\H,0,2
 .535128,1.171543,-0.387002\H,0,1.201857,1.170012,-1.522271\H,0,1.12893

 Normal termination of Gaussian 16 at Tue Apr  8 23:28:30 2025.
 Gaussian 16:  ES64L-G16RevC.01  3-Jul-2019

 ----------------------------------------------------------------------
 #t hf aug-cc-pvdz iop(5/13=1,5/36=2,99/5=2) pseudo=read geom=check gue
 ss=(read,tcheck) scf=(maxcycle=1)
 ----------------------------------------------------------------------
 -----
 title
 -----
 Structure from the checkpoint file:  "BDE49_nonexpt_1297_mol1.chk"
 Charge =  0 Multiplicity = 1

                         Standard orientation:
 ---------------------------------------------------------------------
 Center     Atomic      Atomic             Coordinates (Angstroms)
 Number     Number       Type             X           Y           Z
 ---------------------------------------------------------------------
      1         15           0       -1.877650   -0.108821   -0.333595
      2          6           0       -0.373920    0.007864    0.793754
      3          6           0        0.564014    1.212280    0.571143
      4          6           0        0.575205   -1.195439    0.593985
      5          6           0        1.508884   -0.778880   -0.565848
      6          1           0        0.052063   -2.135650    0.402234
      7          1           0        1.158606   -1.334771    1.510570
      8          6           0        1.530887    0.777693   -0.557442
      9          1           0        1.122266   -1.148942   -1.518770
     10          1           0        2.506596   -1.206860   -0.447434
     11          1           0        2.535128    1.171543   -0.387002
     12          1           0        1.201857    1.170012   -1.522271
     13          1           0        1.128936    1.386931    1.494520
     14          1           0        0.032270    2.137771    0.341678
     15          1           0       -0.794556    0.009314    1.804054
     16          1           0       -1.247496    0.231140   -1.560242
     17          1           0       -2.361339    1.210718   -0.126962
 ---------------------------------------------------------------------

 SCF Done:  E(RHF) =  -537.700749667     A.U. after    2 cycles

 The electronic state is 1-A.
 Alpha  occ. eigenvalues -- -105.17021 -11.46079 -11.42866 -11.37643 -11.37254
 Alpha  occ. eigenvalues --  -11.33996  -2.73793  -1.47250  -1.43342  -1.42689
 Alpha  occ. eigenvalues --   -1.29847  -1.04096  -1.02679  -0.81581  -0.81345
 Alpha  occ. eigenvalues --   -0.70582  -0.66863  -0.63393  -0.58203  -0.52609
 Alpha  occ. eigenvalues --   -0.46528  -0.46361  -0.43948  -0.43642  -0.43509
 Alpha  occ. eigenvalues --   -0.25283  -0.19973  -0.02003
 Alpha virt. eigenvalues --    0.04222   0.05574   0.05615   0.05746   0.05879
 Alpha virt. eigenvalues --    0.06122   0.06600   0.06803   0.07658   0.08924
 Alpha virt. eigenvalues --    0.10322   0.11363   0.12333   0.13584   0.13952

 Mulliken charges:
               1
     1  P    2.422588
     2  C    0.302093
     3  C   -3.203346
     4  C   -3.737277
     5  C   -2.651773
     6  H    1.245424
     7  H    1.256731
     8  C   -3.113275
     9  H    1.442564
    10  H    1.291364
    11  H    1.323193
    12  H    1.317311
    13  H    1.234730
    14  H    1.428094
    15  H    1.372779
    16  H   -1.181618
    17  H   -0.749579
 Sum of Mulliken charges =  -0.00000

 Dipole moment (field-independent basis, Debye):
    X=             -0.2250    Y=             -1.5542    Z=              1.2178  Tot=              1.9873

 Test job not archived.
 1\1\GINC-SE250\SP\RHF\Aug-CC-pVDZ\C5H11P1\OHZDE\08-Apr-2025\0\\#t hf a
 ug-cc-pvdz iop(5/13=1,5/36=2,99/5=2) pseudo=read geom=check guess=(rea
 d,tcheck) scf=(maxcycle=1)\\title\\0,1\P,0,-1.87765,-0.108821,-0.33359
 5\C,0,-0.37392,0.007864,0.793754\C,0,0.564014,1.21228,0.571143\C,0,0.5
 75205,-1.195439,0.593985\C,0,1.508884,-0.77888,-0.565848\H,0,0.052063,
 -2.13565,0.402234\H,0,1.158606,-1.334771,1.51057\C,0,1.530887,0.777693
 ,-0.557442\H,0,1.122266,-1.148942,-1.51877\H,0,2.506596,-1.20686,-0.44
 7434\H,0,2.535128,1.171543,-0.387002\H,0,1.201857,1.170012,-1.522271\H

 Normal termination of Gaussian 16 at Tue Apr  8 23:28:36 2025.
