 Gaussian 16, Revision C.01,

 ----------------------------------------------------------------------
 #t hf aug-cc-pvdz symm=none int=(grid=ultrafine) guess=(read,tcheck) s
 table=(opt,rrhf)
 ----------------------------------------------------------------------
 -----
 title
 -----
 Symbolic Z-matrix:
 Charge =  0 Multiplicity = 1

 SCF Done:  E(RHF) =  -977.079952083     A.U. after   10 cycles

 1\1\GINC-SE339\Stability\RHF\Aug-CC-pVDZ\F4H2Si2\OHZDE\09-Apr-2025\0\\
 #t hf aug-cc-pvdz symm=none int=(grid=ultrafine) guess=(read,tcheck) s
 table=(opt,rrhf)\\title\\0,1\Si,0,0.320995,1.137475,0.\Si,0,-0.320995,
 -1.137475,0.\F,0,0.320995,-1.835398,1.290677\F,0,-0.320995,1.835398,1.
 290677\F,0,0.320999,-1.835397,-1.290677\H,0,-1.767223,-1.412109,-0.000
 002\F,0,-0.320999,1.835397,-1.290677\H,0,1.767223,1.412109,-0.000002\\
 Version=ES64L-G16RevC.01\HF=-977.0799521\RMSD=3.747e-09\Dipole=0.,0.,0
 .0000035\Quadrupole=4.0154942,-2.1563039,-1.8591903,3.1458247,0.,0.\PG

 Normal termination of Gaussian 16 at Wed Apr  9 00:09:01 2025.
 Gaussian 16:  ES64L-G16RevC.01  3-Jul-2019

 ----------------------------------------------------------------------
 #t hf aug-cc-pvdz iop(5/13=1,5/36=2,99/5=2) pseudo=read geom=check gue
 ss=(read,tcheck) scf=(maxcycle=1)
 ----------------------------------------------------------------------
 -----
 title
 -----
 Structure from the checkpoint file:  "BDE49_nonexpt_2306_mol1.chk"
 Charge =  0 Multiplicity = 1

                         Standard orientation:
 ---------------------------------------------------------------------
 Center     Atomic      Atomic             Coordinates (Angstroms)
 Number     Number       Type             X           Y           Z
 ---------------------------------------------------------------------
      1         14           0        0.320995    1.137475    0.000000
      2         14           0       -0.320995   -1.137475    0.000000
      3          9           0        0.320995   -1.835398    1.290677
      4          9           0       -0.320995    1.835398    1.290677
      5          9           0        0.320999   -1.835397   -1.290677
      6          1           0       -1.767223   -1.412109   -0.000002
      7          9           0       -0.320999    1.835397   -1.290677
      8          1           0        1.767223    1.412109   -0.000002
 ---------------------------------------------------------------------

 SCF Done:  E(RHF) =  -978.735706575     A.U. after    2 cycles

 The electronic state is 1-A.
 Alpha  occ. eigenvalues --  -76.30798 -76.30795 -29.29577 -29.29577 -29.29576
 Alpha  occ. eigenvalues --  -29.29576  -5.66097  -5.66092  -2.31329  -2.30827
 Alpha  occ. eigenvalues --   -2.28727  -2.28115  -2.25571  -2.24849  -0.98963
 Alpha  occ. eigenvalues --   -0.93044  -0.71791  -0.70567  -0.60131  -0.59026
 Alpha  occ. eigenvalues --   -0.53051  -0.42864  -0.42026  -0.40845  -0.38260
 Alpha  occ. eigenvalues --   -0.36583  -0.35952  -0.35890  -0.35258  -0.34876
 Alpha  occ. eigenvalues --   -0.30533  -0.29801  -0.25199
 Alpha virt. eigenvalues --    0.04870   0.05867   0.06736   0.07775   0.08197
 Alpha virt. eigenvalues --    0.08203   0.08499   0.08934   0.11069   0.17483
 Alpha virt. eigenvalues --    0.18025   0.18570   0.19520   0.21701   0.23469

 Mulliken charges:
               1
     1  Si   3.636372
     2  Si   3.636372
     3  F   -0.827048
     4  F   -0.827048
     5  F   -0.827045
     6  H   -1.982279
     7  F   -0.827045
     8  H   -1.982279
 Sum of Mulliken charges =  -0.00000

 Dipole moment (field-independent basis, Debye):
    X=             -0.0000    Y=              0.0000    Z=              0.0000  Tot=              0.0000

 Test job not archived.
 1\1\GINC-SE339\SP\RHF\Aug-CC-pVDZ\F4H2Si2\OHZDE\09-Apr-2025\0\\#t hf a
 ug-cc-pvdz iop(5/13=1,5/36=2,99/5=2) pseudo=read geom=check guess=(rea
 d,tcheck) scf=(maxcycle=1)\\title\\0,1\Si,0,0.320995,1.137475,0.\Si,0,
 -0.320995,-1.137475,0.\F,0,0.320995,-1.835398,1.290677\F,0,-0.320995,1
 .835398,1.290677\F,0,0.320999,-1.835397,-1.290677\H,0,-1.767223,-1.412
 109,-0.000002\F,0,-0.320999,1.835397,-1.290677\H,0,1.767223,1.412109,-
 0.000002\\Version=ES64L-G16RevC.01\State=1-A\HF=-978.7357066\RMSD=7.03
 9e-02\Dipole=0.,0.,0.0000039\Quadrupole=-4.8662697,2.7540826,2.1121871

 Normal termination of Gaussian 16 at Wed Apr  9 00:09:04 2025.
