 Gaussian 16, Revision C.01,

 ----------------------------------------------------------------------
 #t hf aug-cc-pvdz symm=none int=(grid=ultrafine) guess=(read,tcheck) s
 table=(opt,rrhf)
 ----------------------------------------------------------------------
 -----
 title
 -----
 Symbolic Z-matrix:
 Charge =  0 Multiplicity = 1

 SCF Done:  E(RHF) =  -1049.77744470     A.U. after   16 cycles
 Normal termination of Gaussian 16 at Tue Apr  8 23:45:28 2025.
 Gaussian 16:  ES64L-G16RevC.01  3-Jul-2019

 ----------------------------------------------------------------------
 #t hf aug-cc-pvdz iop(5/13=1,5/36=2,99/5=2) pseudo=read geom=check gue
 ss=(read,tcheck) scf=(maxcycle=1)
 ----------------------------------------------------------------------
 -----
 title
 -----
 Structure from the checkpoint file:  "BDE49_nonexpt_1696_mol1.chk"
 Charge =  0 Multiplicity = 1

                         Standard orientation:
 ---------------------------------------------------------------------
 Center     Atomic      Atomic             Coordinates (Angstroms)
 Number     Number       Type             X           Y           Z
 ---------------------------------------------------------------------
      1          6           0        2.213604   -1.132004    0.085723
      2         14           0        2.081741    0.773011    0.407209
      3          8           0        3.296633   -1.644307    0.186987
      4          8           0        1.125190   -1.883515   -0.210606
      5         15           0        0.345258    1.904161   -0.554755
      6          6           0       -1.033141    0.716028   -0.226075
      7          1           0        0.327800   -1.334100   -0.251751
      8          6           0       -1.652130    0.731570    1.034319
      9          6           0       -1.534338   -0.155664   -1.206688
     10          6           0       -2.617571   -0.989779   -0.929092
     11          6           0       -3.212411   -0.973428    0.329654
     12          6           0       -2.724990   -0.110555    1.310253
     13          1           0       -3.185677   -0.087278    2.291296
     14          1           0       -1.297708    1.412148    1.801523
     15          1           0       -1.083887   -0.177898   -2.192877
     16          1           0       -2.991696   -1.653892   -1.699953
     17          1           0       -4.050917   -1.625230    0.544737
     18          1           0        0.645192    1.478652   -1.873303
     19          1           0        3.344578    1.368844   -0.072201
     20          1           0        1.960336    0.939744    1.873312
 ---------------------------------------------------------------------

 SCF Done:  E(RHF) =  -1052.01057294     A.U. after    2 cycles

 The electronic state is 1-A.
 Alpha  occ. eigenvalues -- -105.19694 -76.24927 -21.11771 -21.05617 -11.53873
 Alpha  occ. eigenvalues --  -11.48628 -11.45877 -11.45541 -11.43296 -11.42924
 Alpha  occ. eigenvalues --  -11.38681  -5.58464  -2.77016  -2.21771  -2.20645
 Alpha  occ. eigenvalues --   -2.20330  -1.81114  -1.65044  -1.52722  -1.47565
 Alpha  occ. eigenvalues --   -1.44520  -1.34864  -1.11534  -1.10110  -0.88639
 Alpha  occ. eigenvalues --   -0.87927  -0.85626  -0.77655  -0.73957  -0.69841
 Alpha  occ. eigenvalues --   -0.64802  -0.61926  -0.60489  -0.58899  -0.55156
 Alpha  occ. eigenvalues --   -0.53455  -0.53017  -0.51353  -0.48931  -0.47037
 Alpha  occ. eigenvalues --   -0.44479  -0.36616  -0.35672  -0.33312  -0.29263
 Alpha  occ. eigenvalues --   -0.27132  -0.16817  -0.04695
 Alpha virt. eigenvalues --    0.02900   0.04458   0.04546   0.05525   0.05969
 Alpha virt. eigenvalues --    0.06394   0.06849   0.07255   0.07881   0.08347
 Alpha virt. eigenvalues --    0.08838   0.09063   0.09693   0.09967   0.10962

 Mulliken charges:
               1
     1  C    2.976619
     2  Si   5.116254
     3  O   -2.628100
     4  O   -3.125024
     5  P    0.930024
     6  C    3.312514
     7  H    1.826731
     8  C   -4.322730
     9  C   -3.997149
    10  C   -0.487072
    11  C   -2.166482
    12  C   -0.851999
    13  H    1.565563
    14  H    1.977999
    15  H    2.033555
    16  H    1.536948
    17  H    1.508213
    18  H   -1.507565
    19  H   -1.911066
    20  H   -1.787233
 Sum of Mulliken charges =   0.00000

 Dipole moment (field-independent basis, Debye):
    X=             -5.8630    Y=              5.4763    Z=             -0.4939  Tot=              8.0380

 Test job not archived.
 1\1\GINC-SE339\SP\RHF\Aug-CC-pVDZ\C7H9O2P1Si1\OHZDE\08-Apr-2025\0\\#t
 hf aug-cc-pvdz iop(5/13=1,5/36=2,99/5=2) pseudo=read geom=check guess=
 (read,tcheck) scf=(maxcycle=1)\\title\\0,1\C,0,2.213604,-1.132004,0.08
 5723\Si,0,2.081741,0.773011,0.407209\O,0,3.296633,-1.644307,0.186987\O
 ,0,1.12519,-1.883515,-0.210606\P,0,0.345258,1.904161,-0.554755\C,0,-1.
 033141,0.716028,-0.226075\H,0,0.3278,-1.3341,-0.251751\C,0,-1.65213,0.
 73157,1.034319\C,0,-1.534338,-0.155664,-1.206688\C,0,-2.617571,-0.9897
 79,-0.929092\C,0,-3.212411,-0.973428,0.329654\C,0,-2.72499,-0.110555,1

 Normal termination of Gaussian 16 at Tue Apr  8 23:45:41 2025.
