 Gaussian 16, Revision C.01,

 ----------------------------------------------------------------------
 #t hf aug-cc-pvdz symm=none int=(grid=ultrafine) guess=(read,tcheck) s
 table=opt
 ----------------------------------------------------------------------
 -----
 title
 -----
 Symbolic Z-matrix:
 Charge =  0 Multiplicity = 2

 SCF Done:  E(UHF) =  -820.920800758     A.U. after   15 cycles
 Normal termination of Gaussian 16 at Wed Apr  9 00:49:56 2025.
 Gaussian 16:  ES64L-G16RevC.01  3-Jul-2019

 ----------------------------------------------------------------------
 #t hf aug-cc-pvdz iop(5/13=1,5/36=2,99/5=2) pseudo=read geom=check gue
 ss=(read,tcheck) scf=(maxcycle=1)
 ----------------------------------------------------------------------
 -----
 title
 -----
 Structure from the checkpoint file:  "BDE49_nonexpt_889_mol3.chk"
 Charge =  0 Multiplicity = 2

                         Standard orientation:
 ---------------------------------------------------------------------
 Center     Atomic      Atomic             Coordinates (Angstroms)
 Number     Number       Type             X           Y           Z
 ---------------------------------------------------------------------
      1          5           0        0.001414   -0.619037   -0.000001
      2         16           0        1.594875    0.166067   -0.000003
      3         16           0       -1.652380    0.002674    0.000002
      4          1           0       -1.438204    1.343775    0.000004
      5          1           0        2.351206   -0.948444    0.000003
 ---------------------------------------------------------------------

 SCF Done:  E(UHF) =  -821.457164767     A.U. after    2 cycles

 The electronic state is 2-A.
 Alpha  occ. eigenvalues --  -75.70800 -75.70665 -13.16932 -13.15490 -13.10320
 Alpha  occ. eigenvalues --  -13.09578 -13.04244 -13.03863  -8.04741  -8.04591
 Alpha  occ. eigenvalues --   -7.67571  -1.20977  -1.11484  -0.68071  -0.56124
 Alpha  occ. eigenvalues --   -0.47876  -0.37054  -0.35976  -0.29343  -0.25781
 Alpha virt. eigenvalues --    0.02169   0.02575   0.03348   0.04141   0.09628
 Alpha virt. eigenvalues --    0.09997   0.10053   0.12036   0.13456   0.14515
 Alpha virt. eigenvalues --    0.15857   0.16513   0.16966   0.17803   0.20679

  Beta  occ. eigenvalues --  -75.70820 -75.70707 -13.17068 -13.15640 -13.10379
  Beta  occ. eigenvalues --  -13.09481 -13.04383 -13.04013  -8.04767  -8.04604
  Beta  occ. eigenvalues --   -7.65602  -1.19526  -1.11309  -0.62446  -0.53467
  Beta  occ. eigenvalues --   -0.44259  -0.35316  -0.34905  -0.26138
  Beta virt. eigenvalues --    0.00942   0.02423   0.03086   0.04204   0.06865
  Beta virt. eigenvalues --    0.09698   0.11224   0.11863   0.12374   0.13860
  Beta virt. eigenvalues --    0.14883   0.15933   0.16522   0.17851   0.18230

 Mulliken charges and spin densities:
               1          2
     1  B    1.638986   1.098309
     2  S   -2.022018  -0.033411
     3  S   -1.780027  -0.165075
     4  H    0.973527   0.073811
     5  H    1.189533   0.026364
 Sum of Mulliken charges =  -0.00000   1.00000

 Dipole moment (field-independent basis, Debye):
    X=             -0.6199    Y=              1.4804    Z=             -0.0000  Tot=              1.6050
                          Isotropic Fermi Contact Couplings
        Atom                 a.u.       MegaHertz       Gauss      10(-4) cm-1
     1  B(11)              0.15247     218.69274      78.03501      72.94805
     2  S(33)             -0.06927     -23.79184      -8.48952      -7.93610
     3  S(33)              0.35290     121.21170      43.25135      40.43187
     4  H(1)               0.02339     104.54581      37.30455      34.87273
     5  H(1)               0.01526      68.22073      24.34285      22.75599
 --------------------------------------------------------
       Center         ----  Spin Dipole Couplings  ----
                      3XX-RR        3YY-RR        3ZZ-RR

 Normal termination of Gaussian 16 at Wed Apr  9 00:49:58 2025.
