 Gaussian 16, Revision C.01,

 ----------------------------------------------------------------------
 #t hf aug-cc-pvdz symm=none int=(grid=ultrafine) guess=(read,tcheck) s
 table=opt
 ----------------------------------------------------------------------
 -----
 title
 -----
 Symbolic Z-matrix:
 Charge =  0 Multiplicity = 2

 SCF Done:  E(UHF) =  -154.496688391     A.U. after   19 cycles
 Normal termination of Gaussian 16 at Wed Apr  9 00:35:47 2025.
 Gaussian 16:  ES64L-G16RevC.01  3-Jul-2019

 ----------------------------------------------------------------------
 #t hf aug-cc-pvdz iop(5/13=1,5/36=2,99/5=2) pseudo=read geom=check gue
 ss=(read,tcheck) scf=(maxcycle=1)
 ----------------------------------------------------------------------
 -----
 title
 -----
 Structure from the checkpoint file:  "BDE49_nonexpt_493_mol2.chk"
 Charge =  0 Multiplicity = 2

                         Standard orientation:
 ---------------------------------------------------------------------
 Center     Atomic      Atomic             Coordinates (Angstroms)
 Number     Number       Type             X           Y           Z
 ---------------------------------------------------------------------
      1          1           0        0.000000    0.000000   -2.475796
      2          5           0        0.000000    0.000000   -1.313258
      3          7           0        0.000000    0.000000   -0.048566
      4          8           0        0.000000    0.000000    1.172756
 ---------------------------------------------------------------------

 SCF Done:  E(UHF) =  -155.139443321     A.U. after    2 cycles

 Unable to determine electronic state:  an orbital has unidentified symmetry.
 Alpha  occ. eigenvalues --  -21.15953 -15.76990  -7.70035  -1.86633  -1.18234
 Alpha  occ. eigenvalues --   -0.73074  -0.65619  -0.62390  -0.59191  -0.34714
 Alpha  occ. eigenvalues --   -0.30279
 Alpha virt. eigenvalues --    0.03426   0.03462   0.03630   0.05617   0.09997
 Alpha virt. eigenvalues --    0.15230   0.16137   0.17228   0.19047   0.20580
 Alpha virt. eigenvalues --    0.21284   0.23300   0.24267   0.24308   0.25041

  Beta  occ. eigenvalues --  -21.12722 -15.77334  -7.69541  -1.79964  -1.14059
  Beta  occ. eigenvalues --   -0.72638  -0.63335  -0.59195  -0.53464  -0.28101
  Beta virt. eigenvalues --    0.03224   0.03505   0.03604   0.05663   0.08289
  Beta virt. eigenvalues --    0.10122   0.16176   0.17790   0.18042   0.19383
  Beta virt. eigenvalues --    0.21543   0.23488   0.23693   0.24725   0.24739

 Mulliken charges and spin densities:
               1          2
     1  H   -2.226215  -0.011789
     2  B    3.092477   0.252313
     3  N    0.986895  -0.131544
     4  O   -1.853158   0.891020
 Sum of Mulliken charges =  -0.00000   1.00000

 Dipole moment (field-independent basis, Debye):
    X=             -0.0000    Y=              0.0000    Z=             -1.5391  Tot=              1.5391
                          Isotropic Fermi Contact Couplings
        Atom                 a.u.       MegaHertz       Gauss      10(-4) cm-1
     1  H(1)              -0.00740     -33.08278     -11.80476     -11.03523
     2  B(11)              0.02968      42.56742      15.18912      14.19896
     3  N(14)             -0.06445     -20.82487      -7.43083      -6.94643
     4  O(17)              0.17952    -108.82625     -38.83191     -36.30053
 --------------------------------------------------------
       Center         ----  Spin Dipole Couplings  ----
                      3XX-RR        3YY-RR        3ZZ-RR
 --------------------------------------------------------

 Normal termination of Gaussian 16 at Wed Apr  9 00:35:50 2025.
