 Gaussian 16, Revision C.01,

 ----------------------------------------------------------------------
 #t hf aug-cc-pvdz symm=none int=(grid=ultrafine) guess=(read,tcheck) s
 table=(opt,rrhf)
 ----------------------------------------------------------------------
 -----
 title
 -----
 Symbolic Z-matrix:
 Charge =  0 Multiplicity = 1

 SCF Done:  E(RHF) =  -684.308139931     A.U. after   13 cycles
 Normal termination of Gaussian 16 at Tue Apr  8 23:27:35 2025.
 Gaussian 16:  ES64L-G16RevC.01  3-Jul-2019

 ----------------------------------------------------------------------
 #t hf aug-cc-pvdz iop(5/13=1,5/36=2,99/5=2) pseudo=read geom=check gue
 ss=(read,tcheck) scf=(maxcycle=1)
 ----------------------------------------------------------------------
 -----
 title
 -----
 Structure from the checkpoint file:  "BDE49_nonexpt_1276_mol1.chk"
 Charge =  0 Multiplicity = 1

                         Standard orientation:
 ---------------------------------------------------------------------
 Center     Atomic      Atomic             Coordinates (Angstroms)
 Number     Number       Type             X           Y           Z
 ---------------------------------------------------------------------
      1          6           0        1.088700   -0.000002   -0.430333
      2         15           0       -0.644847   -0.000016    0.096880
      3          8           0       -0.956878    0.000007    1.536740
      4          8           0       -1.240941   -1.276635   -0.690294
      5          6           0        1.794232   -1.276895    0.055005
      6          1           0        1.305297   -2.173135   -0.330072
      7          1           0        1.795770   -1.328773    1.146700
      8          6           0        1.794178    1.276953    0.054922
      9          1           0        1.055531   -0.000037   -1.526086
     10          1           0        1.795719    1.328902    1.146614
     11          1           0        1.305205    2.173148   -0.330213
     12          1           0        2.832788    1.280115   -0.286240
     13          1           0        2.832844   -1.280034   -0.286153
     14          8           0       -1.241056    1.276568   -0.690283
     15          1           0       -1.900919    1.736023   -0.157171
     16          1           0       -1.901185   -1.735841   -0.157438
 ---------------------------------------------------------------------

 SCF Done:  E(RHF) =  -686.061809368     A.U. after    2 cycles

 The electronic state is 1-A.
 Alpha  occ. eigenvalues -- -105.28925 -21.10735 -21.10677 -21.01494 -11.42579
 Alpha  occ. eigenvalues --  -11.39368 -11.36537  -2.91546  -1.95460  -1.89565
 Alpha  occ. eigenvalues --   -1.80223  -1.54186  -1.39305  -1.26207  -1.18558
 Alpha  occ. eigenvalues --   -1.01466  -0.83583  -0.69676  -0.63820  -0.60203
 Alpha  occ. eigenvalues --   -0.58866  -0.56554  -0.54560  -0.52423  -0.48357
 Alpha  occ. eigenvalues --   -0.46982  -0.45258  -0.38708  -0.34245  -0.33280
 Alpha  occ. eigenvalues --   -0.29178  -0.23760  -0.14306
 Alpha virt. eigenvalues --    0.03674   0.05601   0.05622   0.05955   0.06270
 Alpha virt. eigenvalues --    0.06629   0.07106   0.07338   0.08237   0.10847
 Alpha virt. eigenvalues --    0.11969   0.13456   0.13798   0.14680   0.14793

 Mulliken charges:
               1
     1  C   -5.037980
     2  P   10.316224
     3  O   -2.884951
     4  O   -2.912310
     5  C   -3.563470
     6  H    1.214729
     7  H    1.273090
     8  C   -3.563310
     9  H    1.599114
    10  H    1.273106
    11  H    1.214710
    12  H    1.197981
    13  H    1.197993
    14  O   -2.912305
    15  H    0.793623
    16  H    0.793756
 Sum of Mulliken charges =   0.00000

 Dipole moment (field-independent basis, Debye):
    X=              0.2750    Y=              0.0000    Z=             -2.6982  Tot=              2.7122

 Test job not archived.
 1\1\GINC-SE250\SP\RHF\Aug-CC-pVDZ\C3H9O3P1\OHZDE\08-Apr-2025\0\\#t hf
 aug-cc-pvdz iop(5/13=1,5/36=2,99/5=2) pseudo=read geom=check guess=(re
 ad,tcheck) scf=(maxcycle=1)\\title\\0,1\C,0,1.0887,-0.000002,-0.430333
 \P,0,-0.644847,-0.000016,0.09688\O,0,-0.956878,0.000007,1.53674\O,0,-1
 .240941,-1.276635,-0.690294\C,0,1.794232,-1.276895,0.055005\H,0,1.3052
 97,-2.173135,-0.330072\H,0,1.79577,-1.328773,1.1467\C,0,1.794178,1.276
 953,0.054922\H,0,1.055531,-0.000037,-1.526086\H,0,1.795719,1.328902,1.
 146614\H,0,1.305205,2.173148,-0.330213\H,0,2.832788,1.280115,-0.28624\

 Normal termination of Gaussian 16 at Tue Apr  8 23:27:41 2025.
