 Gaussian 16, Revision C.01,

 ----------------------------------------------------------------------
 #t hf aug-cc-pvdz symm=none int=(grid=ultrafine) guess=(read,tcheck) s
 table=opt
 ----------------------------------------------------------------------
 -----
 title
 -----
 Symbolic Z-matrix:
 Charge =  0 Multiplicity = 2

 SCF Done:  E(UHF) =  -517.311760057     A.U. after   20 cycles
 Normal termination of Gaussian 16 at Tue Apr  8 23:45:24 2025.
 Gaussian 16:  ES64L-G16RevC.01  3-Jul-2019

 ----------------------------------------------------------------------
 #t hf aug-cc-pvdz iop(5/13=1,5/36=2,99/5=2) pseudo=read geom=check gue
 ss=(read,tcheck) scf=(maxcycle=1)
 ----------------------------------------------------------------------
 -----
 title
 -----
 Structure from the checkpoint file:  "BDE49_nonexpt_1746_mol2.chk"
 Charge =  0 Multiplicity = 2

                         Standard orientation:
 ---------------------------------------------------------------------
 Center     Atomic      Atomic             Coordinates (Angstroms)
 Number     Number       Type             X           Y           Z
 ---------------------------------------------------------------------
      1          6           0       -2.166998    0.445406    0.176586
      2         14           0       -0.751086   -0.713668   -0.218899
      3          1           0       -2.045737    1.375772   -0.381449
      4          1           0       -2.165966    0.687674    1.244180
      5          1           0       -3.131007    0.000146   -0.078049
      6          6           0        0.917819    0.214198   -0.017297
      7          8           0        0.955521    1.415316   -0.081424
      8          8           0        2.073360   -0.493969    0.146506
      9          1           0        1.873319   -1.435993    0.211712
     10          1           0       -0.751379   -1.964654    0.591798
 ---------------------------------------------------------------------

 SCF Done:  E(UHF) =  -518.424485626     A.U. after    2 cycles

 The electronic state is 2-A.
 Alpha  occ. eigenvalues --  -76.24781 -21.12511 -21.06131 -11.48498 -11.37163
 Alpha  occ. eigenvalues --   -5.58473  -2.22338  -2.21376  -2.19513  -1.81439
 Alpha  occ. eigenvalues --   -1.65625  -1.06223  -0.85358  -0.74899  -0.62312
 Alpha  occ. eigenvalues --   -0.58124  -0.57231  -0.54641  -0.53432  -0.47386
 Alpha  occ. eigenvalues --   -0.43226  -0.34643  -0.31229  -0.25863
 Alpha virt. eigenvalues --    0.03088   0.04008   0.05204   0.06063   0.06959
 Alpha virt. eigenvalues --    0.07674   0.07773   0.08738   0.10872   0.12228
 Alpha virt. eigenvalues --    0.13096   0.14055   0.15020   0.15686   0.16759

  Beta  occ. eigenvalues --  -76.24229 -21.12532 -21.05740 -11.48611 -11.37128
  Beta  occ. eigenvalues --   -5.57612  -2.21688  -2.20663  -2.15975  -1.81309
  Beta  occ. eigenvalues --   -1.65038  -1.05504  -0.83793  -0.73614  -0.60866
  Beta  occ. eigenvalues --   -0.57349  -0.56783  -0.54406  -0.53184  -0.46882
  Beta  occ. eigenvalues --   -0.42781  -0.33558  -0.28190
  Beta virt. eigenvalues --    0.02124   0.04002   0.04242   0.05523   0.06428
  Beta virt. eigenvalues --    0.07530   0.07877   0.08133   0.09391   0.11526
  Beta virt. eigenvalues --    0.12653   0.13727   0.14500   0.15699   0.16873

 Mulliken charges and spin densities:
               1          2
     1  C   -5.095633   0.008399
     2  Si   3.768742   1.058637
     3  H    1.346757  -0.016315
     4  H    1.324724  -0.004870
     5  H    1.298042  -0.002052
     6  C    2.960642  -0.174656
     7  O   -2.398091   0.120117
     8  O   -2.662467   0.006912
     9  H    1.036537  -0.009333
    10  H   -1.579254   0.013161
 Sum of Mulliken charges =  -0.00000   1.00000

 Dipole moment (field-independent basis, Debye):
    X=             -1.3549    Y=             -1.0103    Z=              0.0638  Tot=              1.6913
                          Isotropic Fermi Contact Couplings
        Atom                 a.u.       MegaHertz       Gauss      10(-4) cm-1
     1  C(13)              0.01484      16.68267       5.95279       5.56474
     2  Si(29)             0.42902    -381.28105    -136.05056    -127.18167
     3  H(1)               0.00025       1.12312       0.40076       0.37463
     4  H(1)               0.00774      34.57846      12.33846      11.53413
     5  H(1)               0.00057       2.52795       0.90204       0.84323
     6  C(13)              0.00195       2.19441       0.78302       0.73197
     7  O(17)              0.02227     -13.49719      -4.81613      -4.50218
     8  O(17)             -0.00394       2.39090       0.85313       0.79752

 Normal termination of Gaussian 16 at Tue Apr  8 23:45:28 2025.
