 Gaussian 16, Revision C.01,

 ----------------------------------------------------------------------
 #t hf aug-cc-pvdz symm=none int=(grid=ultrafine) guess=(read,tcheck) s
 table=(opt,rrhf)
 ----------------------------------------------------------------------
 -----
 title
 -----
 Symbolic Z-matrix:
 Charge =  0 Multiplicity = 1

 SCF Done:  E(RHF) =  -401.911720774     A.U. after   14 cycles
 Normal termination of Gaussian 16 at Tue Apr  8 23:34:31 2025.
 Gaussian 16:  ES64L-G16RevC.01  3-Jul-2019

 ----------------------------------------------------------------------
 #t hf aug-cc-pvdz iop(5/13=1,5/36=2,99/5=2) pseudo=read geom=check gue
 ss=(read,tcheck) scf=(maxcycle=1)
 ----------------------------------------------------------------------
 -----
 title
 -----
 Structure from the checkpoint file:  "BDE49_nonexpt_144_mol1.chk"
 Charge =  0 Multiplicity = 1

                         Standard orientation:
 ---------------------------------------------------------------------
 Center     Atomic      Atomic             Coordinates (Angstroms)
 Number     Number       Type             X           Y           Z
 ---------------------------------------------------------------------
      1          5           0        0.610923   -1.265065   -0.469205
      2          5           0       -0.622273   -1.221712    0.545599
      3          5           0       -1.801070   -0.045467    0.117285
      4          5           0        1.778440   -0.065650   -0.127775
      5          8           0       -3.073658   -0.466593   -0.142002
      6          1           0       -3.639749    0.268300   -0.410361
      7          8           0       -1.517877    1.287003    0.022187
      8          1           0       -0.571581    1.486904    0.087834
      9          8           0        1.351372    1.243530   -0.038690
     10          1           0        2.075341    1.859059    0.135386
     11          8           0        3.107332   -0.279651    0.120510
     12          1           0        3.385918   -1.191843    0.007236
     13          1           0       -0.737765   -1.765719    1.602464
     14          1           0        0.720377   -1.941540   -1.448133
 ---------------------------------------------------------------------

 SCF Done:  E(RHF) =  -403.552055634     A.U. after    2 cycles

 The electronic state is 1-A.
 Alpha  occ. eigenvalues --  -21.07611 -21.07527 -21.04355 -21.03834  -7.63758
 Alpha  occ. eigenvalues --   -7.61220  -7.57672  -7.56932  -1.83005  -1.79694
 Alpha  occ. eigenvalues --   -1.66729  -1.63554  -0.97124  -0.79773  -0.73189
 Alpha  occ. eigenvalues --   -0.68096  -0.64658  -0.60401  -0.55069  -0.52742
 Alpha  occ. eigenvalues --   -0.49789  -0.47256  -0.45725  -0.42773  -0.40100
 Alpha  occ. eigenvalues --   -0.38261  -0.35785  -0.34656  -0.31396
 Alpha virt. eigenvalues --    0.01149   0.01378   0.01759   0.03522   0.05881
 Alpha virt. eigenvalues --    0.07299   0.07586   0.08037   0.08290   0.09034
 Alpha virt. eigenvalues --    0.09198   0.09659   0.09938   0.10173   0.10395

 Mulliken charges:
               1
     1  B    0.469662
     2  B    0.196450
     3  B    7.709528
     4  B    6.990099
     5  O   -3.910715
     6  H    1.268852
     7  O   -4.343040
     8  H    1.879362
     9  O   -4.028843
    10  H    1.252670
    11  O   -3.689748
    12  H    1.317400
    13  H   -2.552607
    14  H   -2.559070
 Sum of Mulliken charges =  -0.00000

 Dipole moment (field-independent basis, Debye):
    X=              2.2258    Y=              0.2532    Z=             -0.0742  Tot=              2.2414

 Test job not archived.
 1\1\GINC-SE402\SP\RHF\Aug-CC-pVDZ\B4H6O4\OHZDE\08-Apr-2025\0\\#t hf au
 g-cc-pvdz iop(5/13=1,5/36=2,99/5=2) pseudo=read geom=check guess=(read
 ,tcheck) scf=(maxcycle=1)\\title\\0,1\B,0,0.610923,-1.265065,-0.469205
 \B,0,-0.622273,-1.221712,0.545599\B,0,-1.80107,-0.045467,0.117285\B,0,
 1.77844,-0.06565,-0.127775\O,0,-3.073658,-0.466594,-0.142002\H,0,-3.63
 9749,0.268299,-0.410361\O,0,-1.517877,1.287003,0.022187\H,0,-0.571581,
 1.486904,0.087834\O,0,1.351372,1.24353,-0.03869\H,0,2.075341,1.859059,
 0.135386\O,0,3.107332,-0.279651,0.12051\H,0,3.385918,-1.191843,0.00723

 Normal termination of Gaussian 16 at Tue Apr  8 23:34:35 2025.
