 Gaussian 16, Revision C.01,

 ----------------------------------------------------------------------
 #t hf aug-cc-pvdz symm=none int=(grid=ultrafine) guess=(read,tcheck) s
 table=opt
 ----------------------------------------------------------------------
 -----
 title
 -----
 Symbolic Z-matrix:
 Charge =  0 Multiplicity = 2

 SCF Done:  E(UHF) =  -153.473020081     A.U. after   15 cycles
 Normal termination of Gaussian 16 at Tue Apr  8 22:41:27 2025.
 Gaussian 16:  ES64L-G16RevC.01  3-Jul-2019

 ----------------------------------------------------------------------
 #t hf aug-cc-pvdz iop(5/13=1,5/36=2,99/5=2) pseudo=read geom=check gue
 ss=(read,tcheck) scf=(maxcycle=1)
 ----------------------------------------------------------------------
 -----
 title
 -----
 Structure from the checkpoint file:  "BDE49_expt_1351_mol2.chk"
 Charge =  0 Multiplicity = 2

                         Standard orientation:
 ---------------------------------------------------------------------
 Center     Atomic      Atomic             Coordinates (Angstroms)
 Number     Number       Type             X           Y           Z
 ---------------------------------------------------------------------
      1          6           0       -1.251921   -0.254635   -0.019708
      2          6           0        0.008520    0.519370    0.037213
      3          1           0       -2.189772    0.238194   -0.239965
      4          1           0       -1.253040   -1.287024    0.303987
      5          8           0        1.112763   -0.377132   -0.063789
      6          1           0        0.060182    1.086366    0.988093
      7          1           0        0.026145    1.271885   -0.769042
      8          1           0        1.914785    0.119222    0.122207
 ---------------------------------------------------------------------

 SCF Done:  E(UHF) =  -154.156991188     A.U. after    2 cycles

 The electronic state is 2-A.
 Alpha  occ. eigenvalues --  -21.06854 -11.42410 -11.37009  -1.70626  -1.10857
 Alpha  occ. eigenvalues --   -0.86142  -0.66047  -0.63015  -0.54672  -0.50866
 Alpha  occ. eigenvalues --   -0.42073  -0.34000  -0.30755
 Alpha virt. eigenvalues --    0.03709   0.05576   0.06121   0.06227   0.06585
 Alpha virt. eigenvalues --    0.11972   0.13360   0.13570   0.14049   0.15777
 Alpha virt. eigenvalues --    0.18429   0.19824   0.20145   0.22495   0.23871

  Beta  occ. eigenvalues --  -21.06824 -11.42415 -11.35076  -1.70535  -1.06205
  Beta  occ. eigenvalues --   -0.81987  -0.65358  -0.60868  -0.53581  -0.49934
  Beta  occ. eigenvalues --   -0.41603  -0.31961
  Beta virt. eigenvalues --    0.03770   0.05634   0.06138   0.06248   0.06626
  Beta virt. eigenvalues --    0.09028   0.12054   0.13473   0.14046   0.16071
  Beta virt. eigenvalues --    0.17429   0.19992   0.20184   0.20991   0.22704

 Mulliken charges and spin densities:
               1          2
     1  C   -2.735922   1.457578
     2  C   -1.130662  -0.321477
     3  H    1.356500  -0.080072
     4  H    1.376200  -0.070694
     5  O   -2.462071  -0.006245
     6  H    1.417988   0.018167
     7  H    1.363159   0.008716
     8  H    0.814809  -0.005973
 Sum of Mulliken charges =   0.00000   1.00000

 Dipole moment (field-independent basis, Debye):
    X=              0.1431    Y=              0.7995    Z=              0.2945  Tot=              0.8639
                          Isotropic Fermi Contact Couplings
        Atom                 a.u.       MegaHertz       Gauss      10(-4) cm-1
     1  C(13)              0.12596     141.60095      50.52674      47.23299
     2  C(13)             -0.03825     -42.99477     -15.34160     -14.34151
     3  H(1)              -0.01841     -82.28461     -29.36120     -27.44719
     4  H(1)              -0.01834     -81.96287     -29.24639     -27.33987
     5  O(17)              0.00561      -3.39777      -1.21241      -1.13338
     6  H(1)               0.02002      89.49441      31.93383      29.85212
     7  H(1)               0.00988      44.16440      15.75896      14.73166
     8  H(1)              -0.00034      -1.50226      -0.53605      -0.50110

 Normal termination of Gaussian 16 at Tue Apr  8 22:41:28 2025.
