 Gaussian 16, Revision C.01,

 ----------------------------------------------------------------------
 #t hf aug-cc-pvdz symm=none int=(grid=ultrafine) guess=(read,tcheck) s
 table=(opt,rrhf)
 ----------------------------------------------------------------------
 -----
 title
 -----
 Symbolic Z-matrix:
 Charge =  0 Multiplicity = 1

 SCF Done:  E(RHF) =  -901.191129006     A.U. after   15 cycles
 Normal termination of Gaussian 16 at Tue Apr  8 23:43:30 2025.
 Gaussian 16:  ES64L-G16RevC.01  3-Jul-2019

 ----------------------------------------------------------------------
 #t hf aug-cc-pvdz iop(5/13=1,5/36=2,99/5=2) pseudo=read geom=check gue
 ss=(read,tcheck) scf=(maxcycle=1)
 ----------------------------------------------------------------------
 -----
 title
 -----
 Structure from the checkpoint file:  "BDE49_nonexpt_1653_mol1.chk"
 Charge =  0 Multiplicity = 1

                         Standard orientation:
 ---------------------------------------------------------------------
 Center     Atomic      Atomic             Coordinates (Angstroms)
 Number     Number       Type             X           Y           Z
 ---------------------------------------------------------------------
      1          6           0        0.641467   -0.388900    0.378295
      2         15           0       -2.774018   -0.101832   -0.429344
      3          6           0       -2.261856    1.691161   -0.621884
      4          1           0       -1.203814    1.824181   -0.849795
      5          1           0       -2.495601    2.222259    0.303556
      6          1           0       -2.857779    2.138644   -1.420013
      7          6           0        1.312729   -1.057159   -0.659311
      8          6           0        2.587929   -0.667795   -1.059354
      9          6           0        3.219824    0.403969   -0.430054
     10          6           0        2.572146    1.080703    0.600650
     11          6           0        1.296354    0.686354    1.000122
     12          1           0        0.810414    1.217754    1.812470
     13          1           0        0.837913   -1.896568   -1.158482
     14          1           0        3.090490   -1.201000   -1.858912
     15          1           0        4.213666    0.707290   -0.740007
     16          1           0        3.061147    1.912067    1.096531
     17         14           0       -1.093183   -0.894141    0.892154
     18          1           0       -2.198517   -0.601929   -1.628263
     19          1           0       -1.339555   -0.394860    2.267576
     20          1           0       -1.215081   -2.372386    0.874547
 ---------------------------------------------------------------------

 SCF Done:  E(RHF) =  -902.873169777     A.U. after    2 cycles

 The electronic state is 1-A.
 Alpha  occ. eigenvalues -- -105.16122 -76.21837 -11.51591 -11.43302 -11.42771
 Alpha  occ. eigenvalues --  -11.40951 -11.40572 -11.37266 -11.36400  -5.55460
 Alpha  occ. eigenvalues --   -2.73345  -2.20275  -2.18772  -2.17316  -1.45131
 Alpha  occ. eigenvalues --   -1.42924  -1.41056  -1.33882  -1.09439  -1.09317
 Alpha  occ. eigenvalues --   -1.00326  -0.86512  -0.86372  -0.76683  -0.70483
 Alpha  occ. eigenvalues --   -0.65183  -0.62769  -0.58731  -0.57113  -0.56257
 Alpha  occ. eigenvalues --   -0.56002  -0.53038  -0.50712  -0.47572  -0.44859
 Alpha  occ. eigenvalues --   -0.40081  -0.34442  -0.33405  -0.23407  -0.14258
 Alpha  occ. eigenvalues --   -0.02139
 Alpha virt. eigenvalues --    0.03308   0.04948   0.05088   0.05316   0.06021
 Alpha virt. eigenvalues --    0.06376   0.06471   0.07194   0.07622   0.08420
 Alpha virt. eigenvalues --    0.08989   0.09130   0.09816   0.10128   0.11066

 Mulliken charges:
               1
     1  C    0.254144
     2  P    2.727178
     3  C   -5.879333
     4  H    1.409950
     5  H    1.325632
     6  H    1.271828
     7  C   -2.604391
     8  C   -0.464204
     9  C   -2.175460
    10  C   -0.666944
    11  C   -2.732948
    12  H    1.864544
    13  H    1.632253
    14  H    1.564425
    15  H    1.529194
    16  H    1.575720
    17  Si   4.166901
    18  H   -0.982894
    19  H   -1.836850
    20  H   -1.978748
 Sum of Mulliken charges =  -0.00000

 Dipole moment (field-independent basis, Debye):
    X=             -3.8659    Y=              1.2651    Z=             -1.4665  Tot=              4.3239

 Test job not archived.
 1\1\GINC-SE048\SP\RHF\Aug-CC-pVDZ\C7H11P1Si1\OHZDE\08-Apr-2025\0\\#t h
 f aug-cc-pvdz iop(5/13=1,5/36=2,99/5=2) pseudo=read geom=check guess=(
 read,tcheck) scf=(maxcycle=1)\\title\\0,1\C,0,0.641467,-0.3889,0.37829
 5\P,0,-2.774018,-0.101832,-0.429344\C,0,-2.261856,1.691161,-0.621884\H
 ,0,-1.203814,1.824181,-0.849795\H,0,-2.495601,2.222259,0.303556\H,0,-2
 .857779,2.138644,-1.420013\C,0,1.312729,-1.057159,-0.659311\C,0,2.5879
 29,-0.667795,-1.059354\C,0,3.219824,0.403969,-0.430054\C,0,2.572146,1.
 080703,0.60065\C,0,1.296354,0.686354,1.000122\H,0,0.810414,1.217754,1.

 Normal termination of Gaussian 16 at Tue Apr  8 23:43:42 2025.
