 Gaussian 16, Revision C.01,

 ----------------------------------------------------------------------
 #t hf aug-cc-pvdz symm=none int=(grid=ultrafine) guess=(read,tcheck) s
 table=(opt,rrhf)
 ----------------------------------------------------------------------
 -----
 title
 -----
 Symbolic Z-matrix:
 Charge =  0 Multiplicity = 1

 SCF Done:  E(RHF) =  -207.815709860     A.U. after   12 cycles

 1\1\GINC-SE103\Stability\RHF\Aug-CC-pVDZ\C4H12B2\OHZDE\09-Apr-2025\0\\
 #t hf aug-cc-pvdz symm=none int=(grid=ultrafine) guess=(read,tcheck) s
 table=(opt,rrhf)\\title\\0,1\B,0,0.616406,1.004976,-0.550974\B,0,-0.61
 6409,1.005016,0.550894\C,0,-1.940079,0.158217,0.553848\C,0,1.940034,0.
 158112,-0.55391\C,0,2.19,-0.831789,0.593438\H,0,1.958801,-0.366963,-1.
 523483\H,0,2.780558,0.863605,-0.643719\H,0,1.391123,-1.577032,0.656201
 \H,0,2.231613,-0.316927,1.557962\H,0,3.132787,-1.373374,0.47109\C,0,-2
 .189923,-0.831961,-0.593287\H,0,-2.780588,0.863766,0.643359\H,0,-1.959

 Normal termination of Gaussian 16 at Wed Apr  9 00:29:12 2025.
 Gaussian 16:  ES64L-G16RevC.01  3-Jul-2019

 ----------------------------------------------------------------------
 #t hf aug-cc-pvdz iop(5/13=1,5/36=2,99/5=2) pseudo=read geom=check gue
 ss=(read,tcheck) scf=(maxcycle=1)
 ----------------------------------------------------------------------
 -----
 title
 -----
 Structure from the checkpoint file:  "BDE49_nonexpt_2_mol1.chk"
 Charge =  0 Multiplicity = 1

                         Standard orientation:
 ---------------------------------------------------------------------
 Center     Atomic      Atomic             Coordinates (Angstroms)
 Number     Number       Type             X           Y           Z
 ---------------------------------------------------------------------
      1          5           0       -0.616406    1.004976    0.550974
      2          5           0        0.616409    1.005016   -0.550894
      3          6           0        1.940079    0.158217   -0.553848
      4          6           0       -1.940034    0.158112    0.553910
      5          6           0       -2.190000   -0.831789   -0.593438
      6          1           0       -1.958801   -0.366963    1.523483
      7          1           0       -2.780558    0.863605    0.643719
      8          1           0       -1.391123   -1.577032   -0.656201
      9          1           0       -2.231613   -0.316927   -1.557962
     10          1           0       -3.132787   -1.373374   -0.471090
     11          6           0        2.189923   -0.831961    0.593287
     12          1           0        2.780588    0.863766   -0.643359
     13          1           0        1.959007   -0.366612   -1.523551
     14          1           0        2.231375   -0.317341    1.557947
     15          1           0        3.132750   -1.373476    0.470939
     16          1           0        1.391068   -1.577255    0.655746
     17          1           0        0.507611    1.788346   -1.462175
     18          1           0       -0.507342    1.787830    1.462635
 ---------------------------------------------------------------------

 SCF Done:  E(RHF) =  -208.882409637     A.U. after    2 cycles

 The electronic state is 1-A.
 Alpha  occ. eigenvalues --  -11.38545 -11.38543 -11.33459 -11.33391  -7.57859
 Alpha  occ. eigenvalues --   -7.56892  -1.17866  -1.15717  -0.94977  -0.91016
 Alpha  occ. eigenvalues --   -0.79570  -0.64743  -0.59855  -0.59666  -0.57515
 Alpha  occ. eigenvalues --   -0.57379  -0.50661  -0.48036  -0.47833  -0.47755
 Alpha  occ. eigenvalues --   -0.41185  -0.40784  -0.33637
 Alpha virt. eigenvalues --    0.02816   0.03192   0.03303   0.03480   0.06513
 Alpha virt. eigenvalues --    0.06656   0.07461   0.07597   0.07859   0.07871
 Alpha virt. eigenvalues --    0.08269   0.08384   0.08713   0.09696   0.10192

 Mulliken charges:
               1
     1  B    5.270832
     2  B    5.270331
     3  C   -4.216216
     4  C   -4.216626
     5  C   -3.816103
     6  H    1.540038
     7  H    1.562030
     8  H    1.391399
     9  H    1.329591
    10  H    1.163986
    11  C   -3.816278
    12  H    1.561791
    13  H    1.539923
    14  H    1.329613
    15  H    1.163973
    16  H    1.391365
    17  H   -4.224990
    18  H   -4.224660
 Sum of Mulliken charges =   0.00000

 Dipole moment (field-independent basis, Debye):
    X=             -0.0001    Y=             -0.6063    Z=             -0.0001  Tot=              0.6063

 Test job not archived.
 1\1\GINC-SE103\SP\RHF\Aug-CC-pVDZ\C4H12B2\OHZDE\09-Apr-2025\0\\#t hf a
 ug-cc-pvdz iop(5/13=1,5/36=2,99/5=2) pseudo=read geom=check guess=(rea
 d,tcheck) scf=(maxcycle=1)\\title\\0,1\B,0,0.616406,1.004976,-0.550974
 \B,0,-0.616409,1.005016,0.550894\C,0,-1.940079,0.158217,0.553848\C,0,1
 .940034,0.158112,-0.55391\C,0,2.19,-0.831789,0.593438\H,0,1.958801,-0.
 366963,-1.523483\H,0,2.780558,0.863605,-0.643719\H,0,1.391123,-1.57703
 2,0.656201\H,0,2.231613,-0.316927,1.557962\H,0,3.132787,-1.373374,0.47
 109\C,0,-2.189923,-0.831961,-0.593287\H,0,-2.780588,0.863766,0.643359\

 Normal termination of Gaussian 16 at Wed Apr  9 00:29:18 2025.
