 Gaussian 16, Revision C.01,

 ----------------------------------------------------------------------
 #t hf aug-cc-pvdz symm=none int=(grid=ultrafine) guess=(read,tcheck) s
 table=(opt,rrhf)
 ----------------------------------------------------------------------
 -----
 title
 -----
 Symbolic Z-matrix:
 Charge =  0 Multiplicity = 1

 SCF Done:  E(RHF) =  -484.842693670     A.U. after   14 cycles
 Normal termination of Gaussian 16 at Wed Apr  9 00:42:05 2025.
 Gaussian 16:  ES64L-G16RevC.01  3-Jul-2019

 ----------------------------------------------------------------------
 #t hf aug-cc-pvdz iop(5/13=1,5/36=2,99/5=2) pseudo=read geom=check gue
 ss=(read,tcheck) scf=(maxcycle=1)
 ----------------------------------------------------------------------
 -----
 title
 -----
 Structure from the checkpoint file:  "BDE49_nonexpt_682_mol1.chk"
 Charge =  0 Multiplicity = 1

                         Standard orientation:
 ---------------------------------------------------------------------
 Center     Atomic      Atomic             Coordinates (Angstroms)
 Number     Number       Type             X           Y           Z
 ---------------------------------------------------------------------
      1          5           0        2.243605    1.098857   -0.128312
      2         15           0        1.428624   -0.541976    0.058187
      3          6           0       -2.759889    0.232375   -0.054235
      4          6           0       -0.355421   -0.525612   -0.452864
      5          6           0       -1.303980    0.310459    0.417740
      6          1           0       -0.695154   -1.565522   -0.493240
      7          1           0       -0.360709   -0.160854   -1.485612
      8          1           0       -0.966206    1.351730    0.415170
      9          1           0       -1.236469   -0.029982    1.456749
     10          1           0       -3.131035   -0.796759   -0.028800
     11          1           0       -2.863845    0.597762   -1.080384
     12          1           0       -3.412308    0.836659    0.581745
     13          1           0        3.175984    1.360553    0.562151
     14          1           0        1.959425    1.791248   -1.054607
     15          1           0        1.398674   -0.852808    1.431726
 ---------------------------------------------------------------------

 SCF Done:  E(RHF) =  -485.788094821     A.U. after    2 cycles

 The electronic state is 1-A.
 Alpha  occ. eigenvalues -- -105.15330 -11.41980 -11.38770 -11.35578  -7.61251
 Alpha  occ. eigenvalues --   -2.73722  -1.52666  -1.46267  -1.40729  -1.20014
 Alpha  occ. eigenvalues --   -0.98927  -0.86242  -0.80674  -0.64429  -0.64374
 Alpha  occ. eigenvalues --   -0.57244  -0.54668  -0.50544  -0.48965  -0.47188
 Alpha  occ. eigenvalues --   -0.46892  -0.22729  -0.13000  -0.04149
 Alpha virt. eigenvalues --    0.03562   0.04087   0.04630   0.05634   0.06164
 Alpha virt. eigenvalues --    0.06353   0.06670   0.06862   0.08431   0.09217
 Alpha virt. eigenvalues --    0.09437   0.10612   0.10713   0.11825   0.12693

 Mulliken charges:
               1
     1  B    4.128314
     2  P    2.935846
     3  C   -4.057864
     4  C   -3.792643
     5  C   -3.220281
     6  H    1.358872
     7  H    1.456159
     8  H    1.559352
     9  H    1.533619
    10  H    1.249500
    11  H    1.241726
    12  H    1.183687
    13  H   -2.708011
    14  H   -2.012844
    15  H   -0.855431
 Sum of Mulliken charges =  -0.00000

 Dipole moment (field-independent basis, Debye):
    X=             -2.4042    Y=             -7.9517    Z=             -1.2110  Tot=              8.3950

 Test job not archived.
 1\1\GINC-SE368\SP\RHF\Aug-CC-pVDZ\C3H10B1P1\OHZDE\09-Apr-2025\0\\#t hf
  aug-cc-pvdz iop(5/13=1,5/36=2,99/5=2) pseudo=read geom=check guess=(r
 ead,tcheck) scf=(maxcycle=1)\\title\\0,1\B,0,2.243605,1.098857,-0.1283
 12\P,0,1.428624,-0.541976,0.058187\C,0,-2.759889,0.232375,-0.054235\C,
 0,-0.355421,-0.525612,-0.452864\C,0,-1.30398,0.310459,0.41774\H,0,-0.6
 95154,-1.565522,-0.49324\H,0,-0.360709,-0.160854,-1.485612\H,0,-0.9662
 06,1.35173,0.41517\H,0,-1.236469,-0.029982,1.456749\H,0,-3.131035,-0.7
 96759,-0.0288\H,0,-2.863845,0.597762,-1.080384\H,0,-3.412308,0.836659,

 Normal termination of Gaussian 16 at Wed Apr  9 00:42:09 2025.
