 Gaussian 16, Revision C.01,

 ----------------------------------------------------------------------
 #t hf aug-cc-pvdz symm=none int=(grid=ultrafine) guess=(read,tcheck) s
 table=(opt,rrhf)
 ----------------------------------------------------------------------
 -----
 title
 -----
 Symbolic Z-matrix:
 Charge =  0 Multiplicity = 1

 SCF Done:  E(RHF) =  -980.216595919     A.U. after   16 cycles
 Normal termination of Gaussian 16 at Tue Apr  8 23:41:36 2025.
 Gaussian 16:  ES64L-G16RevC.01  3-Jul-2019

 ----------------------------------------------------------------------
 #t hf aug-cc-pvdz iop(5/13=1,5/36=2,99/5=2) pseudo=read geom=check gue
 ss=(read,tcheck) scf=(maxcycle=1)
 ----------------------------------------------------------------------
 -----
 title
 -----
 Structure from the checkpoint file:  "BDE49_nonexpt_1558_mol1.chk"
 Charge =  0 Multiplicity = 1

                         Standard orientation:
 ---------------------------------------------------------------------
 Center     Atomic      Atomic             Coordinates (Angstroms)
 Number     Number       Type             X           Y           Z
 ---------------------------------------------------------------------
      1          6           0       -1.581272   -1.268206   -0.258801
      2          6           0       -0.219232   -1.438663   -0.032956
      3          6           0       -2.148104   -0.032649    0.025526
      4          6           0       -1.400032    1.030350    0.520713
      5          6           0       -0.038859    0.846885    0.731464
      6          6           0        0.567479   -0.387970    0.457932
      7          1           0        0.561527    1.669657    1.096347
      8          1           0       -2.202985   -2.066264   -0.639486
      9          1           0        0.236195   -2.401326   -0.236158
     10          7           0        3.030774    0.108044   -0.667237
     11          8           0        2.726787    1.499436   -0.604364
     12          8           0        4.450295   -0.014304   -0.501608
     13          7           0       -3.600231    0.159029   -0.204621
     14          8           0       -4.073092    1.256945    0.053506
     15          8           0       -4.233887   -0.792356   -0.639432
     16          1           0       -1.887694    1.972721    0.727712
     17          1           0        4.751638   -0.265590   -1.382743
     18          1           0        2.572240    1.735412   -1.527659
     19         15           0        2.356349   -0.727550    0.748831
     20          1           0        2.569331    0.302872    1.704451
 ---------------------------------------------------------------------

 SCF Done:  E(RHF) =  -983.187465201     A.U. after    2 cycles

 The electronic state is 1-A.
 Alpha  occ. eigenvalues -- -105.22266 -21.11465 -21.11418 -21.09937 -21.09825
 Alpha  occ. eigenvalues --  -16.00475 -15.81549 -11.55575 -11.48304 -11.47225
 Alpha  occ. eigenvalues --  -11.46482 -11.44437 -11.40561  -2.79775  -2.00280
 Alpha  occ. eigenvalues --   -1.86860  -1.69563  -1.69364  -1.55250  -1.52511
 Alpha  occ. eigenvalues --   -1.49448  -1.37271  -1.17581  -1.13238  -1.04632
 Alpha  occ. eigenvalues --   -0.98542  -0.90965  -0.83163  -0.76667  -0.72464
 Alpha  occ. eigenvalues --   -0.68058  -0.67232  -0.66436  -0.64577  -0.63513
 Alpha  occ. eigenvalues --   -0.61991  -0.58553  -0.57901  -0.53664  -0.50066
 Alpha  occ. eigenvalues --   -0.48569  -0.48061  -0.37788  -0.36691  -0.36165
 Alpha  occ. eigenvalues --   -0.34073  -0.32973  -0.31701  -0.31653  -0.27905
 Alpha  occ. eigenvalues --   -0.26635  -0.03765
 Alpha virt. eigenvalues --    0.03091   0.04755   0.05492   0.06169   0.06406
 Alpha virt. eigenvalues --    0.06566   0.06842   0.07281   0.08201   0.09522
 Alpha virt. eigenvalues --    0.10327   0.10775   0.12122   0.12495   0.12892

 Mulliken charges:
               1
     1  C   -2.763064
     2  C   -3.422321
     3  C    2.620329
     4  C   -2.258882
     5  C   -2.217280
     6  C    3.351620
     7  H    2.109893
     8  H    1.897916
     9  H    1.981504
    10  N    1.456736
    11  O   -1.978036
    12  O   -2.258439
    13  N    3.311319
    14  O   -2.965831
    15  O   -2.980290
    16  H    1.875972
    17  H    0.841920
    18  H    0.750400
    19  P    1.939728
    20  H   -1.293196
 Sum of Mulliken charges =   0.00000

 Dipole moment (field-independent basis, Debye):
    X=              3.4000    Y=             -0.3716    Z=             -0.7922  Tot=              3.5108

 Test job not archived.
 1\1\GINC-SE080\SP\RHF\Aug-CC-pVDZ\C6H7N2O4P1\OHZDE\08-Apr-2025\0\\#t h
 f aug-cc-pvdz iop(5/13=1,5/36=2,99/5=2) pseudo=read geom=check guess=(
 read,tcheck) scf=(maxcycle=1)\\title\\0,1\C,0,-1.581272,-1.268206,-0.2
 58801\C,0,-0.219232,-1.438663,-0.032956\C,0,-2.148104,-0.032649,0.0255
 26\C,0,-1.400032,1.03035,0.520713\C,0,-0.038859,0.846885,0.731464\C,0,
 0.567479,-0.38797,0.457932\H,0,0.561527,1.669657,1.096347\H,0,-2.20298
 5,-2.066264,-0.639486\H,0,0.236195,-2.401326,-0.236158\N,0,3.030774,0.
 108044,-0.667237\O,0,2.726787,1.499436,-0.604364\O,0,4.450295,-0.01430

 Normal termination of Gaussian 16 at Tue Apr  8 23:41:51 2025.
