 Gaussian 16, Revision C.01,

 ----------------------------------------------------------------------
 #t hf aug-cc-pvdz symm=none int=(grid=ultrafine) guess=(read,tcheck) s
 table=(opt,rrhf)
 ----------------------------------------------------------------------
 -----
 title
 -----
 Symbolic Z-matrix:
 Charge =  0 Multiplicity = 1

 SCF Done:  E(RHF) =  -749.064906517     A.U. after   13 cycles
 Normal termination of Gaussian 16 at Wed Apr  9 00:12:40 2025.
 Gaussian 16:  ES64L-G16RevC.01  3-Jul-2019

 ----------------------------------------------------------------------
 #t hf aug-cc-pvdz iop(5/13=1,5/36=2,99/5=2) pseudo=read geom=check gue
 ss=(read,tcheck) scf=(maxcycle=1)
 ----------------------------------------------------------------------
 -----
 title
 -----
 Structure from the checkpoint file:  "BDE49_nonexpt_2408_mol1.chk"
 Charge =  0 Multiplicity = 1

                         Standard orientation:
 ---------------------------------------------------------------------
 Center     Atomic      Atomic             Coordinates (Angstroms)
 Number     Number       Type             X           Y           Z
 ---------------------------------------------------------------------
      1         14           0       -1.859622   -0.570937   -0.192807
      2         14           0       -0.284316    1.112683    0.312987
      3          1           0       -1.589031   -1.137307   -1.535855
      4          1           0       -3.226168    0.009465   -0.202277
      5          1           0       -1.817883   -1.656110    0.812848
      6          6           0        1.402325    0.748937   -0.474713
      7          1           0       -0.125482    1.254904    1.779958
      8          1           0       -0.716337    2.421668   -0.235594
      9          7           0        2.052506   -0.342121   -0.358007
     10          1           0        1.908022    1.477692   -1.106164
     11          8           0        1.359322   -1.252723    0.462391
     12          1           0        1.925937   -2.031754    0.459766
 ---------------------------------------------------------------------

 SCF Done:  E(RHF) =  -750.116701168     A.U. after    2 cycles

 The electronic state is 1-A.
 Alpha  occ. eigenvalues --  -76.22281 -76.21619 -21.10734 -15.79955 -11.39667
 Alpha  occ. eigenvalues --   -5.55908  -5.54990  -2.19756  -2.18083  -2.17410
 Alpha  occ. eigenvalues --   -2.17047  -2.17028  -2.16011  -1.79599  -1.25535
 Alpha  occ. eigenvalues --   -0.86713  -0.78587  -0.72008  -0.65116  -0.56810
 Alpha  occ. eigenvalues --   -0.53751  -0.49652  -0.48063  -0.46862  -0.45951
 Alpha  occ. eigenvalues --   -0.37401  -0.33522  -0.31508
 Alpha virt. eigenvalues --    0.03926   0.04584   0.05505   0.05707   0.06842
 Alpha virt. eigenvalues --    0.07622   0.07992   0.08488   0.08717   0.09484
 Alpha virt. eigenvalues --    0.10016   0.10166   0.10575   0.11843   0.12273

 Mulliken charges:
               1
     1  Si   4.721537
     2  Si   4.557362
     3  H   -1.494612
     4  H   -1.628590
     5  H   -1.535860
     6  C   -1.247257
     7  H   -1.730943
     8  H   -1.740392
     9  N   -0.177215
    10  H    1.409725
    11  O   -2.136525
    12  H    1.002770
 Sum of Mulliken charges =  -0.00000

 Dipole moment (field-independent basis, Debye):
    X=              0.1545    Y=             -0.6647    Z=              0.2827  Tot=              0.7387

 Test job not archived.
 1\1\GINC-SE249\SP\RHF\Aug-CC-pVDZ\C1H7N1O1Si2\OHZDE\09-Apr-2025\0\\#t
 hf aug-cc-pvdz iop(5/13=1,5/36=2,99/5=2) pseudo=read geom=check guess=
 (read,tcheck) scf=(maxcycle=1)\\title\\0,1\Si,0,-1.859622,-0.570937,-0
 .192807\Si,0,-0.284316,1.112683,0.312987\H,0,-1.589031,-1.137307,-1.53
 5855\H,0,-3.226168,0.009464,-0.202277\H,0,-1.817883,-1.65611,0.812848\
 C,0,1.402325,0.748937,-0.474713\H,0,-0.125482,1.254904,1.779958\H,0,-0
 .716338,2.421668,-0.235594\N,0,2.052506,-0.342121,-0.358007\H,0,1.9080
 22,1.477692,-1.106164\O,0,1.359322,-1.252723,0.462391\H,0,1.925937,-2.

 Normal termination of Gaussian 16 at Wed Apr  9 00:12:44 2025.
