 Gaussian 16, Revision C.01,

 ----------------------------------------------------------------------
 #t hf aug-cc-pvdz symm=none int=(grid=ultrafine) guess=(read,tcheck) s
 table=(opt,rrhf)
 ----------------------------------------------------------------------
 -----
 title
 -----
 Symbolic Z-matrix:
 Charge =  0 Multiplicity = 1

 SCF Done:  E(RHF) =  -744.688709987     A.U. after   15 cycles
 Normal termination of Gaussian 16 at Tue Apr  8 22:52:20 2025.
 Gaussian 16:  ES64L-G16RevC.01  3-Jul-2019

 ----------------------------------------------------------------------
 #t hf aug-cc-pvdz iop(5/13=1,5/36=2,99/5=2) pseudo=read geom=check gue
 ss=(read,tcheck) scf=(maxcycle=1)
 ----------------------------------------------------------------------
 -----
 title
 -----
 Structure from the checkpoint file:  "BDE49_expt_1731_mol1.chk"
 Charge =  0 Multiplicity = 1

                         Standard orientation:
 ---------------------------------------------------------------------
 Center     Atomic      Atomic             Coordinates (Angstroms)
 Number     Number       Type             X           Y           Z
 ---------------------------------------------------------------------
      1          6           0       -1.958139    1.204778   -0.098262
      2          6           0       -0.628829    1.171105    0.301937
      3          6           0       -2.607200   -0.002447   -0.353247
      4          7           0       -2.018444   -1.195075   -0.230667
      5          6           0       -0.741110   -1.211010    0.152669
      6          6           0        0.008042   -0.064568    0.434313
      7          1           0       -2.485997    2.144215   -0.210755
      8          1           0       -0.087921    2.089462    0.505253
      9          1           0       -0.281637   -2.192598    0.245211
     10          6           0        1.434417   -0.172821    0.867995
     11         17           0        2.601285    0.080093   -0.526588
     12          1           0        1.665611   -1.159915    1.261748
     13          1           0       -3.646701   -0.012751   -0.668599
     14          1           0        1.700823    0.585311    1.601379
 ---------------------------------------------------------------------

 SCF Done:  E(RHF) =  -746.285489628     A.U. after    2 cycles

 The electronic state is 1-A.
 Alpha  occ. eigenvalues --  -99.88042 -15.74700 -11.49481 -11.46901 -11.45737
 Alpha  occ. eigenvalues --  -11.44711 -11.42641 -11.39023 -10.45231  -9.65175
 Alpha  occ. eigenvalues --   -9.64469  -9.64404  -1.46351  -1.32758  -1.20578
 Alpha  occ. eigenvalues --   -1.14126  -1.00905  -0.90486  -0.86848  -0.73598
 Alpha  occ. eigenvalues --   -0.67247  -0.65856  -0.61821  -0.59466  -0.58462
 Alpha  occ. eigenvalues --   -0.56247  -0.53873  -0.50671  -0.48120  -0.46088
 Alpha  occ. eigenvalues --   -0.37694  -0.36486  -0.34700
 Alpha virt. eigenvalues --    0.02878   0.04661   0.05311   0.05361   0.06360
 Alpha virt. eigenvalues --    0.06707   0.07726   0.09181   0.09475   0.10052
 Alpha virt. eigenvalues --    0.11562   0.12027   0.12425   0.12601   0.13628

 Mulliken charges:
               1
     1  C   -1.286188
     2  C   -1.230531
     3  C   -1.169421
     4  N   -3.634011
     5  C   -1.910505
     6  C    4.589334
     7  H    1.374936
     8  H    1.721893
     9  H    1.567973
    10  C   -4.462993
    11  Cl   0.135336
    12  H    1.414568
    13  H    1.536706
    14  H    1.352903
 Sum of Mulliken charges =   0.00000

 Dipole moment (field-independent basis, Debye):
    X=             -1.1594    Y=              1.3656    Z=              1.8374  Tot=              2.5661

 Test job not archived.
 1\1\GINC-SE045\SP\RHF\Aug-CC-pVDZ\C6H6Cl1N1\OHZDE\08-Apr-2025\0\\#t hf
  aug-cc-pvdz iop(5/13=1,5/36=2,99/5=2) pseudo=read geom=check guess=(r
 ead,tcheck) scf=(maxcycle=1)\\title\\0,1\C,0,-1.958139,1.204778,-0.098
 262\C,0,-0.628829,1.171105,0.301937\C,0,-2.6072,-0.002447,-0.353247\N,
 0,-2.018444,-1.195075,-0.230667\C,0,-0.74111,-1.21101,0.152669\C,0,0.0
 08042,-0.064568,0.434313\H,0,-2.485997,2.144215,-0.210755\H,0,-0.08792
 1,2.089462,0.505253\H,0,-0.281637,-2.192598,0.245211\C,0,1.434417,-0.1
 72821,0.867995\Cl,0,2.601285,0.080093,-0.526588\H,0,1.665611,-1.159915

 Normal termination of Gaussian 16 at Tue Apr  8 22:52:27 2025.
