 Gaussian 16, Revision C.01,

 ----------------------------------------------------------------------
 #t hf aug-cc-pvdz symm=none int=(grid=ultrafine) guess=(read,tcheck) s
 table=(opt,rrhf)
 ----------------------------------------------------------------------
 -----
 title
 -----
 Symbolic Z-matrix:
 Charge =  0 Multiplicity = 1

 SCF Done:  E(RHF) =  -366.939316881     A.U. after   11 cycles

 1\1\GINC-SE419\Stability\RHF\Aug-CC-pVDZ\C2H4Si1\OHZDE\08-Apr-2025\0\\
 #t hf aug-cc-pvdz symm=none int=(grid=ultrafine) guess=(read,tcheck) s
 table=(opt,rrhf)\\title\\0,1\Si,0,-1.060244,0.000004,-0.000005\C,0,0.7
 67531,-0.000007,0.000015\C,0,1.975354,-0.000018,0.000016\H,0,3.039395,
 0.000105,-0.000085\H,0,-1.551052,-1.211015,-0.691302\H,0,-1.551078,1.2
 04192,-0.703111\H,0,-1.551152,0.006816,1.394381\\Version=ES64L-G16RevC
 .01\HF=-366.9393169\RMSD=2.124e-09\Dipole=0.1609492,0.0000712,-0.00004
 85\Quadrupole=3.6779459,-1.8389721,-1.8389738,0.0002883,-0.000257,-0.0

 Normal termination of Gaussian 16 at Tue Apr  8 23:58:20 2025.
 Gaussian 16:  ES64L-G16RevC.01  3-Jul-2019

 ----------------------------------------------------------------------
 #t hf aug-cc-pvdz iop(5/13=1,5/36=2,99/5=2) pseudo=read geom=check gue
 ss=(read,tcheck) scf=(maxcycle=1)
 ----------------------------------------------------------------------
 -----
 title
 -----
 Structure from the checkpoint file:  "BDE49_nonexpt_2045_mol1.chk"
 Charge =  0 Multiplicity = 1

                         Standard orientation:
 ---------------------------------------------------------------------
 Center     Atomic      Atomic             Coordinates (Angstroms)
 Number     Number       Type             X           Y           Z
 ---------------------------------------------------------------------
      1         14           0        1.060244   -0.000004   -0.000005
      2          6           0       -0.767531    0.000007    0.000015
      3          6           0       -1.975354    0.000018    0.000016
      4          1           0       -3.039395   -0.000105   -0.000086
      5          1           0        1.551052    1.214105   -0.685862
      6          1           0        1.551078   -1.201025   -0.708506
      7          1           0        1.551152   -0.013072    1.394337
 ---------------------------------------------------------------------

 SCF Done:  E(RHF) =  -367.469918242     A.U. after    2 cycles

 The electronic state is 1-A.
 Alpha  occ. eigenvalues --  -76.23614 -11.41865 -11.38334  -5.57065  -2.21256
 Alpha  occ. eigenvalues --   -2.19305  -2.19305  -1.09947  -0.82692  -0.72610
 Alpha  occ. eigenvalues --   -0.52478  -0.48819  -0.48819  -0.38954  -0.38954
 Alpha virt. eigenvalues --    0.03194   0.05265   0.05826   0.06478   0.06478
 Alpha virt. eigenvalues --    0.09317   0.09317   0.10673   0.10673   0.12149
 Alpha virt. eigenvalues --    0.14416   0.15908   0.17326   0.17326   0.17501

 Mulliken charges:
               1
     1  Si   5.773194
     2  C   -0.059165
     3  C   -1.868340
     4  H    0.924343
     5  H   -1.589997
     6  H   -1.590016
     7  H   -1.590019
 Sum of Mulliken charges =   0.00000

 Dipole moment (field-independent basis, Debye):
    X=             -0.9412    Y=             -0.0002    Z=             -0.0001  Tot=              0.9412

 Test job not archived.
 1\1\GINC-SE419\SP\RHF\Aug-CC-pVDZ\C2H4Si1\OHZDE\08-Apr-2025\0\\#t hf a
 ug-cc-pvdz iop(5/13=1,5/36=2,99/5=2) pseudo=read geom=check guess=(rea
 d,tcheck) scf=(maxcycle=1)\\title\\0,1\Si,0,-1.060244,0.000004,-0.0000
 05\C,0,0.767531,-0.000007,0.000015\C,0,1.975354,-0.000018,0.000016\H,0
 ,3.039395,0.000105,-0.000085\H,0,-1.551052,-1.211015,-0.691302\H,0,-1.
 551078,1.204192,-0.703111\H,0,-1.551152,0.006816,1.394381\\Version=ES6
 4L-G16RevC.01\State=1-A\HF=-367.4699182\RMSD=9.503e-01\Dipole=0.370312
 8,0.0000823,-0.0000536\Quadrupole=4.1251548,-2.0625994,-2.0625553,0.00

 Normal termination of Gaussian 16 at Tue Apr  8 23:58:22 2025.
