 Gaussian 16, Revision C.01,

 ----------------------------------------------------------------------
 #t hf aug-cc-pvdz symm=none int=(grid=ultrafine) guess=(read,tcheck) s
 table=(opt,rrhf)
 ----------------------------------------------------------------------
 -----
 title
 -----
 Symbolic Z-matrix:
 Charge =  0 Multiplicity = 1

 SCF Done:  E(RHF) =  -489.771599352     A.U. after   12 cycles
 Normal termination of Gaussian 16 at Tue Apr  8 22:34:47 2025.
 Gaussian 16:  ES64L-G16RevC.01  3-Jul-2019

 ----------------------------------------------------------------------
 #t hf aug-cc-pvdz iop(5/13=1,5/36=2,99/5=2) pseudo=read geom=check gue
 ss=(read,tcheck) scf=(maxcycle=1)
 ----------------------------------------------------------------------
 -----
 title
 -----
 Structure from the checkpoint file:  "BDE49_expt_1051_mol1.chk"
 Charge =  0 Multiplicity = 1

                         Standard orientation:
 ---------------------------------------------------------------------
 Center     Atomic      Atomic             Coordinates (Angstroms)
 Number     Number       Type             X           Y           Z
 ---------------------------------------------------------------------
      1          6           0        0.908531    0.043087    0.000001
      2          6           0       -1.582031   -0.409195    0.000003
      3          9           0        1.859504    1.000579   -0.000017
      4          9           0        1.126685   -0.735586   -1.086964
      5          9           0        1.126681   -0.735541    1.086999
      6          8           0       -2.809981    0.308956   -0.000009
      7          1           0       -3.529774   -0.328341   -0.000011
      8          6           0       -0.475379    0.638692   -0.000014
      9          1           0       -1.487440   -1.045712   -0.888729
     10          1           0       -1.487440   -1.045682    0.888757
     11          1           0       -0.569031    1.273770    0.883340
     12          1           0       -0.569027    1.273736   -0.883393
 ---------------------------------------------------------------------

 SCF Done:  E(RHF) =  -491.650838255     A.U. after    2 cycles

 The electronic state is 1-A.
 Alpha  occ. eigenvalues --  -29.30469 -29.30412 -29.30352 -21.08711 -11.60687
 Alpha  occ. eigenvalues --  -11.45923 -11.40320  -1.72802  -1.42772  -1.12456
 Alpha  occ. eigenvalues --   -0.93506  -0.88140  -0.86186  -0.72749  -0.66574
 Alpha  occ. eigenvalues --   -0.61193  -0.54497  -0.53612  -0.48031  -0.43471
 Alpha  occ. eigenvalues --   -0.43239  -0.43095  -0.36110  -0.35524  -0.33315
 Alpha  occ. eigenvalues --   -0.29709  -0.25058  -0.24847  -0.21074
 Alpha virt. eigenvalues --    0.03914   0.05856   0.05987   0.06363   0.06679
 Alpha virt. eigenvalues --    0.10641   0.10772   0.12378   0.13007   0.13358
 Alpha virt. eigenvalues --    0.15822   0.17087   0.17869   0.17883   0.18597

 Mulliken charges:
               1
     1  C    0.593044
     2  C   -0.489155
     3  F    0.377172
     4  F    0.321150
     5  F    0.321149
     6  O   -2.739520
     7  H    0.810103
     8  C   -4.636617
     9  H    1.378061
    10  H    1.378058
    11  H    1.343277
    12  H    1.343279
 Sum of Mulliken charges =   0.00000

 Dipole moment (field-independent basis, Debye):
    X=              0.7752    Y=             -1.1550    Z=              0.0000  Tot=              1.3910

 Test job not archived.
 1\1\GINC-SE166\SP\RHF\Aug-CC-pVDZ\C3H5F3O1\OHZDE\08-Apr-2025\0\\#t hf
 aug-cc-pvdz iop(5/13=1,5/36=2,99/5=2) pseudo=read geom=check guess=(re
 ad,tcheck) scf=(maxcycle=1)\\title\\0,1\C,0,0.908531,0.043087,0.000001
 \C,0,-1.582031,-0.409195,0.000003\F,0,1.859504,1.000579,-0.000017\F,0,
 1.126685,-0.735586,-1.086964\F,0,1.126681,-0.735541,1.086999\O,0,-2.80
 9981,0.308956,-0.000009\H,0,-3.529774,-0.328341,-0.000011\C,0,-0.47537
 9,0.638692,-0.000014\H,0,-1.48744,-1.045712,-0.888729\H,0,-1.48744,-1.
 045682,0.888757\H,0,-0.569031,1.27377,0.88334\H,0,-0.569027,1.273736,-

 Normal termination of Gaussian 16 at Tue Apr  8 22:34:52 2025.
