 Gaussian 16, Revision C.01,

 ----------------------------------------------------------------------
 #t hf aug-cc-pvdz symm=none int=(grid=ultrafine) guess=(read,tcheck) s
 table=(opt,rrhf)
 ----------------------------------------------------------------------
 -----
 title
 -----
 Symbolic Z-matrix:
 Charge =  0 Multiplicity = 1

 SCF Done:  E(RHF) =  -1601.88277603     A.U. after   16 cycles
 Normal termination of Gaussian 16 at Wed Apr  9 00:14:26 2025.
 Gaussian 16:  ES64L-G16RevC.01  3-Jul-2019

 ----------------------------------------------------------------------
 #t hf aug-cc-pvdz iop(5/13=1,5/36=2,99/5=2) pseudo=read geom=check gue
 ss=(read,tcheck) scf=(maxcycle=1)
 ----------------------------------------------------------------------
 -----
 title
 -----
 Structure from the checkpoint file:  "BDE49_nonexpt_2434_mol1.chk"
 Charge =  0 Multiplicity = 1

                         Standard orientation:
 ---------------------------------------------------------------------
 Center     Atomic      Atomic             Coordinates (Angstroms)
 Number     Number       Type             X           Y           Z
 ---------------------------------------------------------------------
      1         14           0        0.892183   -1.115960    0.624937
      2         14           0       -1.133213   -1.306956   -0.590099
      3          6           0       -2.341671    0.064030   -0.022970
      4          1           0       -1.837629   -2.603597   -0.375543
      5          1           0       -0.949952   -1.117311   -2.046678
      6         16           0       -1.827007    1.614562    0.146322
      7          8           0       -3.621091   -0.233893    0.236961
      8          6           0        1.942437    0.348532   -0.012453
      9          1           0        1.652295   -2.370510    0.488190
     10          1           0        0.523801   -0.877679    2.040731
     11         16           0        3.560961    0.129324   -0.116394
     12          8           0        1.373946    1.508454   -0.331386
     13          1           0       -3.781388   -1.177627    0.095177
     14          1           0        0.396583    1.493519   -0.200522
 ---------------------------------------------------------------------

 SCF Done:  E(RHF) =  -1603.59434882     A.U. after    2 cycles

 The electronic state is 1-A.
 Alpha  occ. eigenvalues --  -76.26359 -76.25507 -75.69253 -75.65988 -21.17491
 Alpha  occ. eigenvalues --  -21.12785 -13.16566 -13.13783 -13.09038 -13.01947
 Alpha  occ. eigenvalues --  -13.00883 -12.97728 -11.51141 -11.48209  -8.03497
 Alpha  occ. eigenvalues --   -8.00185  -5.59956  -5.59035  -2.23639  -2.22763
 Alpha  occ. eigenvalues --   -2.22204  -2.21763  -2.21237  -2.20124  -1.82278
 Alpha  occ. eigenvalues --   -1.78304  -1.18114  -1.14856  -0.89618  -0.84766
 Alpha  occ. eigenvalues --   -0.79928  -0.75106  -0.65058  -0.62435  -0.56025
 Alpha  occ. eigenvalues --   -0.54921  -0.52927  -0.51161  -0.50015  -0.48554
 Alpha  occ. eigenvalues --   -0.43899  -0.40508  -0.37507  -0.30352  -0.27261
 Alpha  occ. eigenvalues --   -0.25747  -0.21436
 Alpha virt. eigenvalues --    0.02164   0.03634   0.04136   0.04374   0.04992
 Alpha virt. eigenvalues --    0.06158   0.06645   0.06715   0.07002   0.07587
 Alpha virt. eigenvalues --    0.07964   0.08633   0.08675   0.09875   0.10366

 Mulliken charges:
               1
     1  Si   4.724017
     2  Si   4.418081
     3  C   -0.162244
     4  H   -1.756243
     5  H   -1.937449
     6  S    0.827887
     7  O   -3.034327
     8  C   -0.549287
     9  H   -1.781385
    10  H   -1.632670
    11  S    1.218469
    12  O   -3.342789
    13  H    1.163465
    14  H    1.844475
 Sum of Mulliken charges =  -0.00000

 Dipole moment (field-independent basis, Debye):
    X=             -1.1009    Y=              0.4518    Z=              0.1747  Tot=              1.2027

 Test job not archived.
 1\1\GINC-SE222\SP\RHF\Aug-CC-pVDZ\C2H6O2S2Si2\OHZDE\09-Apr-2025\0\\#t
 hf aug-cc-pvdz iop(5/13=1,5/36=2,99/5=2) pseudo=read geom=check guess=
 (read,tcheck) scf=(maxcycle=1)\\title\\0,1\Si,0,0.892183,-1.11596,0.62
 4937\Si,0,-1.133213,-1.306956,-0.590099\C,0,-2.341671,0.06403,-0.02297
 \H,0,-1.837629,-2.603597,-0.375543\H,0,-0.949952,-1.117311,-2.046678\S
 ,0,-1.827007,1.614562,0.146322\O,0,-3.621091,-0.233893,0.236961\C,0,1.
 942437,0.348532,-0.012453\H,0,1.652295,-2.37051,0.48819\H,0,0.523801,-
 0.877679,2.040731\S,0,3.560961,0.129324,-0.116394\O,0,1.373946,1.50845

 Normal termination of Gaussian 16 at Wed Apr  9 00:14:33 2025.
