 Gaussian 16, Revision C.01,

 ----------------------------------------------------------------------
 #t hf aug-cc-pvdz symm=none int=(grid=ultrafine) guess=(read,tcheck) s
 table=(opt,rrhf)
 ----------------------------------------------------------------------
 -----
 title
 -----
 Symbolic Z-matrix:
 Charge =  0 Multiplicity = 1

 SCF Done:  E(RHF) =  -343.473392090     A.U. after   16 cycles
 Normal termination of Gaussian 16 at Tue Apr  8 23:03:14 2025.
 Gaussian 16:  ES64L-G16RevC.01  3-Jul-2019

 ----------------------------------------------------------------------
 #t hf aug-cc-pvdz iop(5/13=1,5/36=2,99/5=2) pseudo=read geom=check gue
 ss=(read,tcheck) scf=(maxcycle=1)
 ----------------------------------------------------------------------
 -----
 title
 -----
 Structure from the checkpoint file:  "BDE49_expt_204_mol1.chk"
 Charge =  0 Multiplicity = 1

                         Standard orientation:
 ---------------------------------------------------------------------
 Center     Atomic      Atomic             Coordinates (Angstroms)
 Number     Number       Type             X           Y           Z
 ---------------------------------------------------------------------
      1          6           0        1.992705    0.465242   -0.000005
      2          8           0        2.842896   -0.394135    0.000005
      3          6           0        0.532746    0.212005   -0.000002
      4          1           0        2.271347    1.542040    0.000008
      5          6           0        0.042659   -1.100174   -0.000001
      6          6           0       -1.326468   -1.327579    0.000001
      7          6           0       -2.213920   -0.247810    0.000001
      8          6           0       -1.732020    1.059972   -0.000000
      9          6           0       -0.358978    1.288660   -0.000002
     10          1           0        0.027352    2.303400   -0.000003
     11          1           0       -3.283067   -0.428718    0.000003
     12          1           0       -2.423649    1.894453   -0.000000
     13          1           0        0.753481   -1.918106   -0.000001
     14          1           0       -1.708973   -2.341879    0.000002
 ---------------------------------------------------------------------

 SCF Done:  E(RHF) =  -345.045874827     A.U. after    2 cycles

 The electronic state is 1-A.
 Alpha  occ. eigenvalues --  -21.06041 -11.52685 -11.48724 -11.44985 -11.44087
 Alpha  occ. eigenvalues --  -11.42200 -11.42014 -11.37878  -1.70831  -1.35631
 Alpha  occ. eigenvalues --   -1.13136  -1.10811  -0.93388  -0.88059  -0.81376
 Alpha  occ. eigenvalues --   -0.72411  -0.67614  -0.61744  -0.59747  -0.57546
 Alpha  occ. eigenvalues --   -0.53549  -0.52476  -0.46754  -0.45547  -0.45528
 Alpha  occ. eigenvalues --   -0.34528  -0.32767  -0.29646
 Alpha virt. eigenvalues --    0.02999   0.04681   0.04856   0.05934   0.06893
 Alpha virt. eigenvalues --    0.07426   0.08346   0.09941   0.09993   0.11496
 Alpha virt. eigenvalues --    0.11949   0.12822   0.13585   0.13662   0.13746

 Mulliken charges:
               1
     1  C   -0.356351
     2  O   -3.173763
     3  C    3.799693
     4  H    1.254079
     5  C   -2.295459
     6  C   -1.287458
     7  C   -2.803587
     8  C   -1.828300
     9  C   -1.259050
    10  H    1.745326
    11  H    1.498437
    12  H    1.470322
    13  H    1.745391
    14  H    1.490718
 Sum of Mulliken charges =   0.00000

 Dipole moment (field-independent basis, Debye):
    X=             -1.8482    Y=              0.3523    Z=              0.0000  Tot=              1.8815

 Test job not archived.
 1\1\GINC-SE094\SP\RHF\Aug-CC-pVDZ\C7H6O1\OHZDE\08-Apr-2025\0\\#t hf au
 g-cc-pvdz iop(5/13=1,5/36=2,99/5=2) pseudo=read geom=check guess=(read
 ,tcheck) scf=(maxcycle=1)\\title\\0,1\C,0,1.992705,0.465242,-0.000005\
 O,0,2.842896,-0.394135,0.000005\C,0,0.532746,0.212005,-0.000002\H,0,2.
 271347,1.54204,0.000008\C,0,0.042659,-1.100174,-0.000001\C,0,-1.326468
 ,-1.327579,0.000001\C,0,-2.21392,-0.24781,0.000001\C,0,-1.73202,1.0599
 72,0.\C,0,-0.358978,1.28866,-0.000002\H,0,0.027352,2.3034,-0.000003\H,
 0,-3.283067,-0.428718,0.000003\H,0,-2.423649,1.894453,0.\H,0,0.753481,

 Normal termination of Gaussian 16 at Tue Apr  8 23:03:19 2025.
