 Gaussian 16, Revision C.01,

 ----------------------------------------------------------------------
 #t hf aug-cc-pvdz symm=none int=(grid=ultrafine) guess=(read,tcheck) s
 table=(opt,rrhf)
 ----------------------------------------------------------------------
 -----
 title
 -----
 Symbolic Z-matrix:
 Charge =  0 Multiplicity = 1

 SCF Done:  E(RHF) =  -1021.68296262     A.U. after   14 cycles
 Normal termination of Gaussian 16 at Wed Apr  9 00:40:06 2025.
 Gaussian 16:  ES64L-G16RevC.01  3-Jul-2019

 ----------------------------------------------------------------------
 #t hf aug-cc-pvdz iop(5/13=1,5/36=2,99/5=2) pseudo=read geom=check gue
 ss=(read,tcheck) scf=(maxcycle=1)
 ----------------------------------------------------------------------
 -----
 title
 -----
 Structure from the checkpoint file:  "BDE49_nonexpt_627_mol1.chk"
 Charge =  0 Multiplicity = 1

                         Standard orientation:
 ---------------------------------------------------------------------
 Center     Atomic      Atomic             Coordinates (Angstroms)
 Number     Number       Type             X           Y           Z
 ---------------------------------------------------------------------
      1          8           0        1.109572    0.597697   -0.504327
      2          5           0        2.198623   -0.194406   -0.074056
      3          8           0        2.127869   -1.519675    0.154231
      4          8           0        3.359275    0.484991    0.088226
      5          8           0       -0.083041   -0.232193   -0.679169
      6          6           0       -1.074238    0.319938    0.096887
      7         17           0       -2.491385   -0.722639   -0.166500
      8          9           0       -1.350638    1.576446   -0.256372
      9          9           0       -0.743228    0.328725    1.397003
     10          1           0        1.252466   -1.880681   -0.015607
     11          1           0        3.288777    1.424845   -0.102307
 ---------------------------------------------------------------------

 SCF Done:  E(RHF) =  -1024.06113258     A.U. after    2 cycles

 The electronic state is 1-A.
 Alpha  occ. eigenvalues --  -99.93574 -29.33764 -29.33665 -21.17139 -21.12634
 Alpha  occ. eigenvalues --  -21.07746 -21.07640 -11.62545 -10.51073  -9.70917
 Alpha  occ. eigenvalues --   -9.70047  -9.69974  -7.69293  -2.05790  -1.84036
 Alpha  occ. eigenvalues --   -1.69277  -1.57927  -1.38199  -1.20634  -0.92547
 Alpha  occ. eigenvalues --   -0.83250  -0.78190  -0.74307  -0.66371  -0.61020
 Alpha  occ. eigenvalues --   -0.58503  -0.56251  -0.55919  -0.54132  -0.48587
 Alpha  occ. eigenvalues --   -0.48206  -0.45195  -0.42642  -0.39439  -0.38572
 Alpha  occ. eigenvalues --   -0.36337  -0.34642  -0.33309  -0.31288  -0.25346
 Alpha virt. eigenvalues --    0.03431   0.04834   0.05048   0.05851   0.06894
 Alpha virt. eigenvalues --    0.07172   0.08337   0.10265   0.11040   0.12116
 Alpha virt. eigenvalues --    0.13239   0.14789   0.16113   0.16857   0.18726

 Mulliken charges:
               1
     1  O   -2.816986
     2  B    8.084107
     3  O   -3.914040
     4  O   -3.660495
     5  O   -1.509291
     6  C    0.631726
     7  Cl  -0.481514
     8  F    0.817764
     9  F    0.648223
    10  H    1.230042
    11  H    0.970463
 Sum of Mulliken charges =   0.00000

 Dipole moment (field-independent basis, Debye):
    X=              0.7638    Y=              3.8165    Z=              1.6856  Tot=              4.2415

 Test job not archived.
 1\1\GINC-SE462\SP\RHF\Aug-CC-pVDZ\C1H2B1Cl1F2O4\OHZDE\09-Apr-2025\0\\#
 t hf aug-cc-pvdz iop(5/13=1,5/36=2,99/5=2) pseudo=read geom=check gues
 s=(read,tcheck) scf=(maxcycle=1)\\title\\0,1\O,0,1.109572,0.597697,-0.
 504327\B,0,2.198623,-0.194406,-0.074056\O,0,2.127869,-1.519675,0.15423
 1\O,0,3.359275,0.484991,0.088226\O,0,-0.083041,-0.232193,-0.679169\C,0
 ,-1.074238,0.319938,0.096887\Cl,0,-2.491385,-0.722639,-0.1665\F,0,-1.3
 50638,1.576446,-0.256372\F,0,-0.743228,0.328725,1.397003\H,0,1.252466,
 -1.880681,-0.015607\H,0,3.288777,1.424845,-0.102307\\Version=ES64L-G16

 Normal termination of Gaussian 16 at Wed Apr  9 00:40:12 2025.
