 Gaussian 16, Revision C.01,

 ----------------------------------------------------------------------
 #t hf aug-cc-pvdz symm=none int=(grid=ultrafine) guess=(read,tcheck) s
 table=(opt,rrhf)
 ----------------------------------------------------------------------
 -----
 title
 -----
 Symbolic Z-matrix:
 Charge =  0 Multiplicity = 1

 SCF Done:  E(RHF) =  -528.175565147     A.U. after   11 cycles
 Normal termination of Gaussian 16 at Tue Apr  8 23:50:17 2025.
 Gaussian 16:  ES64L-G16RevC.01  3-Jul-2019

 ----------------------------------------------------------------------
 #t hf aug-cc-pvdz iop(5/13=1,5/36=2,99/5=2) pseudo=read geom=check gue
 ss=(read,tcheck) scf=(maxcycle=1)
 ----------------------------------------------------------------------
 -----
 title
 -----
 Structure from the checkpoint file:  "BDE49_nonexpt_1841_mol1.chk"
 Charge =  0 Multiplicity = 1

                         Standard orientation:
 ---------------------------------------------------------------------
 Center     Atomic      Atomic             Coordinates (Angstroms)
 Number     Number       Type             X           Y           Z
 ---------------------------------------------------------------------
      1          6           0        1.689965    0.000000   -0.166074
      2         14           0       -0.085720    0.000000    0.341787
      3          9           0       -0.822821   -1.284805   -0.265058
      4          9           0       -0.822821    1.284805   -0.265058
      5          1           0       -0.316549    0.000000    1.793742
      6          1           0        1.785354   -0.000002   -1.255383
      7          1           0        2.201132   -0.885705    0.222053
      8          1           0        2.201131    0.885707    0.222050
 ---------------------------------------------------------------------

 SCF Done:  E(RHF) =  -529.221921418     A.U. after    2 cycles

 The electronic state is 1-A.
 Alpha  occ. eigenvalues --  -76.27649 -29.27348 -29.27347 -11.36825  -5.63283
 Alpha  occ. eigenvalues --   -2.28029  -2.26857  -2.24064  -1.08014  -0.90477
 Alpha  occ. eigenvalues --   -0.69415  -0.60343  -0.57620  -0.55389  -0.50328
 Alpha  occ. eigenvalues --   -0.40612  -0.34427  -0.33638  -0.33516  -0.32538
 Alpha  occ. eigenvalues --   -0.28084
 Alpha virt. eigenvalues --    0.03456   0.05663   0.05950   0.06444   0.08153
 Alpha virt. eigenvalues --    0.09133   0.09138   0.14411   0.15226   0.16810
 Alpha virt. eigenvalues --    0.17134   0.19087   0.19451   0.20271   0.24968

 Mulliken charges:
               1
     1  C   -4.879932
     2  Si   5.277163
     3  F   -0.997541
     4  F   -0.997541
     5  H   -2.054012
     6  H    1.199814
     7  H    1.226025
     8  H    1.226025
 Sum of Mulliken charges =  -0.00000

 Dipole moment (field-independent basis, Debye):
    X=             -0.9812    Y=             -0.0000    Z=             -1.6322  Tot=              1.9044

 Test job not archived.
 1\1\GINC-SE108\SP\RHF\Aug-CC-pVDZ\C1H4F2Si1\OHZDE\08-Apr-2025\0\\#t hf
  aug-cc-pvdz iop(5/13=1,5/36=2,99/5=2) pseudo=read geom=check guess=(r
 ead,tcheck) scf=(maxcycle=1)\\title\\0,1\C,0,1.689965,0.,-0.166074\Si,
 0,-0.08572,0.,0.341787\F,0,-0.822821,-1.284805,-0.265058\F,0,-0.822821
 ,1.284805,-0.265058\H,0,-0.316549,0.,1.793742\H,0,1.785354,-0.000002,-
 1.255383\H,0,2.201132,-0.885705,0.222053\H,0,2.201131,0.885707,0.22205
 \\Version=ES64L-G16RevC.01\State=1-A\HF=-529.2219214\RMSD=8.333e-02\Di
 pole=-0.3860152,0.,-0.6421419\Quadrupole=0.051941,1.6722914,-1.7242324

 Normal termination of Gaussian 16 at Tue Apr  8 23:50:19 2025.
