 Gaussian 16, Revision C.01,

 ----------------------------------------------------------------------
 #t hf aug-cc-pvdz symm=none int=(grid=ultrafine) guess=(read,tcheck) s
 table=(opt,rrhf)
 ----------------------------------------------------------------------
 -----
 title
 -----
 Symbolic Z-matrix:
 Charge =  0 Multiplicity = 1

 SCF Done:  E(RHF) =  -1239.83697513     A.U. after   18 cycles
 Normal termination of Gaussian 16 at Wed Apr  9 00:23:37 2025.
 Gaussian 16:  ES64L-G16RevC.01  3-Jul-2019

 ----------------------------------------------------------------------
 #t hf aug-cc-pvdz iop(5/13=1,5/36=2,99/5=2) pseudo=read geom=check gue
 ss=(read,tcheck) scf=(maxcycle=1)
 ----------------------------------------------------------------------
 -----
 title
 -----
 Structure from the checkpoint file:  "BDE49_nonexpt_2605_mol1.chk"
 Charge =  0 Multiplicity = 1

                         Standard orientation:
 ---------------------------------------------------------------------
 Center     Atomic      Atomic             Coordinates (Angstroms)
 Number     Number       Type             X           Y           Z
 ---------------------------------------------------------------------
      1         17           0       -2.904539   -0.844847    0.898147
      2          6           0       -0.588709    0.698375   -0.342768
      3         16           0       -2.143431    0.039169   -0.868413
      4          6           0        0.579432   -0.125066   -0.207208
      5          6           0        0.572321   -1.529487   -0.388828
      6          1           0       -0.357323   -2.017931   -0.649085
      7          6           0        1.724595   -2.264433   -0.237445
      8          1           0        1.698663   -3.338687   -0.380406
      9          6           0        2.942396   -1.635775    0.102751
     10          1           0        3.841313   -2.230203    0.218853
     11          6           0        2.984449   -0.275645    0.284292
     12          1           0        3.915225    0.217242    0.544099
     13          6           0        1.814738    0.513688    0.136942
     14          6           0        1.846395    1.920644    0.319017
     15          1           0        2.791130    2.388688    0.575343
     16          6           0        0.712256    2.682406    0.179319
     17          1           0        0.749061    3.755652    0.323728
     18          6           0       -0.513333    2.065382   -0.141513
     19          1           0       -1.413247    2.660393   -0.233776
 ---------------------------------------------------------------------

 SCF Done:  E(RHF) =  -1242.12906997     A.U. after    2 cycles

 The electronic state is 1-A.
 Alpha  occ. eigenvalues --  -99.89625 -75.74382 -13.23570 -13.15255 -13.10126
 Alpha  occ. eigenvalues --  -11.54030 -11.51113 -11.46566 -11.46292 -11.44678
 Alpha  occ. eigenvalues --  -11.44243 -11.42853 -11.42359 -11.40825 -11.37970
 Alpha  occ. eigenvalues --  -10.46645  -9.66493  -9.65854  -9.65796  -8.08038
 Alpha  occ. eigenvalues --   -1.42166  -1.31709  -1.25343  -1.17831  -1.09664
 Alpha  occ. eigenvalues --   -1.09029  -1.01843  -0.90314  -0.89008  -0.83811
 Alpha  occ. eigenvalues --   -0.73967  -0.70790  -0.68835  -0.62655  -0.59942
 Alpha  occ. eigenvalues --   -0.58234  -0.56634  -0.56250  -0.55119  -0.53544
 Alpha  occ. eigenvalues --   -0.53331  -0.51612  -0.47154  -0.45823  -0.43909
 Alpha  occ. eigenvalues --   -0.40135  -0.38301  -0.32840  -0.29655  -0.25466
 Alpha virt. eigenvalues --    0.02678   0.03935   0.04516   0.04764   0.05438
 Alpha virt. eigenvalues --    0.06384   0.06480   0.06945   0.07624   0.08166
 Alpha virt. eigenvalues --    0.09783   0.10887   0.11010   0.11501   0.11918

 Mulliken charges:
               1
     1  Cl  -0.318629
     2  C    5.605431
     3  S    0.121316
     4  C    5.778157
     5  C   -1.485029
     6  H    2.101731
     7  C   -3.486964
     8  H    1.501828
     9  C   -4.096060
    10  H    1.479132
    11  C   -2.942869
    12  H    1.682602
    13  C    3.128091
    14  C   -4.026355
    15  H    1.683956
    16  C   -3.091773
    17  H    1.550285
    18  C   -6.945894
    19  H    1.761044
 Sum of Mulliken charges =  -0.00000

 Dipole moment (field-independent basis, Debye):
    X=              2.8938    Y=              1.8512    Z=             -2.4683  Tot=              4.2301

 Test job not archived.
 1\1\GINC-SE125\SP\RHF\Aug-CC-pVDZ\C10H7Cl1S1\OHZDE\09-Apr-2025\0\\#t h
 f aug-cc-pvdz iop(5/13=1,5/36=2,99/5=2) pseudo=read geom=check guess=(
 read,tcheck) scf=(maxcycle=1)\\title\\0,1\Cl,0,-2.904539,-0.844847,0.8
 98147\C,0,-0.588709,0.698375,-0.342768\S,0,-2.143431,0.039169,-0.86841
 3\C,0,0.579432,-0.125066,-0.207208\C,0,0.572321,-1.529487,-0.388828\H,
 0,-0.357323,-2.017931,-0.649085\C,0,1.724595,-2.264433,-0.237445\H,0,1
 .698663,-3.338687,-0.380406\C,0,2.942396,-1.635775,0.102751\H,0,3.8413
 13,-2.230203,0.218853\C,0,2.984449,-0.275645,0.284292\H,0,3.915225,0.2

 Normal termination of Gaussian 16 at Wed Apr  9 00:23:54 2025.
