 Gaussian 16, Revision C.01,

 ----------------------------------------------------------------------
 #t hf aug-cc-pvdz symm=none int=(grid=ultrafine) guess=(read,tcheck) s
 table=(opt,rrhf)
 ----------------------------------------------------------------------
 -----
 title
 -----
 Symbolic Z-matrix:
 Charge =  0 Multiplicity = 1

 SCF Done:  E(RHF) =  -912.477898525     A.U. after   17 cycles
 Normal termination of Gaussian 16 at Wed Apr  9 00:47:10 2025.
 Gaussian 16:  ES64L-G16RevC.01  3-Jul-2019

 ----------------------------------------------------------------------
 #t hf aug-cc-pvdz iop(5/13=1,5/36=2,99/5=2) pseudo=read geom=check gue
 ss=(read,tcheck) scf=(maxcycle=1)
 ----------------------------------------------------------------------
 -----
 title
 -----
 Structure from the checkpoint file:  "BDE49_nonexpt_798_mol1.chk"
 Charge =  0 Multiplicity = 1

                         Standard orientation:
 ---------------------------------------------------------------------
 Center     Atomic      Atomic             Coordinates (Angstroms)
 Number     Number       Type             X           Y           Z
 ---------------------------------------------------------------------
      1         14           0        0.086241   -0.161681    0.500305
      2          7           0        1.033334   -1.176497   -0.756295
      3          5           0       -1.896392   -0.230994    0.045105
      4          7           0        0.692370    1.559130    0.002184
      5          6           0        0.784233   -0.494934    2.177281
      6          8           0       -0.144986    2.367354   -0.422411
      7          8           0       -2.522220    0.826300   -0.505843
      8          8           0        1.730633   -2.107402   -0.374306
      9          8           0       -2.530919   -1.391818    0.337339
     10          8           0        0.855005   -0.858144   -1.929781
     11          8           0        1.875888    1.816672    0.144616
     12          1           0        0.576857   -1.530959    2.456157
     13          1           0        0.327315    0.163327    2.921263
     14          1           0        1.864259   -0.338144    2.175747
     15          1           0       -1.922474    1.578802   -0.649784
     16          1           0       -3.463894   -1.387052    0.085005
 ---------------------------------------------------------------------

 SCF Done:  E(RHF) =  -915.219446360     A.U. after    2 cycles

 The electronic state is 1-A.
 Alpha  occ. eigenvalues --  -76.31738 -21.12894 -21.11798 -21.11690 -21.11255
 Alpha  occ. eigenvalues --  -21.09838 -21.08487 -15.99018 -15.98384 -11.40670
 Alpha  occ. eigenvalues --   -7.69298  -5.65787  -2.29914  -2.29647  -2.28952
 Alpha  occ. eigenvalues --   -2.00161  -1.99207  -1.84385  -1.71172  -1.70134
 Alpha  occ. eigenvalues --   -1.69385  -1.12080  -1.03676  -0.98030  -0.80925
 Alpha  occ. eigenvalues --   -0.76733  -0.71844  -0.68825  -0.67299  -0.65922
 Alpha  occ. eigenvalues --   -0.63493  -0.62290  -0.61725  -0.60433  -0.60011
 Alpha  occ. eigenvalues --   -0.54961  -0.52634  -0.46724  -0.40180  -0.39572
 Alpha  occ. eigenvalues --   -0.35610  -0.34369  -0.33890  -0.33393  -0.32652
 Alpha  occ. eigenvalues --   -0.32441
 Alpha virt. eigenvalues --    0.02126   0.03210   0.04709   0.05421   0.06402
 Alpha virt. eigenvalues --    0.06780   0.07240   0.07651   0.08460   0.08603
 Alpha virt. eigenvalues --    0.09172   0.09366   0.09899   0.10363   0.12633

 Mulliken charges:
               1
     1  Si   4.176171
     2  N    3.276807
     3  B    6.268149
     4  N    2.728148
     5  C   -5.500928
     6  O   -2.195299
     7  O   -4.452312
     8  O   -2.246499
     9  O   -4.070890
    10  O   -2.347558
    11  O   -2.359420
    12  H    1.311482
    13  H    1.157581
    14  H    1.206292
    15  H    1.810204
    16  H    1.238071
 Sum of Mulliken charges =  -0.00000

 Dipole moment (field-independent basis, Debye):
    X=             -1.8156    Y=             -0.3743    Z=              2.5347  Tot=              3.1403

 Test job not archived.
 1\1\GINC-SE459\SP\RHF\Aug-CC-pVDZ\C1H5B1N2O6Si1\OHZDE\09-Apr-2025\0\\#
 t hf aug-cc-pvdz iop(5/13=1,5/36=2,99/5=2) pseudo=read geom=check gues
 s=(read,tcheck) scf=(maxcycle=1)\\title\\0,1\Si,0,0.086241,-0.161681,0
 .500305\N,0,1.033334,-1.176497,-0.756295\B,0,-1.896392,-0.230994,0.045
 105\N,0,0.69237,1.55913,0.002184\C,0,0.784233,-0.494934,2.177281\O,0,-
 0.144986,2.367354,-0.422411\O,0,-2.52222,0.8263,-0.505843\O,0,1.730633
 ,-2.107402,-0.374306\O,0,-2.530919,-1.391818,0.337339\O,0,0.855005,-0.
 858144,-1.929781\O,0,1.875888,1.816672,0.144616\H,0,0.576857,-1.530959

 Normal termination of Gaussian 16 at Wed Apr  9 00:47:18 2025.
