 Gaussian 16, Revision C.01,

 ----------------------------------------------------------------------
 #t hf aug-cc-pvdz symm=none int=(grid=ultrafine) guess=(read,tcheck) s
 table=opt
 ----------------------------------------------------------------------
 -----
 title
 -----
 Symbolic Z-matrix:
 Charge =  0 Multiplicity = 2

 SCF Done:  E(UHF) =  -445.236217325     A.U. after   18 cycles
 Normal termination of Gaussian 16 at Tue Apr  8 23:38:13 2025.
 Gaussian 16:  ES64L-G16RevC.01  3-Jul-2019

 ----------------------------------------------------------------------
 #t hf aug-cc-pvdz iop(5/13=1,5/36=2,99/5=2) pseudo=read geom=check gue
 ss=(read,tcheck) scf=(maxcycle=1)
 ----------------------------------------------------------------------
 -----
 title
 -----
 Structure from the checkpoint file:  "BDE49_nonexpt_1547_mol2.chk"
 Charge =  0 Multiplicity = 2

                         Standard orientation:
 ---------------------------------------------------------------------
 Center     Atomic      Atomic             Coordinates (Angstroms)
 Number     Number       Type             X           Y           Z
 ---------------------------------------------------------------------
      1          6           0        1.125618    1.398472   -0.041210
      2          5           0        0.406981    0.001408    0.018704
      3          1           0        1.336804    1.679401    1.003263
      4          1           0        0.534278    2.213454   -0.465032
      5          1           0        2.097314    1.358665   -0.545309
      6          6           0        1.247624   -1.326297    0.042130
      7          1           0        1.441014   -1.591883   -1.010110
      8          1           0        0.748135   -2.189435    0.488832
      9          1           0        2.232216   -1.200476    0.504204
     10         15           0       -1.525844   -0.118614   -0.051285
     11          1           0       -1.776462    1.069399    0.694386
 ---------------------------------------------------------------------

 SCF Done:  E(UHF) =  -445.943799706     A.U. after    2 cycles

 The electronic state is 2-A.
 Alpha  occ. eigenvalues -- -105.16686 -11.33798 -11.33603  -7.60880  -2.74131
 Alpha  occ. eigenvalues --   -1.47813  -1.44226  -1.42267  -1.11782  -1.01191
 Alpha  occ. eigenvalues --   -0.73924  -0.61425  -0.56321  -0.54511  -0.54204
 Alpha  occ. eigenvalues --   -0.52977  -0.42161  -0.18592  -0.03932  -0.01481
 Alpha virt. eigenvalues --    0.03309   0.04737   0.05127   0.06174   0.07802
 Alpha virt. eigenvalues --    0.08045   0.08422   0.09190   0.09666   0.09783
 Alpha virt. eigenvalues --    0.10054   0.11668   0.12732   0.14226   0.15582

  Beta  occ. eigenvalues -- -105.16110 -11.33765 -11.33574  -7.60959  -2.72340
  Beta  occ. eigenvalues --   -1.45921  -1.41092  -1.21583  -1.11581  -1.01067
  Beta  occ. eigenvalues --   -0.70619  -0.60682  -0.56153  -0.54378  -0.53627
  Beta  occ. eigenvalues --   -0.52115  -0.42003  -0.18172  -0.02743
  Beta virt. eigenvalues --    0.03348   0.04122   0.04792   0.05978   0.07468
  Beta virt. eigenvalues --    0.07875   0.08228   0.08580   0.09332   0.09831
  Beta virt. eigenvalues --    0.10280   0.11594   0.11957   0.13479   0.14978

 Mulliken charges and spin densities:
               1          2
     1  C   -5.248957  -0.072890
     2  B    1.324777   0.115971
     3  H    1.298199   0.040358
     4  H    1.424333   0.015301
     5  H    1.411816  -0.077034
     6  C   -5.381190  -0.100434
     7  H    1.216021   0.012834
     8  H    1.381092   0.004272
     9  H    1.472527  -0.032759
    10  P    2.085981   1.282928
    11  H   -0.984599  -0.188548
 Sum of Mulliken charges =   0.00000   1.00000

 Dipole moment (field-independent basis, Debye):
    X=             -4.4167    Y=             -2.4858    Z=             -2.2962  Tot=              5.5641
                          Isotropic Fermi Contact Couplings
        Atom                 a.u.       MegaHertz       Gauss      10(-4) cm-1
     1  C(13)              0.01585      17.81882       6.35820       5.94372
     2  B(11)             -0.00607      -8.70276      -3.10536      -2.90293
     3  H(1)               0.00328      14.67131       5.23509       4.89382
     4  H(1)               0.00155       6.91145       2.46618       2.30541
     5  H(1)               0.00001       0.02486       0.00887       0.00829
     6  C(13)              0.00626       7.03451       2.51009       2.34646
     7  H(1)               0.00347      15.51197       5.53506       5.17424
     8  H(1)               0.00124       5.55689       1.98283       1.85358

 Normal termination of Gaussian 16 at Tue Apr  8 23:38:17 2025.
