 Gaussian 16, Revision C.01,

 ----------------------------------------------------------------------
 #t hf aug-cc-pvdz symm=none int=(grid=ultrafine) guess=(read,tcheck) s
 table=opt
 ----------------------------------------------------------------------
 -----
 title
 -----
 Symbolic Z-matrix:
 Charge =  0 Multiplicity = 2

 SCF Done:  E(UHF) =  -1667.56828395     A.U. after   14 cycles
 Normal termination of Gaussian 16 at Tue Apr  8 22:59:38 2025.
 Gaussian 16:  ES64L-G16RevC.01  3-Jul-2019

 ----------------------------------------------------------------------
 #t hf aug-cc-pvdz iop(5/13=1,5/36=2,99/5=2) pseudo=read geom=check gue
 ss=(read,tcheck) scf=(maxcycle=1)
 ----------------------------------------------------------------------
 -----
 title
 -----
 Structure from the checkpoint file:  "BDE49_expt_1945_mol2.chk"
 Charge =  0 Multiplicity = 2

                         Standard orientation:
 ---------------------------------------------------------------------
 Center     Atomic      Atomic             Coordinates (Angstroms)
 Number     Number       Type             X           Y           Z
 ---------------------------------------------------------------------
      1         14           0        0.000000   -0.000058    0.542925
      2         17           0        1.690138   -0.975572   -0.149035
      3         17           0       -1.690018   -0.975778   -0.149035
      4         17           0       -0.000119    1.951398   -0.149044
 ---------------------------------------------------------------------

 SCF Done:  E(UHF) =  -1668.41925112     A.U. after    2 cycles

 The electronic state is 2-A.
 Alpha  occ. eigenvalues --  -99.91656 -99.91655 -99.91653 -76.36585 -10.49100
 Alpha  occ. eigenvalues --  -10.49100 -10.49032  -9.69040  -9.69040  -9.69026
 Alpha  occ. eigenvalues --   -9.68242  -9.68241  -9.68212  -9.68172  -9.68172
 Alpha  occ. eigenvalues --   -9.68119  -5.69973  -2.31333  -2.31332  -2.28972
 Alpha  occ. eigenvalues --   -1.35088  -1.31064  -1.31063  -0.80992  -0.63037
 Alpha  occ. eigenvalues --   -0.63036  -0.59737  -0.57526  -0.57525  -0.54376
 Alpha  occ. eigenvalues --   -0.54375  -0.52667  -0.36491
 Alpha virt. eigenvalues --    0.04727   0.05117   0.05227   0.05228   0.07514
 Alpha virt. eigenvalues --    0.09989   0.09990   0.12429   0.12429   0.13261
 Alpha virt. eigenvalues --    0.14251   0.14252   0.15641   0.17723   0.17967

  Beta  occ. eigenvalues --  -99.91517 -99.91517 -99.91514 -76.35951 -10.48948
  Beta  occ. eigenvalues --  -10.48948 -10.48879  -9.68647  -9.68647  -9.68601
  Beta  occ. eigenvalues --   -9.68160  -9.68160  -9.68046  -9.67980  -9.67926
  Beta  occ. eigenvalues --   -9.67926  -5.68882  -2.30688  -2.30687  -2.25712
  Beta  occ. eigenvalues --   -1.33832  -1.29924  -1.29923  -0.77297  -0.61801
  Beta  occ. eigenvalues --   -0.61800  -0.58157  -0.56137  -0.56136  -0.54065
  Beta  occ. eigenvalues --   -0.54064  -0.52449
  Beta virt. eigenvalues --   -0.02940   0.05566   0.05595   0.05595   0.05962
  Beta virt. eigenvalues --    0.08058   0.11366   0.11367   0.12945   0.12945
  Beta virt. eigenvalues --    0.13742   0.14708   0.14708   0.15742   0.17773

 Mulliken charges and spin densities:
               1          2
     1  Si   2.054454   0.795440
     2  Cl  -0.684819   0.068189
     3  Cl  -0.684819   0.068189
     4  Cl  -0.684816   0.068182
 Sum of Mulliken charges =  -0.00000   1.00000

 Dipole moment (field-independent basis, Debye):
    X=             -0.0000    Y=             -0.0003    Z=              1.3518  Tot=              1.3518
                          Isotropic Fermi Contact Couplings
        Atom                 a.u.       MegaHertz       Gauss      10(-4) cm-1
     1  Si(29)             1.14268   -1015.52746    -362.36545    -338.74350
     2  Cl(35)             0.10385      45.53534      16.24814      15.18895
     3  Cl(35)             0.10385      45.53534      16.24814      15.18895
     4  Cl(35)             0.10383      45.52749      16.24534      15.18634
 --------------------------------------------------------
       Center         ----  Spin Dipole Couplings  ----
                      3XX-RR        3YY-RR        3ZZ-RR
 --------------------------------------------------------

 Normal termination of Gaussian 16 at Tue Apr  8 22:59:40 2025.
