 Gaussian 16, Revision C.01,

 ----------------------------------------------------------------------
 #t hf aug-cc-pvdz symm=none int=(grid=ultrafine) guess=(read,tcheck) s
 table=(opt,rrhf)
 ----------------------------------------------------------------------
 -----
 title
 -----
 Symbolic Z-matrix:
 Charge =  0 Multiplicity = 1

 SCF Done:  E(RHF) =  -1015.60224463     A.U. after   13 cycles
 Normal termination of Gaussian 16 at Wed Apr  9 00:41:56 2025.
 Gaussian 16:  ES64L-G16RevC.01  3-Jul-2019

 ----------------------------------------------------------------------
 #t hf aug-cc-pvdz iop(5/13=1,5/36=2,99/5=2) pseudo=read geom=check gue
 ss=(read,tcheck) scf=(maxcycle=1)
 ----------------------------------------------------------------------
 -----
 title
 -----
 Structure from the checkpoint file:  "BDE49_nonexpt_689_mol1.chk"
 Charge =  0 Multiplicity = 1

                         Standard orientation:
 ---------------------------------------------------------------------
 Center     Atomic      Atomic             Coordinates (Angstroms)
 Number     Number       Type             X           Y           Z
 ---------------------------------------------------------------------
      1         15           0       -0.394166    0.485087    0.690827
      2          5           0        1.278171   -0.302959    0.047886
      3          8           0        1.372047   -1.650767   -0.082195
      4          6           0       -0.500733    1.943905   -0.451341
      5          1           0       -0.470248    1.666469   -1.505489
      6          1           0        0.358608    2.581611   -0.225060
      7         17           0       -1.806235   -0.817784   -0.210716
      8          1           0       -1.416880    2.498911   -0.246047
      9          1           0        2.237351   -1.990996   -0.334337
     10          8           0        2.298359    0.589693   -0.126339
     11          1           0        3.159951    0.209986   -0.332417
 ---------------------------------------------------------------------

 SCF Done:  E(RHF) =  -1016.95543281     A.U. after    2 cycles

 The electronic state is 1-A.
 Alpha  occ. eigenvalues -- -105.19831 -99.86781 -21.08605 -21.07988 -11.37768
 Alpha  occ. eigenvalues --  -10.44007  -9.63894  -9.63243  -9.63192  -7.66746
 Alpha  occ. eigenvalues --   -2.77720  -1.83231  -1.68484  -1.49838  -1.48346
 Alpha  occ. eigenvalues --   -1.45832  -1.20629  -1.00795  -0.77333  -0.69940
 Alpha  occ. eigenvalues --   -0.65462  -0.57447  -0.57095  -0.54525  -0.51400
 Alpha  occ. eigenvalues --   -0.50230  -0.50020  -0.39168  -0.38415  -0.36954
 Alpha  occ. eigenvalues --   -0.17740  -0.02710
 Alpha virt. eigenvalues --    0.02715   0.04654   0.05330   0.05943   0.07268
 Alpha virt. eigenvalues --    0.07838   0.08328   0.09173   0.09461   0.11444
 Alpha virt. eigenvalues --    0.12000   0.12433   0.14987   0.16081   0.16817

 Mulliken charges:
               1
     1  P    3.459823
     2  B    4.785318
     3  O   -3.376669
     4  C   -5.935713
     5  H    1.283267
     6  H    1.360585
     7  Cl  -1.407301
     8  H    1.154541
     9  H    1.087440
    10  O   -3.485591
    11  H    1.074300
 Sum of Mulliken charges =  -0.00000

 Dipole moment (field-independent basis, Debye):
    X=              0.3108    Y=              1.4654    Z=              2.6859  Tot=              3.0754

 Test job not archived.
 1\1\GINC-SE455\SP\RHF\Aug-CC-pVDZ\C1H5B1Cl1O2P1\OHZDE\09-Apr-2025\0\\#
 t hf aug-cc-pvdz iop(5/13=1,5/36=2,99/5=2) pseudo=read geom=check gues
 s=(read,tcheck) scf=(maxcycle=1)\\title\\0,1\P,0,-0.394166,0.485087,0.
 690827\B,0,1.278171,-0.302959,0.047886\O,0,1.372047,-1.650767,-0.08219
 5\C,0,-0.500733,1.943905,-0.451341\H,0,-0.470248,1.666469,-1.505489\H,
 0,0.358608,2.581611,-0.22506\Cl,0,-1.806235,-0.817784,-0.210716\H,0,-1
 .41688,2.498911,-0.246047\H,0,2.237351,-1.990996,-0.334337\O,0,2.29835
 9,0.589693,-0.126339\H,0,3.159951,0.209986,-0.332417\\Version=ES64L-G1

 Normal termination of Gaussian 16 at Wed Apr  9 00:42:01 2025.
