 Gaussian 16, Revision C.01,

 ----------------------------------------------------------------------
 #t hf aug-cc-pvdz symm=none int=(grid=ultrafine) guess=(read,tcheck) s
 table=(opt,rrhf)
 ----------------------------------------------------------------------
 -----
 title
 -----
 Symbolic Z-matrix:
 Charge =  0 Multiplicity = 1

 SCF Done:  E(RHF) =  -997.084334921     A.U. after   12 cycles

 1\1\GINC-SE334\Stability\RHF\Aug-CC-pVDZ\C2H4Cl2\OHZDE\08-Apr-2025\0\\
 #t hf aug-cc-pvdz symm=none int=(grid=ultrafine) guess=(read,tcheck) s
 table=(opt,rrhf)\\title\\0,1\C,0,0.,0.342838,0.429515\C,0,0.,1.742466,
 -0.143942\Cl,0,1.481563,-0.561929,-0.070217\Cl,0,-1.481563,-0.561929,-
 0.070217\H,0,0.,0.328023,1.514716\H,0,0.,1.711735,-1.233839\H,0,0.8893
 9,2.27701,0.196524\H,0,-0.88939,2.27701,0.196524\\Version=ES64L-G16Rev
 C.01\HF=-997.0843349\RMSD=3.984e-09\Dipole=0.,0.8740561,0.3413264\Quad
 rupole=-2.0555508,1.1831734,0.8723774,0.,0.,0.3267421\PG=Unknown\\@

 Normal termination of Gaussian 16 at Tue Apr  8 22:31:19 2025.
 Gaussian 16:  ES64L-G16RevC.01  3-Jul-2019

 ----------------------------------------------------------------------
 #t hf aug-cc-pvdz iop(5/13=1,5/36=2,99/5=2) pseudo=read geom=check gue
 ss=(read,tcheck) scf=(maxcycle=1)
 ----------------------------------------------------------------------
 -----
 title
 -----
 Structure from the checkpoint file:  "BDE49_expt_1017_mol1.chk"
 Charge =  0 Multiplicity = 1

                         Standard orientation:
 ---------------------------------------------------------------------
 Center     Atomic      Atomic             Coordinates (Angstroms)
 Number     Number       Type             X           Y           Z
 ---------------------------------------------------------------------
      1          6           0       -0.210220    0.507768    0.000000
      2          6           0        0.968456    1.455678    0.000000
      3         17           0       -0.210220   -0.525835    1.481563
      4         17           0       -0.210220   -0.525835   -1.481563
      5          1           0       -1.167316    1.019479    0.000000
      6          1           0        1.907642    0.901828    0.000000
      7          1           0        0.928873    2.088203    0.889390
      8          1           0        0.928873    2.088203   -0.889390
 ---------------------------------------------------------------------

 SCF Done:  E(RHF) =  -997.975325240     A.U. after    2 cycles

 The electronic state is 1-A'.
 Alpha  occ. eigenvalues --  -99.89545 -99.89534 -11.50758 -11.40140 -10.46913
 Alpha  occ. eigenvalues --  -10.46771  -9.66753  -9.66658  -9.65999  -9.65963
 Alpha  occ. eigenvalues --   -9.65879  -9.65850  -1.40189  -1.27963  -1.12335
 Alpha  occ. eigenvalues --   -0.91329  -0.70327  -0.67258  -0.62607  -0.56134
 Alpha  occ. eigenvalues --   -0.55200  -0.51383  -0.49952  -0.48950  -0.47461
 Alpha virt. eigenvalues --    0.02845   0.04352   0.05885   0.06259   0.07116
 Alpha virt. eigenvalues --    0.07868   0.09696   0.11996   0.13218   0.13677
 Alpha virt. eigenvalues --    0.14862   0.15170   0.16510   0.17589   0.17989

 Mulliken charges:
               1
     1  C   -3.581330
     2  C   -2.592155
     3  Cl   0.256313
     4  Cl   0.256313
     5  H    1.881953
     6  H    1.320380
     7  H    1.229263
     8  H    1.229263
 Sum of Mulliken charges =  -0.00000

 Dipole moment (field-independent basis, Debye):
    X=              0.3398    Y=              2.3415    Z=              0.0000  Tot=              2.3660

 Test job not archived.
 1\1\GINC-SE334\SP\RHF\Aug-CC-pVDZ\C2H4Cl2\OHZDE\08-Apr-2025\0\\#t hf a
 ug-cc-pvdz iop(5/13=1,5/36=2,99/5=2) pseudo=read geom=check guess=(rea
 d,tcheck) scf=(maxcycle=1)\\title\\0,1\C,0,0.,0.342838,0.429515\C,0,0.
 ,1.742466,-0.143942\Cl,0,1.481563,-0.561929,-0.070217\Cl,0,-1.481563,-
 0.561929,-0.070217\H,0,0.,0.328023,1.514716\H,0,0.,1.711735,-1.233839\
 H,0,0.88939,2.27701,0.196524\H,0,-0.88939,2.27701,0.196524\\Version=ES
 64L-G16RevC.01\State=1-A'\HF=-997.9753252\RMSD=1.506e-01\Dipole=0.,0.8
 710044,0.3283765\Quadrupole=-1.3870347,1.1102095,0.2768252,0.,0.,0.547

 Normal termination of Gaussian 16 at Tue Apr  8 22:31:21 2025.
