 Gaussian 16, Revision C.01,

 ----------------------------------------------------------------------
 #t hf aug-cc-pvdz symm=none int=(grid=ultrafine) guess=(read,tcheck) s
 table=opt
 ----------------------------------------------------------------------
 -----
 title
 -----
 Symbolic Z-matrix:
 Charge =  0 Multiplicity = 2

 SCF Done:  E(UHF) =  -687.202387809     A.U. after   23 cycles
 Normal termination of Gaussian 16 at Tue Apr  8 23:10:52 2025.
 Gaussian 16:  ES64L-G16RevC.01  3-Jul-2019

 ----------------------------------------------------------------------
 #t hf aug-cc-pvdz iop(5/13=1,5/36=2,99/5=2) pseudo=read geom=check gue
 ss=(read,tcheck) scf=(maxcycle=1)
 ----------------------------------------------------------------------
 -----
 title
 -----
 Structure from the checkpoint file:  "BDE49_expt_623_mol2.chk"
 Charge =  0 Multiplicity = 2

                         Standard orientation:
 ---------------------------------------------------------------------
 Center     Atomic      Atomic             Coordinates (Angstroms)
 Number     Number       Type             X           Y           Z
 ---------------------------------------------------------------------
      1          6           0       -0.014534    0.397018    0.344992
      2          8           0        1.190720    0.190395   -0.420400
      3          8           0        2.002971   -0.677034    0.154296
      4          6           0       -0.553615    1.757525   -0.019538
      5          1           0        0.181109    2.521188    0.246655
      6          1           0       -1.479537    1.948096    0.522975
      7          1           0       -0.752911    1.811994   -1.090489
      8         17           0       -1.195760   -0.916652   -0.052775
      9          1           0        0.238621    0.267663    1.394141
 ---------------------------------------------------------------------

 SCF Done:  E(UHF) =  -688.401416660     A.U. after    2 cycles

 The electronic state is 2-A.
 Alpha  occ. eigenvalues --  -99.89174 -21.16821 -21.15026 -11.51106 -11.40357
 Alpha  occ. eigenvalues --  -10.46509  -9.66406  -9.65633  -9.65571  -2.07060
 Alpha  occ. eigenvalues --   -1.43395  -1.30283  -1.11889  -0.90514  -0.71048
 Alpha  occ. eigenvalues --   -0.65986  -0.64888  -0.59029  -0.55795  -0.54121
 Alpha  occ. eigenvalues --   -0.51195  -0.49999  -0.46569  -0.35107  -0.32294
 Alpha virt. eigenvalues --    0.03526   0.05430   0.05840   0.06430   0.07480
 Alpha virt. eigenvalues --    0.10771   0.11912   0.12582   0.13463   0.13971
 Alpha virt. eigenvalues --    0.15634   0.16209   0.17512   0.18112   0.18485

  Beta  occ. eigenvalues --  -99.89164 -21.14393 -21.12913 -11.51166 -11.40363
  Beta  occ. eigenvalues --  -10.46500  -9.66357  -9.65633  -9.65564  -2.01877
  Beta  occ. eigenvalues --   -1.38082  -1.27087  -1.11053  -0.90221  -0.70180
  Beta  occ. eigenvalues --   -0.65123  -0.63560  -0.56277  -0.55531  -0.50726
  Beta  occ. eigenvalues --   -0.49679  -0.45735  -0.43187  -0.32790
  Beta virt. eigenvalues --    0.03548   0.05448   0.05793   0.06415   0.07222
  Beta virt. eigenvalues --    0.09917   0.11015   0.12223   0.13426   0.13641
  Beta virt. eigenvalues --    0.15159   0.15887   0.16659   0.17642   0.18233

 Mulliken charges and spin densities:
               1          2
     1  C   -1.218394  -0.026057
     2  O   -1.237864   0.098661
     3  O   -0.256644   0.911943
     4  C   -3.044606   0.005130
     5  H    1.289004   0.004104
     6  H    1.228507  -0.000754
     7  H    1.249952  -0.000768
     8  Cl   0.103536   0.015808
     9  H    1.886509  -0.008067
 Sum of Mulliken charges =  -0.00000   1.00000

 Dipole moment (field-independent basis, Debye):
    X=              0.7169    Y=              2.1081    Z=              0.6786  Tot=              2.3278
                          Isotropic Fermi Contact Couplings
        Atom                 a.u.       MegaHertz       Gauss      10(-4) cm-1
     1  C(13)             -0.00789      -8.87155      -3.16559      -2.95923
     2  O(17)              0.05727     -34.71902     -12.38861     -11.58102
     3  O(17)              0.19774    -119.86901     -42.77224     -39.98400
     4  C(13)             -0.00034      -0.38600      -0.13773      -0.12876
     5  H(1)               0.00037       1.64194       0.58589       0.54769
     6  H(1)              -0.00022      -0.97588      -0.34822      -0.32552
     7  H(1)              -0.00008      -0.37040      -0.13217      -0.12355
     8  Cl(35)             0.00930       4.07698       1.45477       1.35993

 Normal termination of Gaussian 16 at Tue Apr  8 23:10:55 2025.
