 Gaussian 16, Revision C.01,

 ----------------------------------------------------------------------
 #t hf aug-cc-pvdz symm=none int=(grid=ultrafine) guess=(read,tcheck) s
 table=(opt,rrhf)
 ----------------------------------------------------------------------
 -----
 title
 -----
 Symbolic Z-matrix:
 Charge =  0 Multiplicity = 1

 SCF Done:  E(RHF) =  -653.682578814     A.U. after   14 cycles
 Normal termination of Gaussian 16 at Wed Apr  9 00:22:02 2025.
 Gaussian 16:  ES64L-G16RevC.01  3-Jul-2019

 ----------------------------------------------------------------------
 #t hf aug-cc-pvdz iop(5/13=1,5/36=2,99/5=2) pseudo=read geom=check gue
 ss=(read,tcheck) scf=(maxcycle=1)
 ----------------------------------------------------------------------
 -----
 title
 -----
 Structure from the checkpoint file:  "BDE49_nonexpt_2639_mol1.chk"
 Charge =  0 Multiplicity = 1

                         Standard orientation:
 ---------------------------------------------------------------------
 Center     Atomic      Atomic             Coordinates (Angstroms)
 Number     Number       Type             X           Y           Z
 ---------------------------------------------------------------------
      1          9           0        1.450738   -1.393433    0.285705
      2         16           0        1.818451    0.108001   -0.373385
      3          6           0        0.567846    1.118166    0.451028
      4          6           0       -0.871061    0.985797   -0.054208
      5          1           0        0.648935    0.936450    1.526635
      6          6           0       -1.529533   -0.368210    0.235632
      7          1           0       -0.888525    1.181633   -1.131849
      8          1           0       -1.461399    1.782352    0.418302
      9          6           0       -2.982612   -0.428614   -0.241931
     10          1           0       -1.487139   -0.564502    1.313678
     11          1           0       -0.948308   -1.163254   -0.238507
     12          1           0       -3.595456    0.336113    0.245858
     13          1           0       -3.429987   -1.401566   -0.023197
     14          1           0       -3.051031   -0.268218   -1.322384
     15          1           0        0.953222    2.131041    0.271153
 ---------------------------------------------------------------------

 SCF Done:  E(RHF) =  -655.063180216     A.U. after    2 cycles

 The electronic state is 1-A.
 Alpha  occ. eigenvalues --  -75.74876 -29.25863 -13.18803 -13.15502 -13.08139
 Alpha  occ. eigenvalues --  -11.44373 -11.41172 -11.38508 -11.35111  -8.08786
 Alpha  occ. eigenvalues --   -1.29247  -1.18134  -1.05261  -0.92118  -0.83167
 Alpha  occ. eigenvalues --   -0.68299  -0.64331  -0.60865  -0.59621  -0.55291
 Alpha  occ. eigenvalues --   -0.52865  -0.47165  -0.46705  -0.45214  -0.44209
 Alpha  occ. eigenvalues --   -0.38664  -0.32747  -0.26614  -0.16854
 Alpha virt. eigenvalues --    0.03591   0.04460   0.05297   0.05815   0.06188
 Alpha virt. eigenvalues --    0.06589   0.06743   0.07590   0.08954   0.09680
 Alpha virt. eigenvalues --    0.11272   0.13005   0.13138   0.14152   0.14538

 Mulliken charges:
               1
     1  F   -0.377873
     2  S    0.840291
     3  C   -4.186362
     4  C   -1.984827
     5  H    1.530605
     6  C   -2.974208
     7  H    1.411653
     8  H    1.391262
     9  C   -3.701144
    10  H    1.438686
    11  H    1.433063
    12  H    1.308991
    13  H    1.138252
    14  H    1.318326
    15  H    1.413285
 Sum of Mulliken charges =  -0.00000

 Dipole moment (field-independent basis, Debye):
    X=             -0.1945    Y=             -1.9449    Z=              0.7556  Tot=              2.0956

 Test job not archived.
 1\1\GINC-SE457\SP\RHF\Aug-CC-pVDZ\C4H9F1S1\OHZDE\09-Apr-2025\0\\#t hf
 aug-cc-pvdz iop(5/13=1,5/36=2,99/5=2) pseudo=read geom=check guess=(re
 ad,tcheck) scf=(maxcycle=1)\\title\\0,1\F,0,1.450738,-1.393433,0.28570
 5\S,0,1.818451,0.108001,-0.373385\C,0,0.567846,1.118166,0.451028\C,0,-
 0.871061,0.985797,-0.054208\H,0,0.648935,0.93645,1.526635\C,0,-1.52953
 3,-0.36821,0.235632\H,0,-0.888525,1.181633,-1.131849\H,0,-1.461399,1.7
 82352,0.418302\C,0,-2.982612,-0.428614,-0.241931\H,0,-1.487139,-0.5645
 02,1.313678\H,0,-0.948308,-1.163254,-0.238507\H,0,-3.595456,0.336113,0

 Normal termination of Gaussian 16 at Wed Apr  9 00:22:06 2025.
