 Gaussian 16, Revision C.01,

 ----------------------------------------------------------------------
 #t hf aug-cc-pvdz symm=none int=(grid=ultrafine) guess=(read,tcheck) s
 table=(opt,rrhf)
 ----------------------------------------------------------------------
 -----
 title
 -----
 Symbolic Z-matrix:
 Charge =  0 Multiplicity = 1

 SCF Done:  E(RHF) =  -691.037689481     A.U. after   15 cycles
 Normal termination of Gaussian 16 at Tue Apr  8 23:18:13 2025.
 Gaussian 16:  ES64L-G16RevC.01  3-Jul-2019

 ----------------------------------------------------------------------
 #t hf aug-cc-pvdz iop(5/13=1,5/36=2,99/5=2) pseudo=read geom=check gue
 ss=(read,tcheck) scf=(maxcycle=1)
 ----------------------------------------------------------------------
 -----
 title
 -----
 Structure from the checkpoint file:  "BDE49_nonexpt_1037_mol1.chk"
 Charge =  0 Multiplicity = 1

                         Standard orientation:
 ---------------------------------------------------------------------
 Center     Atomic      Atomic             Coordinates (Angstroms)
 Number     Number       Type             X           Y           Z
 ---------------------------------------------------------------------
      1         17           0        2.038022   -0.582171    0.086463
      2          8           0        0.421659   -0.399551   -0.527228
      3          6           0       -0.374794    0.515742    0.265008
      4          6           0       -1.808237    0.223623   -0.190602
      5          6           0        0.049771    1.959810    0.039194
      6          1           0       -0.073839    2.234027   -1.011523
      7          1           0        1.095883    2.106631    0.314393
      8          1           0       -0.557399    2.633195    0.650271
      9          1           0       -0.263605    0.243279    1.321081
     10          6           0       -2.302791   -1.179103    0.168776
     11          1           0       -1.862318    0.381837   -1.273106
     12          1           0       -2.451176    0.982753    0.268179
     13          1           0       -1.665837   -1.942457   -0.280377
     14          1           0       -3.324281   -1.333592   -0.187344
     15          1           0       -2.300763   -1.332780    1.252126
 ---------------------------------------------------------------------

 SCF Done:  E(RHF) =  -692.410389168     A.U. after    2 cycles

 The electronic state is 1-A.
 Alpha  occ. eigenvalues --  -99.92622 -21.10123 -11.46200 -11.41302 -11.38226
 Alpha  occ. eigenvalues --  -11.35746 -10.49378  -9.69321  -9.68514  -9.68409
 Alpha  occ. eigenvalues --   -1.77240  -1.26945  -1.18101  -1.08171  -0.92749
 Alpha  occ. eigenvalues --   -0.83096  -0.67754  -0.63512  -0.61478  -0.58610
 Alpha  occ. eigenvalues --   -0.56997  -0.55275  -0.53889  -0.51835  -0.48933
 Alpha  occ. eigenvalues --   -0.47326  -0.44193  -0.41444  -0.33630
 Alpha virt. eigenvalues --    0.03678   0.04989   0.05125   0.05598   0.06138
 Alpha virt. eigenvalues --    0.06292   0.06448   0.06947   0.08030   0.09070
 Alpha virt. eigenvalues --    0.10672   0.11185   0.13317   0.14123   0.15220

 Mulliken charges:
               1
     1  Cl   0.396279
     2  O   -2.321476
     3  C    0.859966
     4  C   -3.439243
     5  C   -3.872864
     6  H    1.187716
     7  H    1.189216
     8  H    1.277110
     9  H    1.831529
    10  C   -3.812663
    11  H    1.505086
    12  H    1.411867
    13  H    1.407683
    14  H    1.095320
    15  H    1.284476
 Sum of Mulliken charges =   0.00000

 Dipole moment (field-independent basis, Debye):
    X=             -3.0561    Y=              0.9625    Z=             -0.1748  Tot=              3.2088

 Test job not archived.
 1\1\GINC-SE333\SP\RHF\Aug-CC-pVDZ\C4H9Cl1O1\OHZDE\08-Apr-2025\0\\#t hf
  aug-cc-pvdz iop(5/13=1,5/36=2,99/5=2) pseudo=read geom=check guess=(r
 ead,tcheck) scf=(maxcycle=1)\\title\\0,1\Cl,0,2.038022,-0.582171,0.086
 463\O,0,0.421659,-0.399551,-0.527228\C,0,-0.374794,0.515742,0.265008\C
 ,0,-1.808237,0.223623,-0.190602\C,0,0.049771,1.95981,0.039194\H,0,-0.0
 73839,2.234027,-1.011523\H,0,1.095883,2.106631,0.314393\H,0,-0.557399,
 2.633195,0.650271\H,0,-0.263605,0.243279,1.321081\C,0,-2.302791,-1.179
 103,0.168776\H,0,-1.862318,0.381837,-1.273106\H,0,-2.451176,0.982753,0

 Normal termination of Gaussian 16 at Tue Apr  8 23:18:18 2025.
