 Gaussian 16, Revision C.01,

 ----------------------------------------------------------------------
 #t hf aug-cc-pvdz symm=none int=(grid=ultrafine) guess=(read,tcheck) s
 table=(opt,rrhf)
 ----------------------------------------------------------------------
 -----
 title
 -----
 Symbolic Z-matrix:
 Charge =  0 Multiplicity = 1

 SCF Done:  E(RHF) =  -866.169059389     A.U. after   12 cycles
 Normal termination of Gaussian 16 at Tue Apr  8 23:49:22 2025.
 Gaussian 16:  ES64L-G16RevC.01  3-Jul-2019

 ----------------------------------------------------------------------
 #t hf aug-cc-pvdz iop(5/13=1,5/36=2,99/5=2) pseudo=read geom=check gue
 ss=(read,tcheck) scf=(maxcycle=1)
 ----------------------------------------------------------------------
 -----
 title
 -----
 Structure from the checkpoint file:  "BDE49_nonexpt_1814_mol1.chk"
 Charge =  0 Multiplicity = 1

                         Standard orientation:
 ---------------------------------------------------------------------
 Center     Atomic      Atomic             Coordinates (Angstroms)
 Number     Number       Type             X           Y           Z
 ---------------------------------------------------------------------
      1         14           0        0.749765    0.814694    0.032983
      2          6           0       -0.875899    0.067239    0.490888
      3          6           0       -1.938248    0.097609   -0.324191
      4         17           0        2.237634   -0.655781   -0.081674
      5          6           0       -3.293133   -0.466636   -0.020074
      6          1           0       -0.981697   -0.409944    1.465180
      7          1           0       -1.839633    0.566537   -1.303462
      8          1           0       -3.329314   -0.923051    0.970992
      9          1           0       -3.570518   -1.223535   -0.762089
     10          1           0       -4.058968    0.315217   -0.071543
     11          1           0        1.231387    1.776977    1.043983
     12          1           0        0.655926    1.451078   -1.296100
 ---------------------------------------------------------------------

 SCF Done:  E(RHF) =  -867.162301672     A.U. after    2 cycles

 The electronic state is 1-A.
 Alpha  occ. eigenvalues --  -99.87194 -76.25375 -11.44103 -11.39755 -11.37039
 Alpha  occ. eigenvalues --  -10.44580  -9.64481  -9.63854  -9.63824  -5.58950
 Alpha  occ. eigenvalues --   -2.23068  -2.21224  -2.20718  -1.27699  -1.21349
 Alpha  occ. eigenvalues --   -1.00792  -0.81703  -0.75615  -0.60730  -0.58617
 Alpha  occ. eigenvalues --   -0.57780  -0.54527  -0.53887  -0.52444  -0.50283
 Alpha  occ. eigenvalues --   -0.46504  -0.41725  -0.37188
 Alpha virt. eigenvalues --    0.03270   0.05019   0.05629   0.05931   0.06120
 Alpha virt. eigenvalues --    0.06286   0.06328   0.08126   0.09254   0.09865
 Alpha virt. eigenvalues --    0.10428   0.12407   0.13358   0.13544   0.13660

 Mulliken charges:
               1
     1  Si   5.267644
     2  C   -3.196534
     3  C    0.106453
     4  Cl  -0.925812
     5  C   -4.203718
     6  H    1.233265
     7  H    1.594107
     8  H    1.268846
     9  H    1.207076
    10  H    1.210728
    11  H   -1.851630
    12  H   -1.710424
 Sum of Mulliken charges =  -0.00000

 Dipole moment (field-independent basis, Debye):
    X=             -3.1455    Y=              0.5441    Z=             -0.0771  Tot=              3.1931

 Test job not archived.
 1\1\GINC-SE393\SP\RHF\Aug-CC-pVDZ\C3H7Cl1Si1\OHZDE\08-Apr-2025\0\\#t h
 f aug-cc-pvdz iop(5/13=1,5/36=2,99/5=2) pseudo=read geom=check guess=(
 read,tcheck) scf=(maxcycle=1)\\title\\0,1\Si,0,0.749765,0.814694,0.032
 983\C,0,-0.875899,0.067239,0.490888\C,0,-1.938248,0.097609,-0.324191\C
 l,0,2.237634,-0.655781,-0.081674\C,0,-3.293133,-0.466636,-0.020074\H,0
 ,-0.981697,-0.409944,1.46518\H,0,-1.839633,0.566537,-1.303462\H,0,-3.3
 29314,-0.923051,0.970992\H,0,-3.570518,-1.223535,-0.762089\H,0,-4.0589
 68,0.315217,-0.071543\H,0,1.231387,1.776977,1.043983\H,0,0.655926,1.45

 Normal termination of Gaussian 16 at Tue Apr  8 23:49:26 2025.
