 Gaussian 16, Revision C.01,

 ----------------------------------------------------------------------
 #t hf aug-cc-pvdz symm=none int=(grid=ultrafine) guess=(read,tcheck) s
 table=(opt,rrhf)
 ----------------------------------------------------------------------
 -----
 title
 -----
 Symbolic Z-matrix:
 Charge =  0 Multiplicity = 1

 SCF Done:  E(RHF) =  -365.829071771     A.U. after   14 cycles
 Normal termination of Gaussian 16 at Wed Apr  9 00:36:32 2025.
 Gaussian 16:  ES64L-G16RevC.01  3-Jul-2019

 ----------------------------------------------------------------------
 #t hf aug-cc-pvdz iop(5/13=1,5/36=2,99/5=2) pseudo=read geom=check gue
 ss=(read,tcheck) scf=(maxcycle=1)
 ----------------------------------------------------------------------
 -----
 title
 -----
 Structure from the checkpoint file:  "BDE49_nonexpt_512_mol1.chk"
 Charge =  0 Multiplicity = 1

                         Standard orientation:
 ---------------------------------------------------------------------
 Center     Atomic      Atomic             Coordinates (Angstroms)
 Number     Number       Type             X           Y           Z
 ---------------------------------------------------------------------
      1          1           0       -3.004326   -0.595602   -1.421024
      2          5           0       -2.538134   -0.812145   -0.351094
      3          1           0       -3.060869   -1.551298    0.416687
      4          6           0       -1.274755   -0.003423    0.100643
      5          8           0       -1.423448    1.060093    0.636868
      6          8           0       -0.050402   -0.618571   -0.102621
      7          6           0        1.160363    0.103479   -0.146624
      8          8           0        1.228959    1.229465   -0.520976
      9          6           0        2.288865   -0.787503    0.287452
     10          1           0        2.266935   -1.722674   -0.275508
     11          1           0        2.165211   -1.038952    1.344008
     12          1           0        3.236005   -0.273964    0.136315
 ---------------------------------------------------------------------

 SCF Done:  E(RHF) =  -367.373224152     A.U. after    2 cycles

 The electronic state is 1-A.
 Alpha  occ. eigenvalues --  -21.11699 -21.07648 -21.07334 -11.54672 -11.49626
 Alpha  occ. eigenvalues --  -11.41004  -7.65563  -1.87706  -1.73001  -1.66494
 Alpha  occ. eigenvalues --   -1.13236  -0.99892  -0.84456  -0.69409  -0.64389
 Alpha  occ. eigenvalues --   -0.63417  -0.61559  -0.58270  -0.55843  -0.53684
 Alpha  occ. eigenvalues --   -0.49250  -0.47176  -0.43317  -0.34027  -0.32792
 Alpha  occ. eigenvalues --   -0.27853
 Alpha virt. eigenvalues --    0.02884   0.03465   0.03747   0.04283   0.05894
 Alpha virt. eigenvalues --    0.06309   0.07384   0.09038   0.10199   0.11489
 Alpha virt. eigenvalues --    0.11878   0.12232   0.13200   0.13649   0.14365

 Mulliken charges:
               1
     1  H   -3.121676
     2  B    7.911515
     3  H   -3.079897
     4  C    1.738007
     5  O   -2.283725
     6  O   -2.945178
     7  C    5.057380
     8  O   -2.929887
     9  C   -4.186449
    10  H    1.308586
    11  H    1.313927
    12  H    1.217397
 Sum of Mulliken charges =   0.00000

 Dipole moment (field-independent basis, Debye):
    X=              0.7594    Y=             -1.5162    Z=              0.1088  Tot=              1.6992

 Test job not archived.
 1\1\GINC-SE015\SP\RHF\Aug-CC-pVDZ\C3H5B1O3\OHZDE\09-Apr-2025\0\\#t hf
 aug-cc-pvdz iop(5/13=1,5/36=2,99/5=2) pseudo=read geom=check guess=(re
 ad,tcheck) scf=(maxcycle=1)\\title\\0,1\H,0,-3.004326,-0.595602,-1.421
 024\B,0,-2.538134,-0.812145,-0.351094\H,0,-3.060869,-1.551298,0.416687
 \C,0,-1.274755,-0.003423,0.100643\O,0,-1.423448,1.060093,0.636868\O,0,
 -0.050402,-0.618571,-0.102621\C,0,1.160363,0.103479,-0.146624\O,0,1.22
 8959,1.229465,-0.520976\C,0,2.288865,-0.787503,0.287452\H,0,2.266935,-
 1.722674,-0.275508\H,0,2.165211,-1.038952,1.344008\H,0,3.236005,-0.273

 Normal termination of Gaussian 16 at Wed Apr  9 00:36:36 2025.
