 Gaussian 16, Revision C.01,

 ----------------------------------------------------------------------
 #t hf aug-cc-pvdz symm=none int=(grid=ultrafine) guess=(read,tcheck) s
 table=(opt,rrhf)
 ----------------------------------------------------------------------
 -----
 title
 -----
 Symbolic Z-matrix:
 Charge =  0 Multiplicity = 1

 SCF Done:  E(RHF) =  -307.022603113     A.U. after   11 cycles

 1\1\GINC-SE219\Stability\RHF\Aug-CC-pVDZ\C4H10O2\OHZDE\08-Apr-2025\0\\
 #t hf aug-cc-pvdz symm=none int=(grid=ultrafine) guess=(read,tcheck) s
 table=(opt,rrhf)\\title\\0,1\C,0,0.644737,-0.400995,0.000001\O,0,1.719
 943,0.517456,-0.000002\C,0,-0.644737,0.400995,-0.000001\C,0,2.983223,-
 0.113711,-0.000001\H,0,0.676533,-1.048506,0.888778\H,0,0.676532,-1.048
 51,-0.888774\H,0,3.121879,-0.741716,0.892142\H,0,3.738232,0.673156,-0.
 000003\H,0,3.121879,-0.74172,-0.892142\O,0,-1.719943,-0.517456,0.00000
 2\H,0,-0.676533,1.048506,-0.888778\H,0,-0.676532,1.04851,0.888774\C,0,

 Normal termination of Gaussian 16 at Tue Apr  8 22:36:45 2025.
 Gaussian 16:  ES64L-G16RevC.01  3-Jul-2019

 ----------------------------------------------------------------------
 #t hf aug-cc-pvdz iop(5/13=1,5/36=2,99/5=2) pseudo=read geom=check gue
 ss=(read,tcheck) scf=(maxcycle=1)
 ----------------------------------------------------------------------
 -----
 title
 -----
 Structure from the checkpoint file:  "BDE49_expt_1074_mol1.chk"
 Charge =  0 Multiplicity = 1

                         Standard orientation:
 ---------------------------------------------------------------------
 Center     Atomic      Atomic             Coordinates (Angstroms)
 Number     Number       Type             X           Y           Z
 ---------------------------------------------------------------------
      1          6           0       -0.644737    0.400995    0.000001
      2          8           0       -1.719943   -0.517456   -0.000002
      3          6           0        0.644737   -0.400995   -0.000001
      4          6           0       -2.983223    0.113711   -0.000001
      5          1           0       -0.676533    1.048506    0.888778
      6          1           0       -0.676532    1.048510   -0.888774
      7          1           0       -3.121879    0.741716    0.892142
      8          1           0       -3.738232   -0.673156   -0.000003
      9          1           0       -3.121879    0.741720   -0.892142
     10          8           0        1.719943    0.517456    0.000002
     11          1           0        0.676533   -1.048506   -0.888778
     12          1           0        0.676532   -1.048510    0.888774
     13          6           0        2.983223   -0.113711    0.000001
     14          1           0        3.738232    0.673156    0.000003
     15          1           0        3.121880   -0.741716   -0.892142
     16          1           0        3.121879   -0.741719    0.892142
 ---------------------------------------------------------------------

 SCF Done:  E(RHF) =  -308.437479353     A.U. after    2 cycles

 The electronic state is 1-A.
 Alpha  occ. eigenvalues --  -21.04290 -21.04265 -11.44614 -11.40082 -11.40039
 Alpha  occ. eigenvalues --  -11.38366  -1.77034  -1.72790  -1.10455  -0.98848
 Alpha  occ. eigenvalues --   -0.92565  -0.86183  -0.67743  -0.63694  -0.61217
 Alpha  occ. eigenvalues --   -0.60918  -0.57572  -0.57285  -0.55153  -0.51449
 Alpha  occ. eigenvalues --   -0.44358  -0.39458  -0.38083  -0.30745  -0.28927
 Alpha virt. eigenvalues --    0.04030   0.04923   0.05377   0.05627   0.06706
 Alpha virt. eigenvalues --    0.06750   0.06812   0.07648   0.07730   0.08418
 Alpha virt. eigenvalues --    0.11078   0.11100   0.14507   0.14898   0.15895

 Mulliken charges:
               1
     1  C   -1.209717
     2  O   -3.019159
     3  C   -1.209717
     4  C   -2.891849
     5  H    1.579258
     6  H    1.579256
     7  H    1.328866
     8  H    1.304478
     9  H    1.328866
    10  O   -3.019159
    11  H    1.579258
    12  H    1.579257
    13  C   -2.891850
    14  H    1.304478
    15  H    1.328867
    16  H    1.328867
 Sum of Mulliken charges =  -0.00000

 Dipole moment (field-independent basis, Debye):
    X=              0.0000    Y=             -0.0000    Z=              0.0000  Tot=              0.0000

 Test job not archived.
 1\1\GINC-SE219\SP\RHF\Aug-CC-pVDZ\C4H10O2\OHZDE\08-Apr-2025\0\\#t hf a
 ug-cc-pvdz iop(5/13=1,5/36=2,99/5=2) pseudo=read geom=check guess=(rea
 d,tcheck) scf=(maxcycle=1)\\title\\0,1\C,0,0.644737,-0.400995,0.000001
 \O,0,1.719943,0.517456,-0.000002\C,0,-0.644737,0.400995,-0.000001\C,0,
 2.983223,-0.113711,-0.000001\H,0,0.676533,-1.048506,0.888778\H,0,0.676
 532,-1.04851,-0.888774\H,0,3.121879,-0.741716,0.892142\H,0,3.738232,0.
 673156,-0.000003\H,0,3.121879,-0.74172,-0.892142\O,0,-1.719943,-0.5174
 56,0.000002\H,0,-0.676533,1.048506,-0.888778\H,0,-0.676532,1.04851,0.8

 Normal termination of Gaussian 16 at Tue Apr  8 22:36:49 2025.
