 Gaussian 16, Revision C.01,

 ----------------------------------------------------------------------
 #t hf aug-cc-pvdz symm=none int=(grid=ultrafine) guess=(read,tcheck) s
 table=opt
 ----------------------------------------------------------------------
 -----
 title
 -----
 Symbolic Z-matrix:
 Charge =  0 Multiplicity = 2

 SCF Done:  E(UHF) =  -103.847213031     A.U. after   13 cycles
 Normal termination of Gaussian 16 at Wed Apr  9 00:28:42 2025.
 Gaussian 16:  ES64L-G16RevC.01  3-Jul-2019

 ----------------------------------------------------------------------
 #t hf aug-cc-pvdz iop(5/13=1,5/36=2,99/5=2) pseudo=read geom=check gue
 ss=(read,tcheck) scf=(maxcycle=1)
 ----------------------------------------------------------------------
 -----
 title
 -----
 Structure from the checkpoint file:  "BDE49_nonexpt_2_mol3.chk"
 Charge =  0 Multiplicity = 2

                         Standard orientation:
 ---------------------------------------------------------------------
 Center     Atomic      Atomic             Coordinates (Angstroms)
 Number     Number       Type             X           Y           Z
 ---------------------------------------------------------------------
      1          5           0       -1.452149   -0.475345   -0.000002
      2          6           0       -0.209375    0.437171    0.000002
      3          6           0        1.188899   -0.201733   -0.000000
      4          1           0       -0.327756    1.112881    0.865763
      5          1           0       -0.327739    1.112931   -0.865720
      6          1           0        1.330076   -0.834081    0.880127
      7          1           0        1.978503    0.555164    0.000029
      8          1           0        1.330096   -0.834033   -0.880159
      9          1           0       -2.599581   -0.148763   -0.000039
 ---------------------------------------------------------------------

 SCF Done:  E(UHF) =  -104.356313315     A.U. after    2 cycles

 The electronic state is 2-A.
 Alpha  occ. eigenvalues --  -11.38699 -11.33828  -7.62533  -1.17258  -0.93007
 Alpha  occ. eigenvalues --   -0.72160  -0.60460  -0.58316  -0.49848  -0.48485
 Alpha  occ. eigenvalues --   -0.43425  -0.28644
 Alpha virt. eigenvalues --    0.03575   0.03626   0.04324   0.04527   0.06849
 Alpha virt. eigenvalues --    0.06996   0.07949   0.08013   0.12037   0.12736
 Alpha virt. eigenvalues --    0.13350   0.14366   0.15734   0.15978   0.17093

  Beta  occ. eigenvalues --  -11.38643 -11.33802  -7.60859  -1.16533  -0.91951
  Beta  occ. eigenvalues --   -0.67926  -0.60384  -0.57747  -0.48797  -0.48399
  Beta  occ. eigenvalues --   -0.42371
  Beta virt. eigenvalues --    0.02850   0.03939   0.03965   0.04543   0.06797
  Beta virt. eigenvalues --    0.07476   0.07561   0.08024   0.10051   0.12209
  Beta virt. eigenvalues --    0.13628   0.14161   0.15373   0.15839   0.17107

 Mulliken charges and spin densities:
               1          2
     1  B    1.770208   1.003488
     2  C   -3.615247  -0.089016
     3  C   -3.462068   0.020570
     4  H    1.523737   0.014287
     5  H    1.523696   0.014293
     6  H    1.270080   0.004854
     7  H    1.173558   0.003038
     8  H    1.270075   0.004853
     9  H   -1.454038   0.023632
 Sum of Mulliken charges =  -0.00000   1.00000

 Dipole moment (field-independent basis, Debye):
    X=              0.4064    Y=              1.0291    Z=             -0.0000  Tot=              1.1064
                          Isotropic Fermi Contact Couplings
        Atom                 a.u.       MegaHertz       Gauss      10(-4) cm-1
     1  B(11)              0.14724     211.19437      75.35940      70.44686
     2  C(13)              0.01463      16.44771       5.86895       5.48637
     3  C(13)              0.02184      24.54903       8.75970       8.18867
     4  H(1)               0.00233      10.42839       3.72111       3.47854
     5  H(1)               0.00233      10.43548       3.72364       3.48090
     6  H(1)              -0.00036      -1.61172      -0.57510      -0.53761
     7  H(1)              -0.00038      -1.70157      -0.60716      -0.56758
     8  H(1)              -0.00036      -1.61167      -0.57508      -0.53760

 Normal termination of Gaussian 16 at Wed Apr  9 00:28:44 2025.
