 Gaussian 16, Revision C.01,

 ----------------------------------------------------------------------
 #t hf aug-cc-pvdz symm=none int=(grid=ultrafine) guess=(read,tcheck) s
 table=(opt,rrhf)
 ----------------------------------------------------------------------
 -----
 title
 -----
 Symbolic Z-matrix:
 Charge =  0 Multiplicity = 1

 SCF Done:  E(RHF) =  -571.168661553     A.U. after   15 cycles
 Normal termination of Gaussian 16 at Tue Apr  8 23:32:20 2025.
 Gaussian 16:  ES64L-G16RevC.01  3-Jul-2019

 ----------------------------------------------------------------------
 #t hf aug-cc-pvdz iop(5/13=1,5/36=2,99/5=2) pseudo=read geom=check gue
 ss=(read,tcheck) scf=(maxcycle=1)
 ----------------------------------------------------------------------
 -----
 title
 -----
 Structure from the checkpoint file:  "BDE49_nonexpt_1391_mol1.chk"
 Charge =  0 Multiplicity = 1

                         Standard orientation:
 ---------------------------------------------------------------------
 Center     Atomic      Atomic             Coordinates (Angstroms)
 Number     Number       Type             X           Y           Z
 ---------------------------------------------------------------------
      1         15           0       -0.113810   -1.335261   -0.180057
      2          6           0        1.031782    0.173780    0.007761
      3          6           0        0.191088    1.447682    0.137103
      4          6           0       -1.248642    1.124402   -0.272364
      5          6           0       -1.596803   -0.278923    0.275624
      6          1           0       -1.326514    1.118260   -1.365037
      7          1           0       -1.955054    1.874282    0.091223
      8          1           0        0.652871    2.254325   -0.436767
      9          1           0        0.236481    1.735794    1.195409
     10          8           0        2.232570    0.129590    0.007675
     11          1           0       -2.509350   -0.670028   -0.175854
     12          1           0       -1.741040   -0.245570    1.357927
     13          1           0        0.224651   -1.876514    1.083806
 ---------------------------------------------------------------------

 SCF Done:  E(RHF) =  -572.426546578     A.U. after    2 cycles

 The electronic state is 1-A.
 Alpha  occ. eigenvalues -- -105.18183 -21.06188 -11.48775 -11.44046 -11.40450
 Alpha  occ. eigenvalues --  -11.37560  -2.75915  -1.71386  -1.49680  -1.45736
 Alpha  occ. eigenvalues --   -1.44376  -1.23395  -1.02215  -0.89322  -0.77366
 Alpha  occ. eigenvalues --   -0.66531  -0.65296  -0.61191  -0.58668  -0.50529
 Alpha  occ. eigenvalues --   -0.50081  -0.48669  -0.42831  -0.40083  -0.23906
 Alpha  occ. eigenvalues --   -0.15426  -0.02625
 Alpha virt. eigenvalues --    0.03756   0.05326   0.05540   0.05785   0.06067
 Alpha virt. eigenvalues --    0.06278   0.07651   0.09181   0.10496   0.11956
 Alpha virt. eigenvalues --    0.12199   0.12767   0.13832   0.14212   0.14735

 Mulliken charges:
               1
     1  P    3.558598
     2  C    1.817656
     3  C   -3.301607
     4  C   -2.772677
     5  C   -3.585541
     6  H    1.317396
     7  H    1.212213
     8  H    1.347414
     9  H    1.423391
    10  O   -3.078211
    11  H    1.221305
    12  H    1.262427
    13  H   -0.422364
 Sum of Mulliken charges =   0.00000

 Dipole moment (field-independent basis, Debye):
    X=             -2.0648    Y=             -1.3072    Z=             -1.2567  Tot=              2.7480

 Test job not archived.
 1\1\GINC-SE044\SP\RHF\Aug-CC-pVDZ\C4H7O1P1\OHZDE\08-Apr-2025\0\\#t hf
 aug-cc-pvdz iop(5/13=1,5/36=2,99/5=2) pseudo=read geom=check guess=(re
 ad,tcheck) scf=(maxcycle=1)\\title\\0,1\P,0,-0.11381,-1.335261,-0.1800
 57\C,0,1.031782,0.17378,0.007761\C,0,0.191088,1.447682,0.137103\C,0,-1
 .248642,1.124402,-0.272364\C,0,-1.596803,-0.278923,0.275624\H,0,-1.326
 514,1.11826,-1.365037\H,0,-1.955054,1.874282,0.091223\H,0,0.652871,2.2
 54325,-0.436767\H,0,0.236481,1.735794,1.195409\O,0,2.23257,0.12959,0.0
 07675\H,0,-2.50935,-0.670028,-0.175854\H,0,-1.74104,-0.24557,1.357927\

 Normal termination of Gaussian 16 at Tue Apr  8 23:32:24 2025.
