 Gaussian 16, Revision C.01,

 ----------------------------------------------------------------------
 #t hf aug-cc-pvdz symm=none int=(grid=ultrafine) guess=(read,tcheck) s
 table=(opt,rrhf)
 ----------------------------------------------------------------------
 -----
 title
 -----
 Symbolic Z-matrix:
 Charge =  0 Multiplicity = 1

 SCF Done:  E(RHF) =  -829.285503550     A.U. after   12 cycles
 Normal termination of Gaussian 16 at Wed Apr  9 00:17:57 2025.
 Gaussian 16:  ES64L-G16RevC.01  3-Jul-2019

 ----------------------------------------------------------------------
 #t hf aug-cc-pvdz iop(5/13=1,5/36=2,99/5=2) pseudo=read geom=check gue
 ss=(read,tcheck) scf=(maxcycle=1)
 ----------------------------------------------------------------------
 -----
 title
 -----
 Structure from the checkpoint file:  "BDE49_nonexpt_252_mol1.chk"
 Charge =  0 Multiplicity = 1

                         Standard orientation:
 ---------------------------------------------------------------------
 Center     Atomic      Atomic             Coordinates (Angstroms)
 Number     Number       Type             X           Y           Z
 ---------------------------------------------------------------------
      1          5           0       -0.228933    0.979876    0.000000
      2         17           0       -0.228213    2.765136    0.000000
      3          8           0       -0.227099    0.355922    1.200853
      4          8           0       -0.227099    0.355922   -1.200853
      5          6           0        0.413453   -1.667636   -0.000000
      6          6           0       -0.227099   -1.090837   -1.261605
      7          6           0       -0.227099   -1.090837    1.261605
      8          6           0        0.478078   -1.495075    2.545339
      9          1           0        1.523906   -1.178654    2.522211
     10          1           0        0.442460   -2.579734    2.678230
     11          1           0       -0.003549   -1.022853    3.403405
     12          1           0       -1.277481   -1.403065    1.309571
     13          1           0        1.486119   -1.439376   -0.000000
     14          1           0        0.308607   -2.756685   -0.000000
     15          6           0        0.478078   -1.495075   -2.545339
     16          1           0       -1.277481   -1.403065   -1.309571
     17          1           0        1.523906   -1.178654   -2.522211
     18          1           0       -0.003549   -1.022853   -3.403405
     19          1           0        0.442460   -2.579734   -2.678230
 ---------------------------------------------------------------------

 SCF Done:  E(RHF) =  -831.231414795     A.U. after    2 cycles

 The electronic state is 1-A'.
 Alpha  occ. eigenvalues --  -99.86460 -21.03421 -21.03371 -11.48249 -11.47061
 Alpha  occ. eigenvalues --  -11.42576 -11.39351 -11.37265 -10.43746  -9.63786
 Alpha  occ. eigenvalues --   -9.63371  -9.63141  -7.68792  -1.86592  -1.71161
 Alpha  occ. eigenvalues --   -1.31294  -1.22619  -1.12033  -1.02895  -0.88582
 Alpha  occ. eigenvalues --   -0.86582  -0.74208  -0.66427  -0.65457  -0.63792
 Alpha  occ. eigenvalues --   -0.63399  -0.56864  -0.55808  -0.55072  -0.54341
 Alpha  occ. eigenvalues --   -0.52390  -0.50664  -0.50495  -0.50066  -0.46620
 Alpha  occ. eigenvalues --   -0.42965  -0.39327  -0.34787  -0.33977
 Alpha virt. eigenvalues --    0.03203   0.04479   0.04734   0.05221   0.05426
 Alpha virt. eigenvalues --    0.05583   0.05706   0.05952   0.06303   0.07575
 Alpha virt. eigenvalues --    0.07990   0.08667   0.08921   0.09082   0.13079

 Mulliken charges:
               1
     1  B    6.634901
     2  Cl  -1.541671
     3  O   -4.950916
     4  O   -4.950916
     5  C   -4.252377
     6  C    1.884331
     7  C    1.884331
     8  C   -4.173554
     9  H    1.246916
    10  H    1.239306
    11  H    1.175374
    12  H    1.747437
    13  H    1.274829
    14  H    1.546529
    15  C   -4.173554
    16  H    1.747437
    17  H    1.246916
    18  H    1.175374
    19  H    1.239306
 Sum of Mulliken charges =   0.00000

 Dipole moment (field-independent basis, Debye):
    X=              0.0774    Y=             -3.9777    Z=              0.0000  Tot=              3.9785

 Test job not archived.
 1\1\GINC-SE284\SP\RHF\Aug-CC-pVDZ\C5H10B1Cl1O2\OHZDE\09-Apr-2025\0\\#t
  hf aug-cc-pvdz iop(5/13=1,5/36=2,99/5=2) pseudo=read geom=check guess
 =(read,tcheck) scf=(maxcycle=1)\\title\\0,1\B,0,1.001418,0.,-0.098631\
 Cl,0,2.771207,0.,0.135891\O,0,0.382598,1.200853,-0.178529\O,0,0.382598
 ,-1.200853,-0.178529\C,0,-1.707421,0.,0.191489\C,0,-1.051699,-1.261605
 ,-0.368005\C,0,-1.051699,1.261605,-0.368005\C,0,-1.54481,2.545339,0.27
 8157\H,0,-1.368082,2.522211,1.356417\H,0,-2.615462,2.67823,0.100792\H,
 0,-1.013578,3.403405,-0.137477\H,0,-1.223674,1.309571,-1.450231\H,0,-1

 Normal termination of Gaussian 16 at Wed Apr  9 00:18:03 2025.
