 Gaussian 16, Revision C.01,

 ----------------------------------------------------------------------
 #t hf aug-cc-pvdz symm=none int=(grid=ultrafine) guess=(read,tcheck) s
 table=(opt,rrhf)
 ----------------------------------------------------------------------
 -----
 title
 -----
 Symbolic Z-matrix:
 Charge =  0 Multiplicity = 1

 SCF Done:  E(RHF) =  -589.849334675     A.U. after   14 cycles
 Normal termination of Gaussian 16 at Tue Apr  8 23:17:46 2025.
 Gaussian 16:  ES64L-G16RevC.01  3-Jul-2019

 ----------------------------------------------------------------------
 #t hf aug-cc-pvdz iop(5/13=1,5/36=2,99/5=2) pseudo=read geom=check gue
 ss=(read,tcheck) scf=(maxcycle=1)
 ----------------------------------------------------------------------
 -----
 title
 -----
 Structure from the checkpoint file:  "BDE49_nonexpt_1019_mol1.chk"
 Charge =  0 Multiplicity = 1

                         Standard orientation:
 ---------------------------------------------------------------------
 Center     Atomic      Atomic             Coordinates (Angstroms)
 Number     Number       Type             X           Y           Z
 ---------------------------------------------------------------------
      1         17           0        1.184013   -0.103216   -0.000018
      2          7           0       -1.605075   -0.253797    0.000011
      3          8           0       -0.680522    0.636512    0.000024
      4          1           0       -1.724328   -0.780400    0.863688
      5          1           0       -1.724193   -0.780444   -0.863659
 ---------------------------------------------------------------------

 SCF Done:  E(RHF) =  -590.677900622     A.U. after    2 cycles

 The electronic state is 1-A.
 Alpha  occ. eigenvalues --  -99.89017 -21.19852 -15.85274 -10.45629  -9.65309
 Alpha  occ. eigenvalues --   -9.64854  -9.64818  -1.86610  -1.25397  -1.14272
 Alpha  occ. eigenvalues --   -0.76474  -0.66539  -0.59054  -0.51995  -0.48372
 Alpha  occ. eigenvalues --   -0.41339  -0.38511
 Alpha virt. eigenvalues --    0.03164   0.05059   0.05484   0.10400   0.12931
 Alpha virt. eigenvalues --    0.15199   0.15445   0.17850   0.18392   0.19382
 Alpha virt. eigenvalues --    0.20529   0.24180   0.25310   0.27420   0.27543

 Mulliken charges:
               1
     1  Cl  -0.157495
     2  N    0.368056
     3  O   -1.735240
     4  H    0.762341
     5  H    0.762337
 Sum of Mulliken charges =  -0.00000

 Dipole moment (field-independent basis, Debye):
    X=             -5.2182    Y=             -0.8424    Z=              0.0001  Tot=              5.2858

 Test job not archived.
 1\1\GINC-SE090\SP\RHF\Aug-CC-pVDZ\Cl1H2N1O1\OHZDE\08-Apr-2025\0\\#t hf
  aug-cc-pvdz iop(5/13=1,5/36=2,99/5=2) pseudo=read geom=check guess=(r
 ead,tcheck) scf=(maxcycle=1)\\title\\0,1\Cl,0,1.184013,-0.103216,-0.00
 0018\N,0,-1.605075,-0.253797,0.000011\O,0,-0.680522,0.636512,0.000024\
 H,0,-1.724328,-0.7804,0.863688\H,0,-1.724193,-0.780444,-0.863659\\Vers
 ion=ES64L-G16RevC.01\State=1-A\HF=-590.6779006\RMSD=4.292e-02\Dipole=-
 2.0530133,-0.3314259,0.0000335\Quadrupole=0.4353102,-0.1751724,-0.2601
 378,1.8743994,-0.0002319,0.0000561\PG=C01 [X(Cl1H2N1O1)]\\@

 Normal termination of Gaussian 16 at Tue Apr  8 23:17:47 2025.
