 Gaussian 16, Revision C.01,

 ----------------------------------------------------------------------
 #t hf aug-cc-pvdz symm=none int=(grid=ultrafine) guess=(read,tcheck) s
 table=(opt,rrhf)
 ----------------------------------------------------------------------
 -----
 title
 -----
 Symbolic Z-matrix:
 Charge =  0 Multiplicity = 1

 SCF Done:  E(RHF) =  -719.293949766     A.U. after   16 cycles
 Normal termination of Gaussian 16 at Wed Apr  9 00:54:49 2025.
 Gaussian 16:  ES64L-G16RevC.01  3-Jul-2019

 ----------------------------------------------------------------------
 #t hf aug-cc-pvdz iop(5/13=1,5/36=2,99/5=2) pseudo=read geom=check gue
 ss=(read,tcheck) scf=(maxcycle=1)
 ----------------------------------------------------------------------
 -----
 title
 -----
 Structure from the checkpoint file:  "BDE49_nonexpt_993_mol1.chk"
 Charge =  0 Multiplicity = 1

                         Standard orientation:
 ---------------------------------------------------------------------
 Center     Atomic      Atomic             Coordinates (Angstroms)
 Number     Number       Type             X           Y           Z
 ---------------------------------------------------------------------
      1          6           0       -1.249228    0.189319   -0.279980
      2         16           0        0.113513   -0.905827    0.300350
      3          7           0        1.583135    0.099593   -0.111057
      4          8           0        1.427530    1.166828   -0.668235
      5          8           0        2.631214   -0.414725    0.212897
      6          6           0       -2.479892   -0.711794   -0.448483
      7          1           0       -2.784335   -1.160850    0.501175
      8          1           0       -2.302710   -1.512240   -1.169211
      9          6           0       -1.495304    1.360493    0.668887
     10          1           0       -0.922032    0.554460   -1.255045
     11          1           0       -2.296824    1.991877    0.271979
     12          1           0       -0.602918    1.977412    0.773232
     13          1           0       -1.796643    1.006981    1.658217
     14          1           0       -3.316097   -0.106489   -0.808381
 ---------------------------------------------------------------------

 SCF Done:  E(RHF) =  -720.986008833     A.U. after    2 cycles

 The electronic state is 1-A.
 Alpha  occ. eigenvalues --  -75.75116 -21.10740 -21.10571 -16.01082 -13.20687
 Alpha  occ. eigenvalues --  -13.16643 -13.09369 -11.45956 -11.41305 -11.38483
 Alpha  occ. eigenvalues --   -8.08998  -2.00474  -1.70768  -1.30341  -1.14980
 Alpha  occ. eigenvalues --   -1.03306  -0.91541  -0.82491  -0.71612  -0.67788
 Alpha  occ. eigenvalues --   -0.64261  -0.62801  -0.60529  -0.58396  -0.56314
 Alpha  occ. eigenvalues --   -0.50918  -0.49428  -0.41123  -0.32649  -0.32467
 Alpha  occ. eigenvalues --   -0.31735  -0.27916
 Alpha virt. eigenvalues --    0.02609   0.04759   0.05143   0.05780   0.06268
 Alpha virt. eigenvalues --    0.06836   0.07373   0.08171   0.10034   0.11448
 Alpha virt. eigenvalues --    0.12134   0.13760   0.14326   0.14999   0.15201

 Mulliken charges:
               1
     1  C   -2.506636
     2  S    1.490894
     3  N    4.053767
     4  O   -2.599352
     5  O   -2.589777
     6  C   -3.611822
     7  H    1.322913
     8  H    1.299315
     9  C   -3.702092
    10  H    1.822879
    11  H    1.196225
    12  H    1.304394
    13  H    1.369477
    14  H    1.149814
 Sum of Mulliken charges =   0.00000

 Dipole moment (field-independent basis, Debye):
    X=             -3.1305    Y=             -1.2645    Z=              0.3163  Tot=              3.3910

 Test job not archived.
 1\1\GINC-SE457\SP\RHF\Aug-CC-pVDZ\C3H7N1O2S1\OHZDE\09-Apr-2025\0\\#t h
 f aug-cc-pvdz iop(5/13=1,5/36=2,99/5=2) pseudo=read geom=check guess=(
 read,tcheck) scf=(maxcycle=1)\\title\\0,1\C,0,-1.249228,0.189319,-0.27
 998\S,0,0.113513,-0.905827,0.30035\N,0,1.583135,0.099593,-0.111057\O,0
 ,1.42753,1.166828,-0.668235\O,0,2.631214,-0.414724,0.212897\C,0,-2.479
 892,-0.711795,-0.448483\H,0,-2.784335,-1.160851,0.501175\H,0,-2.30271,
 -1.512241,-1.169211\C,0,-1.495304,1.360493,0.668887\H,0,-0.922032,0.55
 446,-1.255045\H,0,-2.296825,1.991876,0.271979\H,0,-0.602919,1.977412,0

 Normal termination of Gaussian 16 at Wed Apr  9 00:54:54 2025.
