 Gaussian 16, Revision C.01,

 ----------------------------------------------------------------------
 #t hf aug-cc-pvdz symm=none int=(grid=ultrafine) guess=(read,tcheck) s
 table=(opt,rrhf)
 ----------------------------------------------------------------------
 -----
 title
 -----
 Symbolic Z-matrix:
 Charge =  0 Multiplicity = 1

 SCF Done:  E(RHF) =  -249.061088179     A.U. after   12 cycles
 Normal termination of Gaussian 16 at Tue Apr  8 22:38:45 2025.
 Gaussian 16:  ES64L-G16RevC.01  3-Jul-2019

 ----------------------------------------------------------------------
 #t hf aug-cc-pvdz iop(5/13=1,5/36=2,99/5=2) pseudo=read geom=check gue
 ss=(read,tcheck) scf=(maxcycle=1)
 ----------------------------------------------------------------------
 -----
 title
 -----
 Structure from the checkpoint file:  "BDE49_expt_1172_mol1.chk"
 Charge =  0 Multiplicity = 1

                         Standard orientation:
 ---------------------------------------------------------------------
 Center     Atomic      Atomic             Coordinates (Angstroms)
 Number     Number       Type             X           Y           Z
 ---------------------------------------------------------------------
      1          6           0       -0.770745   -0.514764    1.369933
      2          6           0       -0.276892    0.000019   -0.000014
      3          6           0        1.197275    0.000037   -0.000030
      4          7           0        2.350654    0.000001   -0.000005
      5          1           0       -0.418373   -1.531039    1.558586
      6          1           0       -1.863987   -0.520221    1.384247
      7          1           0       -0.418496    0.125850    2.181175
      8          6           0       -0.770781   -0.929034   -1.130741
      9          1           0       -0.418581   -1.951900   -0.981469
     10          1           0       -0.418369   -0.584377   -2.105210
     11          1           0       -1.864025   -0.938636   -1.142626
     12          6           0       -0.770804    1.443773   -0.239168
     13          1           0       -1.864042    1.458821   -0.241637
     14          1           0       -0.418525    1.826021   -1.199565
     15          1           0       -0.418496    2.115291    0.546651
 ---------------------------------------------------------------------

 SCF Done:  E(RHF) =  -250.290334375     A.U. after    2 cycles

 The electronic state is 1-A.
 Alpha  occ. eigenvalues --  -15.75095 -11.47645 -11.42942 -11.41085 -11.41085
 Alpha  occ. eigenvalues --  -11.37935  -1.35080  -1.24329  -1.02968  -1.02967
 Alpha  occ. eigenvalues --   -0.89206  -0.69459  -0.63034  -0.63034  -0.56741
 Alpha  occ. eigenvalues --   -0.56741  -0.56469  -0.53480  -0.48810  -0.48810
 Alpha  occ. eigenvalues --   -0.47344  -0.41230  -0.41229
 Alpha virt. eigenvalues --    0.03096   0.05075   0.05315   0.05315   0.05755
 Alpha virt. eigenvalues --    0.05755   0.06867   0.06867   0.08915   0.10032
 Alpha virt. eigenvalues --    0.11345   0.13097   0.13097   0.13597   0.14706

 Mulliken charges:
               1
     1  C   -3.917454
     2  C    0.670727
     3  C    2.469929
     4  N   -2.670285
     5  H    1.277492
     6  H    1.205689
     7  H    1.277455
     8  C   -3.917441
     9  H    1.277440
    10  H    1.277481
    11  H    1.205716
    12  C   -3.917393
    13  H    1.205730
    14  H    1.277441
    15  H    1.277475
 Sum of Mulliken charges =   0.00000

 Dipole moment (field-independent basis, Debye):
    X=             -3.6066    Y=              0.0000    Z=             -0.0000  Tot=              3.6066

 Test job not archived.
 1\1\GINC-SE232\SP\RHF\Aug-CC-pVDZ\C5H9N1\OHZDE\08-Apr-2025\0\\#t hf au
 g-cc-pvdz iop(5/13=1,5/36=2,99/5=2) pseudo=read geom=check guess=(read
 ,tcheck) scf=(maxcycle=1)\\title\\0,1\C,0,0.770746,0.531506,1.363525\C
 ,0,0.276892,-0.000019,-0.000014\C,0,-1.197275,-0.000037,-0.000029\N,0,
 -2.350654,-0.000001,-0.000004\H,0,0.418374,1.550016,1.539715\H,0,1.863
 988,0.537138,1.377771\H,0,0.418497,-0.099123,2.182553\C,0,0.770781,0.9
 15114,-1.142036\H,0,0.418581,1.939731,-1.005305\H,0,0.418369,0.558546,
 -2.11221\H,0,1.864025,0.924569,-1.154038\C,0,0.770804,-1.446594,-0.221

 Normal termination of Gaussian 16 at Tue Apr  8 22:38:50 2025.
