 Gaussian 16, Revision C.01,

 ----------------------------------------------------------------------
 #t hf aug-cc-pvdz symm=none int=(grid=ultrafine) guess=(read,tcheck) s
 table=(opt,rrhf)
 ----------------------------------------------------------------------
 -----
 title
 -----
 Symbolic Z-matrix:
 Charge =  0 Multiplicity = 1

 SCF Done:  E(RHF) =  -1022.45176704     A.U. after   12 cycles
 Normal termination of Gaussian 16 at Tue Apr  8 23:49:03 2025.
 Gaussian 16:  ES64L-G16RevC.01  3-Jul-2019

 ----------------------------------------------------------------------
 #t hf aug-cc-pvdz iop(5/13=1,5/36=2,99/5=2) pseudo=read geom=check gue
 ss=(read,tcheck) scf=(maxcycle=1)
 ----------------------------------------------------------------------
 -----
 title
 -----
 Structure from the checkpoint file:  "BDE49_nonexpt_180_mol1.chk"
 Charge =  0 Multiplicity = 1

                         Standard orientation:
 ---------------------------------------------------------------------
 Center     Atomic      Atomic             Coordinates (Angstroms)
 Number     Number       Type             X           Y           Z
 ---------------------------------------------------------------------
      1         17           0       -0.111449    1.631560   -0.000011
      2         17           0        1.856332   -0.658428   -0.000011
      3          5           0        0.171631   -0.111517    0.000028
      4          6           0       -0.984907   -1.159541    0.000018
      5          6           0       -2.429902   -0.643349    0.000010
      6          1           0       -0.811748   -1.817939   -0.863446
      7          1           0       -2.634523   -0.029199    0.879981
      8          1           0       -3.139759   -1.474051    0.000004
      9          1           0       -2.634512   -0.029195   -0.879960
     10          1           0       -0.811759   -1.817943    0.863482
 ---------------------------------------------------------------------

 SCF Done:  E(RHF) =  -1023.46210265     A.U. after    2 cycles

 The electronic state is 1-A.
 Alpha  occ. eigenvalues --  -99.89789 -99.89583 -11.40080 -11.35284 -10.47164
 Alpha  occ. eigenvalues --  -10.46835  -9.67119  -9.66797  -9.66680  -9.66430
 Alpha  occ. eigenvalues --   -9.66428  -9.66201  -7.70609  -1.40010  -1.29360
 Alpha  occ. eigenvalues --   -1.16987  -0.93640  -0.77608  -0.64846  -0.62830
 Alpha  occ. eigenvalues --   -0.61926  -0.56613  -0.55113  -0.52545  -0.49868
 Alpha  occ. eigenvalues --   -0.49231  -0.48920  -0.43664
 Alpha virt. eigenvalues --    0.02805   0.04093   0.04172   0.04367   0.06516
 Alpha virt. eigenvalues --    0.06615   0.07921   0.08137   0.09173   0.10071
 Alpha virt. eigenvalues --    0.11789   0.12707   0.13693   0.15273   0.16277

 Mulliken charges:
               1
     1  Cl  -1.230131
     2  Cl  -1.318139
     3  B    3.468387
     4  C   -4.241080
     5  C   -3.358146
     6  H    1.563706
     7  H    1.180935
     8  H    1.189776
     9  H    1.180937
    10  H    1.563754
 Sum of Mulliken charges =   0.00000

 Dipole moment (field-independent basis, Debye):
    X=             -1.3403    Y=             -1.0034    Z=              0.0000  Tot=              1.6743

 Test job not archived.
 1\1\GINC-SE059\SP\RHF\Aug-CC-pVDZ\C2H5B1Cl2\OHZDE\08-Apr-2025\0\\#t hf
  aug-cc-pvdz iop(5/13=1,5/36=2,99/5=2) pseudo=read geom=check guess=(r
 ead,tcheck) scf=(maxcycle=1)\\title\\0,1\Cl,0,-0.111449,1.63156,-0.000
 011\Cl,0,1.856332,-0.658428,-0.000011\B,0,0.171631,-0.111517,0.000028\
 C,0,-0.984907,-1.159541,0.000018\C,0,-2.429902,-0.643349,0.00001\H,0,-
 0.811748,-1.817939,-0.863446\H,0,-2.634523,-0.029199,0.879981\H,0,-3.1
 39759,-1.474051,0.000004\H,0,-2.634512,-0.029195,-0.87996\H,0,-0.81175
 9,-1.817943,0.863482\\Version=ES64L-G16RevC.01\State=1-A\HF=-1023.4621

 Normal termination of Gaussian 16 at Tue Apr  8 23:49:06 2025.
