 Gaussian 16, Revision C.01,

 ----------------------------------------------------------------------
 #t hf aug-cc-pvdz symm=none int=(grid=ultrafine) guess=(read,tcheck) s
 table=(opt,rrhf)
 ----------------------------------------------------------------------
 -----
 title
 -----
 Symbolic Z-matrix:
 Charge =  0 Multiplicity = 1

 SCF Done:  E(RHF) =  -1875.85020952     A.U. after   10 cycles
 Normal termination of Gaussian 16 at Tue Apr  8 22:48:31 2025.
 Gaussian 16:  ES64L-G16RevC.01  3-Jul-2019

 ----------------------------------------------------------------------
 #t hf aug-cc-pvdz iop(5/13=1,5/36=2,99/5=2) pseudo=read geom=check gue
 ss=(read,tcheck) scf=(maxcycle=1)
 ----------------------------------------------------------------------
 -----
 title
 -----
 Structure from the checkpoint file:  "BDE49_expt_1617_mol1.chk"
 Charge =  0 Multiplicity = 1

                         Standard orientation:
 ---------------------------------------------------------------------
 Center     Atomic      Atomic             Coordinates (Angstroms)
 Number     Number       Type             X           Y           Z
 ---------------------------------------------------------------------
      1          6           0        0.000023    0.000023   -0.000005
      2         17           0       -0.082523   -1.200595   -1.319633
      3         17           0       -1.018680    1.408046   -0.411616
      4         17           0        1.691259    0.531646    0.216254
      5         17           0       -0.590065   -0.739105    1.514997
 ---------------------------------------------------------------------

 SCF Done:  E(RHF) =  -1877.00241533     A.U. after    2 cycles

 The electronic state is 1-A.
 Alpha  occ. eigenvalues --  -99.93180 -99.93180 -99.93180 -99.93142 -11.59975
 Alpha  occ. eigenvalues --  -10.50846 -10.50443 -10.50443 -10.50443  -9.70442
 Alpha  occ. eigenvalues --   -9.70442  -9.70441  -9.70042  -9.69606  -9.69606
 Alpha  occ. eigenvalues --   -9.69606  -9.69481  -9.69481  -9.69481  -9.69429
 Alpha  occ. eigenvalues --   -9.69429  -1.50111  -1.32294  -1.32293  -1.32293
 Alpha  occ. eigenvalues --   -0.98081  -0.74253  -0.74253  -0.74253  -0.59853
 Alpha  occ. eigenvalues --   -0.59853  -0.53213  -0.53213  -0.53213  -0.51384
 Alpha  occ. eigenvalues --   -0.51384  -0.51383
 Alpha virt. eigenvalues --   -0.03617   0.04348   0.04349   0.04349   0.04782
 Alpha virt. eigenvalues --    0.09435   0.09435   0.09435   0.14337   0.14337
 Alpha virt. eigenvalues --    0.15712   0.15712   0.15712   0.18104   0.18104

 Mulliken charges:
               1
     1  C   -3.029327
     2  Cl   0.757335
     3  Cl   0.757331
     4  Cl   0.757334
     5  Cl   0.757327
 Sum of Mulliken charges =  -0.00000

 Dipole moment (field-independent basis, Debye):
    X=              0.0001    Y=              0.0001    Z=             -0.0000  Tot=              0.0001

 Test job not archived.
 1\1\GINC-SE143\SP\RHF\Aug-CC-pVDZ\C1Cl4\OHZDE\08-Apr-2025\0\\#t hf aug
 -cc-pvdz iop(5/13=1,5/36=2,99/5=2) pseudo=read geom=check guess=(read,
 tcheck) scf=(maxcycle=1)\\title\\0,1\C,0,-0.000023,0.000023,0.000005\C
 l,0,0.082527,-1.190712,1.328557\Cl,0,1.01574,1.412725,0.40275\Cl,0,-1.
 691808,0.527233,-0.222672\Cl,0,0.593548,-0.749254,-1.508638\\Version=E
 S64L-G16RevC.01\State=1-A\HF=-1877.0024153\RMSD=5.356e-02\Dipole=-0.00
 00301,0.0000258,0.0000119\Quadrupole=0.0002432,-0.0000176,-0.0002256,-
 0.0000116,0.0000651,-0.0000307\PG=C01 [X(C1Cl4)]\\@

 Normal termination of Gaussian 16 at Tue Apr  8 22:48:33 2025.
