 Gaussian 16, Revision C.01,

 ----------------------------------------------------------------------
 #t hf aug-cc-pvdz symm=none int=(grid=ultrafine) guess=(read,tcheck) s
 table=(opt,rrhf)
 ----------------------------------------------------------------------
 -----
 title
 -----
 Symbolic Z-matrix:
 Charge =  0 Multiplicity = 1

 SCF Done:  E(RHF) =  -802.394759474     A.U. after   16 cycles
 Normal termination of Gaussian 16 at Tue Apr  8 23:03:29 2025.
 Gaussian 16:  ES64L-G16RevC.01  3-Jul-2019

 ----------------------------------------------------------------------
 #t hf aug-cc-pvdz iop(5/13=1,5/36=2,99/5=2) pseudo=read geom=check gue
 ss=(read,tcheck) scf=(maxcycle=1)
 ----------------------------------------------------------------------
 -----
 title
 -----
 Structure from the checkpoint file:  "BDE49_expt_206_mol1.chk"
 Charge =  0 Multiplicity = 1

                         Standard orientation:
 ---------------------------------------------------------------------
 Center     Atomic      Atomic             Coordinates (Angstroms)
 Number     Number       Type             X           Y           Z
 ---------------------------------------------------------------------
      1          6           0        2.498244   -1.537916    0.000000
      2          8           0        3.588849   -1.016361    0.000000
      3          6           0        1.213149   -0.801729    0.000000
      4          1           0        2.395227   -2.644614    0.000000
      5          6           0        1.201402    0.598805   -0.000000
      6          6           0        0.000000    1.290280   -0.000000
      7          6           0       -1.195684    0.569521   -0.000000
      8          6           0       -1.208806   -0.822545    0.000000
      9          6           0        0.004026   -1.502446    0.000000
     10          1           0        0.010884   -2.587827    0.000000
     11          1           0        2.147985    1.125971   -0.000000
     12          1           0       -0.022828    2.372255   -0.000000
     13         17           0       -2.715624    1.438637   -0.000000
     14          1           0       -2.150441   -1.355559    0.000000
 ---------------------------------------------------------------------

 SCF Done:  E(RHF) =  -804.200409227     A.U. after    2 cycles

 The electronic state is 1-A'.
 Alpha  occ. eigenvalues --  -99.90946 -21.06820 -11.54009 -11.49650 -11.48023
 Alpha  occ. eigenvalues --  -11.47067 -11.44492 -11.44003 -11.39720 -10.48304
 Alpha  occ. eigenvalues --   -9.68327  -9.67426  -9.67251  -1.71614  -1.41905
 Alpha  occ. eigenvalues --   -1.30128  -1.12995  -1.12275  -0.93886  -0.90592
 Alpha  occ. eigenvalues --   -0.82765  -0.73296  -0.69292  -0.64132  -0.61362
 Alpha  occ. eigenvalues --   -0.61269  -0.58973  -0.55250  -0.53126  -0.51182
 Alpha  occ. eigenvalues --   -0.48795  -0.46819  -0.45756  -0.36173  -0.33685
 Alpha  occ. eigenvalues --   -0.30455
 Alpha virt. eigenvalues --    0.02768   0.04715   0.05785   0.05937   0.06929
 Alpha virt. eigenvalues --    0.06994   0.07939   0.08999   0.09276   0.10719
 Alpha virt. eigenvalues --    0.10783   0.11880   0.12408   0.12857   0.13382

 Mulliken charges:
               1
     1  C   -0.317968
     2  O   -3.152671
     3  C    2.617349
     4  H    1.255591
     5  C   -0.839203
     6  C   -1.603026
     7  C   -2.965830
     8  C   -2.288896
     9  C    0.983659
    10  H    1.837027
    11  H    1.845739
    12  H    1.764162
    13  Cl  -0.871751
    14  H    1.735820
 Sum of Mulliken charges =   0.00000

 Dipole moment (field-independent basis, Debye):
    X=              0.2355    Y=             -0.8847    Z=              0.0000  Tot=              0.9155

 Test job not archived.
 1\1\GINC-SE219\SP\RHF\Aug-CC-pVDZ\C7H5Cl1O1\OHZDE\08-Apr-2025\0\\#t hf
  aug-cc-pvdz iop(5/13=1,5/36=2,99/5=2) pseudo=read geom=check guess=(r
 ead,tcheck) scf=(maxcycle=1)\\title\\0,1\C,0,2.498244,-1.537916,0.\O,0
 ,3.588849,-1.016361,0.\C,0,1.213149,-0.801729,0.\H,0,2.395227,-2.64461
 4,0.\C,0,1.201402,0.598805,0.\C,0,0.,1.29028,0.\C,0,-1.195684,0.569521
 ,0.\C,0,-1.208806,-0.822545,0.\C,0,0.004026,-1.502446,0.\H,0,0.010884,
 -2.587827,0.\H,0,2.147985,1.125971,0.\H,0,-0.022828,2.372255,0.\Cl,0,-
 2.715624,1.438637,0.\H,0,-2.150441,-1.355559,0.\\Version=ES64L-G16RevC

 Normal termination of Gaussian 16 at Tue Apr  8 23:03:36 2025.
