 Gaussian 16, Revision C.01,

 ----------------------------------------------------------------------
 #t hf aug-cc-pvdz symm=none int=(grid=ultrafine) guess=(read,tcheck) s
 table=(opt,rrhf)
 ----------------------------------------------------------------------
 -----
 title
 -----
 Symbolic Z-matrix:
 Charge =  0 Multiplicity = 1

 SCF Done:  E(RHF) =  -644.458021236     A.U. after   17 cycles
 Normal termination of Gaussian 16 at Tue Apr  8 23:17:07 2025.
 Gaussian 16:  ES64L-G16RevC.01  3-Jul-2019

 ----------------------------------------------------------------------
 #t hf aug-cc-pvdz iop(5/13=1,5/36=2,99/5=2) pseudo=read geom=check gue
 ss=(read,tcheck) scf=(maxcycle=1)
 ----------------------------------------------------------------------
 -----
 title
 -----
 Structure from the checkpoint file:  "BDE49_nonexpt_1010_mol1.chk"
 Charge =  0 Multiplicity = 1

                         Standard orientation:
 ---------------------------------------------------------------------
 Center     Atomic      Atomic             Coordinates (Angstroms)
 Number     Number       Type             X           Y           Z
 ---------------------------------------------------------------------
      1         16           0       -0.769612   -1.004337   -0.407798
      2          7           0       -1.846296    0.508688   -0.267972
      3          8           0       -1.518732    1.328882    0.512386
      4          6           0        0.538096   -0.674166    0.811274
      5          6           0        1.897764   -0.295997    0.207506
      6          1           0        0.613244   -1.566607    1.435598
      7          1           0        0.148148    0.141237    1.433664
      8          6           0        1.905473    1.050005   -0.519670
      9          1           0        2.228332   -1.089497   -0.470248
     10          1           0        2.622229   -0.272635    1.030158
     11          1           0        1.197229    1.054289   -1.352372
     12          1           0        2.896476    1.265970   -0.926062
     13          1           0        1.634067    1.865705    0.156083
 ---------------------------------------------------------------------

 SCF Done:  E(RHF) =  -645.840491032     A.U. after    2 cycles

 The electronic state is 1-A.
 Alpha  occ. eigenvalues --  -75.71012 -21.15719 -15.91232 -13.13336 -13.11092
 Alpha  occ. eigenvalues --  -13.05466 -11.44532 -11.40027 -11.36121  -8.05000
 Alpha  occ. eigenvalues --   -1.89868  -1.26732  -1.14951  -1.01658  -0.90383
 Alpha  occ. eigenvalues --   -0.82173  -0.67095  -0.63300  -0.60867  -0.58257
 Alpha  occ. eigenvalues --   -0.56653  -0.55296  -0.50189  -0.48051  -0.47312
 Alpha  occ. eigenvalues --   -0.38767  -0.25859  -0.25450
 Alpha virt. eigenvalues --    0.03471   0.04803   0.05653   0.06078   0.06515
 Alpha virt. eigenvalues --    0.06789   0.07243   0.08177   0.10333   0.11857
 Alpha virt. eigenvalues --    0.12845   0.13476   0.14429   0.14538   0.15432

 Mulliken charges:
               1
     1  S    1.324665
     2  N    1.084758
     3  O   -1.905009
     4  C   -3.906736
     5  C   -2.626113
     6  H    1.326042
     7  H    1.815517
     8  C   -3.626325
     9  H    1.347123
    10  H    1.328166
    11  H    1.376318
    12  H    1.200457
    13  H    1.261136
 Sum of Mulliken charges =   0.00000

 Dipole moment (field-independent basis, Debye):
    X=              1.5388    Y=             -1.0587    Z=              0.4080  Tot=              1.9119

 Test job not archived.
 1\1\GINC-SE332\SP\RHF\Aug-CC-pVDZ\C3H7N1O1S1\OHZDE\08-Apr-2025\0\\#t h
 f aug-cc-pvdz iop(5/13=1,5/36=2,99/5=2) pseudo=read geom=check guess=(
 read,tcheck) scf=(maxcycle=1)\\title\\0,1\S,0,-0.769612,-1.004337,-0.4
 07798\N,0,-1.846296,0.508688,-0.267972\O,0,-1.518732,1.328882,0.512386
 \C,0,0.538096,-0.674166,0.811274\C,0,1.897764,-0.295997,0.207506\H,0,0
 .613244,-1.566607,1.435598\H,0,0.148148,0.141237,1.433664\C,0,1.905473
 ,1.050005,-0.51967\H,0,2.228332,-1.089497,-0.470248\H,0,2.622229,-0.27
 2635,1.030158\H,0,1.197229,1.054289,-1.352372\H,0,2.896476,1.26597,-0.

 Normal termination of Gaussian 16 at Tue Apr  8 23:17:11 2025.
