 Gaussian 16, Revision C.01,

 ----------------------------------------------------------------------
 #t hf aug-cc-pvdz symm=none int=(grid=ultrafine) guess=(read,tcheck) s
 table=(opt,rrhf)
 ----------------------------------------------------------------------
 -----
 title
 -----
 Symbolic Z-matrix:
 Charge =  0 Multiplicity = 1

 SCF Done:  E(RHF) =  -1590.53100920     A.U. after   14 cycles
 Normal termination of Gaussian 16 at Tue Apr  8 23:20:54 2025.
 Gaussian 16:  ES64L-G16RevC.01  3-Jul-2019

 ----------------------------------------------------------------------
 #t hf aug-cc-pvdz iop(5/13=1,5/36=2,99/5=2) pseudo=read geom=check gue
 ss=(read,tcheck) scf=(maxcycle=1)
 ----------------------------------------------------------------------
 -----
 title
 -----
 Structure from the checkpoint file:  "BDE49_nonexpt_1117_mol1.chk"
 Charge =  0 Multiplicity = 1

                         Standard orientation:
 ---------------------------------------------------------------------
 Center     Atomic      Atomic             Coordinates (Angstroms)
 Number     Number       Type             X           Y           Z
 ---------------------------------------------------------------------
      1          9           0        1.983966   -0.988205    0.000000
      2          8           0        1.368920    0.315700    0.000000
      3          6           0       -0.006811    0.121667   -0.000000
      4         17           0       -0.564043    1.812122   -0.000000
      5         17           0       -0.564043   -0.740230    1.462108
      6         17           0       -0.564043   -0.740230   -1.462108
 ---------------------------------------------------------------------

 SCF Done:  E(RHF) =  -1592.07540450     A.U. after    2 cycles

 The electronic state is 1-A'.
 Alpha  occ. eigenvalues --  -99.94369 -99.93494 -99.93475 -29.33702 -21.21398
 Alpha  occ. eigenvalues --  -11.60702 -10.51795 -10.50924 -10.50806  -9.71661
 Alpha  occ. eigenvalues --   -9.70819  -9.70775  -9.70659  -9.70558  -9.69903
 Alpha  occ. eigenvalues --   -9.69855  -9.69840  -9.69789  -1.89643  -1.43371
 Alpha  occ. eigenvalues --   -1.33670  -1.33048  -0.99266  -0.81176  -0.76168
 Alpha  occ. eigenvalues --   -0.74167  -0.63921  -0.60276  -0.57715  -0.54033
 Alpha  occ. eigenvalues --   -0.53544  -0.52103  -0.51807  -0.49205  -0.39550
 Alpha  occ. eigenvalues --   -0.31519  -0.27115
 Alpha virt. eigenvalues --   -0.00908   0.05145   0.05988   0.06315   0.09146
 Alpha virt. eigenvalues --    0.09494   0.12306   0.13227   0.14003   0.15045
 Alpha virt. eigenvalues --    0.16106   0.17555   0.17637   0.18316   0.18553

 Mulliken charges:
               1
     1  F    0.131496
     2  O   -1.055246
     3  C   -0.711989
     4  Cl   0.468653
     5  Cl   0.583543
     6  Cl   0.583543
 Sum of Mulliken charges =   0.00000

 Dipole moment (field-independent basis, Debye):
    X=              2.8773    Y=             -1.8024    Z=              0.0000  Tot=              3.3952

 Test job not archived.
 1\1\GINC-SE163\SP\RHF\Aug-CC-pVDZ\C1Cl3F1O1\OHZDE\08-Apr-2025\0\\#t hf
  aug-cc-pvdz iop(5/13=1,5/36=2,99/5=2) pseudo=read geom=check guess=(r
 ead,tcheck) scf=(maxcycle=1)\\title\\0,1\F,0,1.983966,-0.988205,0.\O,0
 ,1.36892,0.3157,0.\C,0,-0.006811,0.121667,0.\Cl,0,-0.564043,1.812122,0
 .\Cl,0,-0.564043,-0.74023,1.462108\Cl,0,-0.564043,-0.74023,-1.462108\\
 Version=ES64L-G16RevC.01\State=1-A'\HF=-1592.0754045\RMSD=5.086e-02\Di
 pole=1.1320312,-0.7091132,0.\Quadrupole=1.3541785,-0.0466321,-1.307546
 4,-2.2976462,0.,0.\PG=CS [SG(C1Cl1F1O1),X(Cl2)]\\@

 Normal termination of Gaussian 16 at Tue Apr  8 23:20:56 2025.
