 Gaussian 16, Revision C.01,

 ----------------------------------------------------------------------
 #t hf aug-cc-pvdz symm=none int=(grid=ultrafine) guess=(read,tcheck) s
 table=(opt,rrhf)
 ----------------------------------------------------------------------
 -----
 title
 -----
 Symbolic Z-matrix:
 Charge =  0 Multiplicity = 1

 SCF Done:  E(RHF) =  -876.880069739     A.U. after   16 cycles
 Normal termination of Gaussian 16 at Tue Apr  8 23:33:07 2025.
 Gaussian 16:  ES64L-G16RevC.01  3-Jul-2019

 ----------------------------------------------------------------------
 #t hf aug-cc-pvdz iop(5/13=1,5/36=2,99/5=2) pseudo=read geom=check gue
 ss=(read,tcheck) scf=(maxcycle=1)
 ----------------------------------------------------------------------
 -----
 title
 -----
 Structure from the checkpoint file:  "BDE49_nonexpt_1378_mol1.chk"
 Charge =  0 Multiplicity = 1

                         Standard orientation:
 ---------------------------------------------------------------------
 Center     Atomic      Atomic             Coordinates (Angstroms)
 Number     Number       Type             X           Y           Z
 ---------------------------------------------------------------------
      1          9           0       -2.709768   -0.367797   -0.532913
      2          8           0       -0.318960   -2.367537   -0.502622
      3          8           0       -1.042980    2.376796   -0.204749
      4         15           0       -1.595240   -0.192974    0.632692
      5          7           0        0.741300    0.934570    0.003010
      6          6           0       -0.589937    1.274277    0.016300
      7          6           0       -0.209924   -1.260325   -0.050995
      8          6           0        1.133384   -0.493137    0.055710
      9          6           0        1.741143    1.978680   -0.199197
     10          1           0        2.131009    1.968811   -1.221013
     11          1           0        1.258962    2.938478   -0.024190
     12          6           0        2.041769   -0.881474   -1.116317
     13          1           0        3.033308   -0.435902   -1.011537
     14          1           0        2.149944   -1.966069   -1.141149
     15          1           0        1.609517   -0.562029   -2.066901
     16          1           0        2.570983    1.853381    0.499815
     17          6           0        1.785454   -0.849289    1.407882
     18          1           0        2.719572   -0.297871    1.540126
     19          1           0        2.013337   -1.916678    1.444616
     20          1           0        1.124970   -0.605794    2.243668
 ---------------------------------------------------------------------

 SCF Done:  E(RHF) =  -879.386478370     A.U. after    2 cycles

 The electronic state is 1-A.
 Alpha  occ. eigenvalues -- -105.26189 -29.29179 -21.09788 -21.05133 -15.77385
 Alpha  occ. eigenvalues --  -11.52742 -11.50282 -11.48513 -11.42695 -11.42089
 Alpha  occ. eigenvalues --  -11.39775  -2.85353  -1.75238  -1.73047  -1.60607
 Alpha  occ. eigenvalues --   -1.54638  -1.52875  -1.46500  -1.21622  -1.06398
 Alpha  occ. eigenvalues --   -1.04708  -0.93354  -0.90088  -0.78492  -0.68676
 Alpha  occ. eigenvalues --   -0.66919  -0.65492  -0.62226  -0.60877  -0.60143
 Alpha  occ. eigenvalues --   -0.57193  -0.56706  -0.53300  -0.52625  -0.51336
 Alpha  occ. eigenvalues --   -0.50626  -0.48280  -0.46711  -0.44836  -0.36889
 Alpha  occ. eigenvalues --   -0.34548  -0.34115  -0.31402  -0.18905  -0.16040
 Alpha  occ. eigenvalues --   -0.02674
 Alpha virt. eigenvalues --    0.03402   0.04639   0.04864   0.05094   0.05829
 Alpha virt. eigenvalues --    0.05868   0.07360   0.08035   0.08077   0.08438
 Alpha virt. eigenvalues --    0.08859   0.10047   0.11485   0.12124   0.12617

 Mulliken charges:
               1
     1  F   -0.178701
     2  O   -3.444182
     3  O   -3.319698
     4  P    3.478989
     5  N   -3.766468
     6  C    3.683781
     7  C    3.466810
     8  C    0.692925
     9  C   -3.840718
    10  H    1.449397
    11  H    1.382903
    12  C   -4.135367
    13  H    1.177831
    14  H    1.241957
    15  H    1.164268
    16  H    1.532261
    17  C   -4.281356
    18  H    1.219746
    19  H    1.320432
    20  H    1.155191
 Sum of Mulliken charges =   0.00000

 Dipole moment (field-independent basis, Debye):
    X=             -2.8208    Y=             -0.6177    Z=             -1.4575  Tot=              3.2346

 Test job not archived.
 1\1\GINC-SE460\SP\RHF\Aug-CC-pVDZ\C6H9F1N1O2P1\OHZDE\08-Apr-2025\0\\#t
  hf aug-cc-pvdz iop(5/13=1,5/36=2,99/5=2) pseudo=read geom=check guess
 =(read,tcheck) scf=(maxcycle=1)\\title\\0,1\F,0,-2.709768,-0.367797,-0
 .532913\O,0,-0.31896,-2.367537,-0.502622\O,0,-1.04298,2.376796,-0.2047
 49\P,0,-1.59524,-0.192974,0.632692\N,0,0.7413,0.93457,0.00301\C,0,-0.5
 89937,1.274277,0.0163\C,0,-0.209924,-1.260325,-0.050995\C,0,1.133384,-
 0.493137,0.05571\C,0,1.741143,1.97868,-0.199197\H,0,2.131009,1.968811,
 -1.221013\H,0,1.258962,2.938478,-0.02419\C,0,2.041769,-0.881474,-1.116

 Normal termination of Gaussian 16 at Tue Apr  8 23:33:19 2025.
