 Gaussian 16, Revision C.01,

 ----------------------------------------------------------------------
 #t hf aug-cc-pvdz symm=none int=(grid=ultrafine) guess=(read,tcheck) s
 table=opt
 ----------------------------------------------------------------------
 -----
 title
 -----
 Symbolic Z-matrix:
 Charge =  0 Multiplicity = 2

 SCF Done:  E(UHF) =  -588.864316292     A.U. after   22 cycles
 Normal termination of Gaussian 16 at Tue Apr  8 23:43:21 2025.
 Gaussian 16:  ES64L-G16RevC.01  3-Jul-2019

 ----------------------------------------------------------------------
 #t hf aug-cc-pvdz iop(5/13=1,5/36=2,99/5=2) pseudo=read geom=check gue
 ss=(read,tcheck) scf=(maxcycle=1)
 ----------------------------------------------------------------------
 -----
 title
 -----
 Structure from the checkpoint file:  "BDE49_nonexpt_1699_mol2.chk"
 Charge =  0 Multiplicity = 2

                         Standard orientation:
 ---------------------------------------------------------------------
 Center     Atomic      Atomic             Coordinates (Angstroms)
 Number     Number       Type             X           Y           Z
 ---------------------------------------------------------------------
      1         16           0        1.824400   -0.073949   -0.000001
      2          8           0        0.279491   -0.663035   -0.000003
      3          6           0       -0.860086    0.146521    0.000000
      4          6           0       -0.840005    1.476157    0.000000
      5          6           0       -2.070206   -0.734245    0.000004
      6          1           0       -2.980633   -0.135117    0.000006
      7          1           0       -2.070530   -1.381550    0.881357
      8          1           0       -2.070534   -1.381553   -0.881347
      9          1           0        0.088401    2.030289   -0.000004
     10          1           0       -1.771254    2.024799    0.000002
 ---------------------------------------------------------------------

 SCF Done:  E(UHF) =  -589.947249271     A.U. after    2 cycles

 The electronic state is 2-A.
 Alpha  occ. eigenvalues --  -75.75202 -21.11033 -13.21405 -13.10089 -13.08219
 Alpha  occ. eigenvalues --  -11.46357 -11.39326 -11.37540  -8.08497  -1.81043
 Alpha  occ. eigenvalues --   -1.18949  -1.04519  -1.01674  -0.75755  -0.64329
 Alpha  occ. eigenvalues --   -0.61412  -0.59862  -0.52681  -0.51052  -0.49284
 Alpha  occ. eigenvalues --   -0.42375  -0.35579  -0.25436  -0.25024
 Alpha virt. eigenvalues --    0.03203   0.05260   0.05626   0.06301   0.06813
 Alpha virt. eigenvalues --    0.07847   0.09830   0.11357   0.12807   0.13358
 Alpha virt. eigenvalues --    0.14798   0.14846   0.16203   0.17000   0.17064

  Beta  occ. eigenvalues --  -75.74272 -21.10411 -13.21047 -13.09552 -13.02473
  Beta  occ. eigenvalues --  -11.46646 -11.39245 -11.37336  -8.07455  -1.79739
  Beta  occ. eigenvalues --   -1.18414  -1.01573  -0.96907  -0.74857  -0.64175
  Beta  occ. eigenvalues --   -0.60933  -0.59779  -0.52583  -0.48978  -0.48014
  Beta  occ. eigenvalues --   -0.41521  -0.31869  -0.23684
  Beta virt. eigenvalues --    0.03246   0.04570   0.05369   0.05678   0.06341
  Beta virt. eigenvalues --    0.06861   0.07936   0.10042   0.11528   0.13459
  Beta virt. eigenvalues --    0.14834   0.15013   0.15780   0.16381   0.17123

 Mulliken charges and spin densities:
               1          2
     1  S    0.722312   0.948347
     2  O   -3.276721   0.028294
     3  C    3.324884  -0.244070
     4  C   -3.890793   0.249691
     5  C   -3.732806   0.064641
     6  H    1.248906  -0.001877
     7  H    1.181271  -0.003574
     8  H    1.181271  -0.003574
     9  H    1.749834  -0.034434
    10  H    1.491843  -0.003444
 Sum of Mulliken charges =   0.00000   1.00000

 Dipole moment (field-independent basis, Debye):
    X=             -0.1522    Y=             -0.0931    Z=              0.0000  Tot=              0.1784
                          Isotropic Fermi Contact Couplings
        Atom                 a.u.       MegaHertz       Gauss      10(-4) cm-1
     1  S(33)              0.27483      94.39602      33.68285      31.48712
     2  O(17)              0.03824     -23.18275      -8.27218      -7.73293
     3  C(13)             -0.02297     -25.82089      -9.21354      -8.61292
     4  C(13)              0.01661      18.67418       6.66341       6.22904
     5  C(13)              0.00358       4.02026       1.43453       1.34102
     6  H(1)              -0.00034      -1.50107      -0.53562      -0.50070
     7  H(1)              -0.00150      -6.72505      -2.39966      -2.24323
     8  H(1)              -0.00150      -6.72504      -2.39966      -2.24323

 Normal termination of Gaussian 16 at Tue Apr  8 23:43:25 2025.
