 Gaussian 16, Revision C.01,

 ----------------------------------------------------------------------
 #t hf aug-cc-pvdz symm=none int=(grid=ultrafine) guess=(read,tcheck) s
 table=(opt,rrhf)
 ----------------------------------------------------------------------
 -----
 title
 -----
 Symbolic Z-matrix:
 Charge =  0 Multiplicity = 1

 SCF Done:  E(RHF) =  -399.664624171     A.U. after   16 cycles
 Normal termination of Gaussian 16 at Tue Apr  8 23:09:51 2025.
 Gaussian 16:  ES64L-G16RevC.01  3-Jul-2019

 ----------------------------------------------------------------------
 #t hf aug-cc-pvdz iop(5/13=1,5/36=2,99/5=2) pseudo=read geom=check gue
 ss=(read,tcheck) scf=(maxcycle=1)
 ----------------------------------------------------------------------
 -----
 title
 -----
 Structure from the checkpoint file:  "BDE49_expt_470_mol1.chk"
 Charge =  0 Multiplicity = 1

                         Standard orientation:
 ---------------------------------------------------------------------
 Center     Atomic      Atomic             Coordinates (Angstroms)
 Number     Number       Type             X           Y           Z
 ---------------------------------------------------------------------
      1          6           0       -2.280819   -0.655172    0.006996
      2          6           0       -1.847498    0.671186   -0.000634
      3          6           0       -0.487922    0.985566   -0.010106
      4          6           0       -1.356318   -1.690183    0.003978
      5          6           0        0.012144   -1.397701   -0.001130
      6          6           0        0.444782   -0.077457   -0.006941
      7          1           0       -3.343260   -0.869919    0.013220
      8          1           0       -2.571202    1.480280   -0.007380
      9          7           0       -0.022320    2.297033   -0.078897
     10          1           0       -0.637653    2.990393    0.319309
     11          1           0        0.938226    2.405751    0.211915
     12          1           0        0.730334   -2.207103    0.002438
     13          8           0        1.759052    0.325092    0.000956
     14          1           0       -1.682739   -2.723236    0.007555
     15          6           0        2.768279   -0.671495    0.004769
     16          1           0        3.718035   -0.138388    0.007306
     17          1           0        2.710677   -1.302435   -0.889254
     18          1           0        2.705510   -1.303769    0.897930
 ---------------------------------------------------------------------

 SCF Done:  E(RHF) =  -401.536667028     A.U. after    2 cycles

 The electronic state is 1-A.
 Alpha  occ. eigenvalues --  -21.07058 -15.74727 -11.52496 -11.44951 -11.44151
 Alpha  occ. eigenvalues --  -11.41650 -11.40695 -11.39836 -11.35576  -1.78624
 Alpha  occ. eigenvalues --   -1.38525  -1.25639  -1.08182  -1.05577  -0.98484
 Alpha  occ. eigenvalues --   -0.85997  -0.82637  -0.70083  -0.67888  -0.65244
 Alpha  occ. eigenvalues --   -0.62435  -0.62010  -0.57723  -0.56947  -0.53834
 Alpha  occ. eigenvalues --   -0.52505  -0.48120  -0.44157  -0.42502  -0.40476
 Alpha  occ. eigenvalues --   -0.39076  -0.29455  -0.23978
 Alpha virt. eigenvalues --    0.03483   0.04616   0.05306   0.05793   0.06034
 Alpha virt. eigenvalues --    0.06438   0.06986   0.07980   0.08910   0.10947
 Alpha virt. eigenvalues --    0.12400   0.12616   0.13071   0.13840   0.14078

 Mulliken charges:
               1
     1  C   -1.433851
     2  C   -1.181477
     3  C   -0.228325
     4  C   -1.123888
     5  C   -2.748066
     6  C    6.795866
     7  H    1.553911
     8  H    1.707912
     9  N   -3.713498
    10  H    0.570759
    11  H    0.805373
    12  H    1.953562
    13  O   -4.973276
    14  H    1.553925
    15  C   -3.633988
    16  H    1.444968
    17  H    1.322577
    18  H    1.327515
 Sum of Mulliken charges =   0.00000

 Dipole moment (field-independent basis, Debye):
    X=              1.3596    Y=              0.6855    Z=              0.7533  Tot=              1.6988

 Test job not archived.
 1\1\GINC-SE361\SP\RHF\Aug-CC-pVDZ\C7H9N1O1\OHZDE\08-Apr-2025\0\\#t hf
 aug-cc-pvdz iop(5/13=1,5/36=2,99/5=2) pseudo=read geom=check guess=(re
 ad,tcheck) scf=(maxcycle=1)\\title\\0,1\C,0,-2.280819,-0.655172,0.0069
 96\C,0,-1.847498,0.671186,-0.000634\C,0,-0.487922,0.985566,-0.010106\C
 ,0,-1.356318,-1.690183,0.003978\C,0,0.012144,-1.397701,-0.00113\C,0,0.
 444782,-0.077457,-0.006941\H,0,-3.34326,-0.869918,0.01322\H,0,-2.57120
 2,1.48028,-0.00738\N,0,-0.02232,2.297033,-0.078897\H,0,-0.637653,2.990
 393,0.319309\H,0,0.938226,2.405751,0.211915\H,0,0.730333,-2.207103,0.0

 Normal termination of Gaussian 16 at Tue Apr  8 23:09:59 2025.
