 Gaussian 16, Revision C.01,

 ----------------------------------------------------------------------
 #t hf aug-cc-pvdz symm=none int=(grid=ultrafine) guess=(read,tcheck) s
 table=(opt,rrhf)
 ----------------------------------------------------------------------
 -----
 title
 -----
 Symbolic Z-matrix:
 Charge =  0 Multiplicity = 1

 SCF Done:  E(RHF) =  -272.367010437     A.U. after   13 cycles
 Normal termination of Gaussian 16 at Wed Apr  9 00:39:04 2025.
 Gaussian 16:  ES64L-G16RevC.01  3-Jul-2019

 ----------------------------------------------------------------------
 #t hf aug-cc-pvdz iop(5/13=1,5/36=2,99/5=2) pseudo=read geom=check gue
 ss=(read,tcheck) scf=(maxcycle=1)
 ----------------------------------------------------------------------
 -----
 title
 -----
 Structure from the checkpoint file:  "BDE49_nonexpt_590_mol1.chk"
 Charge =  0 Multiplicity = 1

                         Standard orientation:
 ---------------------------------------------------------------------
 Center     Atomic      Atomic             Coordinates (Angstroms)
 Number     Number       Type             X           Y           Z
 ---------------------------------------------------------------------
      1          6           0       -1.589578    0.231965   -0.000018
      2          5           0        0.937101   -0.021649   -0.000035
      3          6           0        2.099446   -1.083168   -0.000001
      4          1           0        1.774775   -2.127778    0.000011
      5          1           0        2.748050   -0.931348    0.871792
      6          1           0        2.748070   -0.931375   -0.871784
      7          6           0        1.245193    1.529828   -0.000006
      8          1           0        2.318743    1.732447   -0.000001
      9          1           0        0.819517    2.032897    0.876038
     10          1           0        0.819517    2.032931   -0.876030
     11          8           0       -2.691608   -0.260621    0.000057
     12          7           0       -0.413467   -0.501114   -0.000024
     13          1           0       -1.422604    1.321389    0.000035
     14          1           0       -0.594806   -1.499896   -0.000016
 ---------------------------------------------------------------------

 SCF Done:  E(RHF) =  -273.630039377     A.U. after    2 cycles

 The electronic state is 1-A.
 Alpha  occ. eigenvalues --  -21.04767 -15.74519 -11.49093 -11.34636 -11.34164
 Alpha  occ. eigenvalues --   -7.61755  -1.71356  -1.39358  -1.11476  -1.02383
 Alpha  occ. eigenvalues --   -0.88000  -0.77019  -0.64559  -0.60843  -0.58114
 Alpha  occ. eigenvalues --   -0.54613  -0.54347  -0.52763  -0.52717  -0.46466
 Alpha  occ. eigenvalues --   -0.42027  -0.35493  -0.30070
 Alpha virt. eigenvalues --    0.02672   0.03775   0.04150   0.04710   0.07377
 Alpha virt. eigenvalues --    0.07491   0.07736   0.08058   0.08353   0.08895
 Alpha virt. eigenvalues --    0.09165   0.09582   0.12587   0.13488   0.14571

 Mulliken charges:
               1
     1  C    2.472456
     2  B    7.522083
     3  C   -6.233690
     4  H    1.240644
     5  H    0.762593
     6  H    0.762527
     7  C   -6.279199
     8  H    1.018635
     9  H    0.941554
    10  H    0.941560
    11  O   -2.734239
    12  N   -2.969655
    13  H    1.627486
    14  H    0.927245
 Sum of Mulliken charges =   0.00000

 Dipole moment (field-independent basis, Debye):
    X=              1.8363    Y=              0.0622    Z=             -0.0000  Tot=              1.8374

 Test job not archived.
 1\1\GINC-SE332\SP\RHF\Aug-CC-pVDZ\C3H8B1N1O1\OHZDE\09-Apr-2025\0\\#t h
 f aug-cc-pvdz iop(5/13=1,5/36=2,99/5=2) pseudo=read geom=check guess=(
 read,tcheck) scf=(maxcycle=1)\\title\\0,1\C,0,-1.589578,0.231965,-0.00
 0018\B,0,0.937101,-0.021649,-0.000035\C,0,2.099446,-1.083168,-0.000001
 \H,0,1.774775,-2.127778,0.000011\H,0,2.74805,-0.931348,0.871792\H,0,2.
 74807,-0.931375,-0.871784\C,0,1.245193,1.529828,-0.000006\H,0,2.318743
 ,1.732447,-0.000001\H,0,0.819517,2.032897,0.876038\H,0,0.819517,2.0329
 31,-0.87603\O,0,-2.691608,-0.260622,0.000057\N,0,-0.413467,-0.501114,-

 Normal termination of Gaussian 16 at Wed Apr  9 00:39:07 2025.
