 Gaussian 16, Revision C.01,

 ----------------------------------------------------------------------
 #t hf aug-cc-pvdz symm=none int=(grid=ultrafine) guess=(read,tcheck) s
 table=opt
 ----------------------------------------------------------------------
 -----
 title
 -----
 Symbolic Z-matrix:
 Charge =  0 Multiplicity = 2

 SCF Done:  E(UHF) =  -583.675623475     A.U. after   14 cycles

 1\1\GINC-SE094\Stability\UHF\Aug-CC-pVDZ\B1Cl1F1\OHZDE\08-Apr-2025\0\\
 #t hf aug-cc-pvdz symm=none int=(grid=ultrafine) guess=(read,tcheck) s
 table=opt\\title\\0,2\B,0,0.,0.822376,0.\F,0,1.286013,1.045097,0.\Cl,0
 ,-0.68083,-0.795162,0.\\Version=ES64L-G16RevC.01\HF=-583.6756235\S2=0.
 753922\S2-1=0.\S2A=0.750009\RMSD=4.882e-09\Dipole=-0.1024391,0.1116072
 ,0.\Quadrupole=-1.1936166,0.0177909,1.1758257,-0.268604,0.,0.\PG=Unkno
 wn\\@
 The archive entry for this job was punched.

 Normal termination of Gaussian 16 at Tue Apr  8 23:52:16 2025.
 Gaussian 16:  ES64L-G16RevC.01  3-Jul-2019

 ----------------------------------------------------------------------
 #t hf aug-cc-pvdz iop(5/13=1,5/36=2,99/5=2) pseudo=read geom=check gue
 ss=(read,tcheck) scf=(maxcycle=1)
 ----------------------------------------------------------------------
 -----
 title
 -----
 Structure from the checkpoint file:  "BDE49_nonexpt_18_mol2.chk"
 Charge =  0 Multiplicity = 2

                         Standard orientation:
 ---------------------------------------------------------------------
 Center     Atomic      Atomic             Coordinates (Angstroms)
 Number     Number       Type             X           Y           Z
 ---------------------------------------------------------------------
      1          5           0        0.000000    0.822376    0.000000
      2          9           0        1.286013    1.045097    0.000000
      3         17           0       -0.680830   -0.795162    0.000000
 ---------------------------------------------------------------------

 SCF Done:  E(UHF) =  -584.333035638     A.U. after    2 cycles

 The electronic state is 2-A'.
 Alpha  occ. eigenvalues --  -99.91560 -29.28911 -10.48873  -9.68913  -9.68194
 Alpha  occ. eigenvalues --   -9.68027  -7.74736  -1.37413  -0.98162  -0.68386
 Alpha  occ. eigenvalues --   -0.59104  -0.58026  -0.48974  -0.43892  -0.40883
 Alpha  occ. eigenvalues --   -0.28354
 Alpha virt. eigenvalues --    0.03772   0.03909   0.04705   0.07953   0.10797
 Alpha virt. eigenvalues --    0.12256   0.16260   0.16644   0.19020   0.20433
 Alpha virt. eigenvalues --    0.21562   0.22154   0.24569   0.24837   0.26485

  Beta  occ. eigenvalues --  -99.91418 -29.28623 -10.48707  -9.68470  -9.68005
  Beta  occ. eigenvalues --   -9.67952  -7.72517  -1.35893  -0.94874  -0.66349
  Beta  occ. eigenvalues --   -0.57595  -0.55627  -0.43569  -0.43158  -0.39782
  Beta virt. eigenvalues --    0.02319   0.03919   0.04137   0.07056   0.09763
  Beta virt. eigenvalues --    0.12721   0.13492   0.16589   0.16962   0.20038
  Beta virt. eigenvalues --    0.21119   0.21681   0.23460   0.24928   0.25433

 Mulliken charges and spin densities:
               1          2
     1  B    0.556986   1.066093
     2  F    0.222209  -0.166389
     3  Cl  -0.779196   0.100297
 Sum of Mulliken charges =   0.00000   1.00000

 Dipole moment (field-independent basis, Debye):
    X=              3.6615    Y=              1.4533    Z=              0.0000  Tot=              3.9393
                          Isotropic Fermi Contact Couplings
        Atom                 a.u.       MegaHertz       Gauss      10(-4) cm-1
     1  B(11)              0.29136     417.91225     149.12148     139.40052
     2  F(19)              0.07424     312.38094     111.46529     104.19907
     3  Cl(35)             0.25185     110.42832      39.40357      36.83492
 --------------------------------------------------------
       Center         ----  Spin Dipole Couplings  ----
                      3XX-RR        3YY-RR        3ZZ-RR
 --------------------------------------------------------
     1   Atom        0.116677      0.039136     -0.155813

 Normal termination of Gaussian 16 at Tue Apr  8 23:52:17 2025.
