 Gaussian 16, Revision C.01,

 ----------------------------------------------------------------------
 #t hf aug-cc-pvdz symm=none int=(grid=ultrafine) guess=(read,tcheck) s
 table=(opt,rrhf)
 ----------------------------------------------------------------------
 -----
 title
 -----
 Symbolic Z-matrix:
 Charge =  0 Multiplicity = 1

 SCF Done:  E(RHF) =  -423.184141365     A.U. after   12 cycles
 Normal termination of Gaussian 16 at Wed Apr  9 00:01:26 2025.
 Gaussian 16:  ES64L-G16RevC.01  3-Jul-2019

 ----------------------------------------------------------------------
 #t hf aug-cc-pvdz iop(5/13=1,5/36=2,99/5=2) pseudo=read geom=check gue
 ss=(read,tcheck) scf=(maxcycle=1)
 ----------------------------------------------------------------------
 -----
 title
 -----
 Structure from the checkpoint file:  "BDE49_nonexpt_2129_mol1.chk"
 Charge =  0 Multiplicity = 1

                         Standard orientation:
 ---------------------------------------------------------------------
 Center     Atomic      Atomic             Coordinates (Angstroms)
 Number     Number       Type             X           Y           Z
 ---------------------------------------------------------------------
      1          7           0        1.728165    0.000010   -0.438952
      2         14           0        0.277656   -0.000012    0.480657
      3          1           0        2.297501   -0.832353   -0.492092
      4          1           0        2.297484    0.832385   -0.492077
      5          6           0       -1.227457   -0.782098   -0.247804
      6          6           0       -1.227454    0.782111   -0.247769
      7          1           0       -1.162693    1.251151   -1.224741
      8          1           0       -1.958328    1.258814    0.398619
      9          1           0       -1.958333   -1.258826    0.398565
     10          1           0       -1.162698   -1.251095   -1.224796
     11          1           0        0.392188   -0.000046    1.953423
 ---------------------------------------------------------------------

 SCF Done:  E(RHF) =  -424.007979551     A.U. after    2 cycles

 The electronic state is 1-A.
 Alpha  occ. eigenvalues --  -76.20369 -15.73408 -11.37454 -11.33555  -5.54775
 Alpha  occ. eigenvalues --   -2.21628  -2.17902  -2.15685  -1.25993  -1.13974
 Alpha  occ. eigenvalues --   -0.84181  -0.70734  -0.64995  -0.61867  -0.55166
 Alpha  occ. eigenvalues --   -0.50603  -0.49136  -0.40734  -0.36618  -0.30698
 Alpha virt. eigenvalues --    0.03660   0.05346   0.05518   0.06078   0.06708
 Alpha virt. eigenvalues --    0.07139   0.07201   0.08482   0.09086   0.10516
 Alpha virt. eigenvalues --    0.12175   0.13829   0.14677   0.15536   0.16115

 Mulliken charges:
               1
     1  N   -2.376302
     2  Si   4.642747
     3  H    0.715495
     4  H    0.715493
     5  C   -3.288210
     6  C   -3.288217
     7  H    1.148711
     8  H    1.104176
     9  H    1.104178
    10  H    1.148710
    11  H   -1.626781
 Sum of Mulliken charges =   0.00000

 Dipole moment (field-independent basis, Debye):
    X=              1.7495    Y=              0.0000    Z=             -0.0500  Tot=              1.7502

 Test job not archived.
 1\1\GINC-SE366\SP\RHF\Aug-CC-pVDZ\C2H7N1Si1\OHZDE\09-Apr-2025\0\\#t hf
  aug-cc-pvdz iop(5/13=1,5/36=2,99/5=2) pseudo=read geom=check guess=(r
 ead,tcheck) scf=(maxcycle=1)\\title\\0,1\N,0,1.728165,0.00001,-0.43895
 2\Si,0,0.277656,-0.000012,0.480657\H,0,2.297501,-0.832353,-0.492092\H,
 0,2.297484,0.832385,-0.492077\C,0,-1.227457,-0.782098,-0.247804\C,0,-1
 .227454,0.782111,-0.247769\H,0,-1.162693,1.251151,-1.224741\H,0,-1.958
 328,1.258814,0.398619\H,0,-1.958333,-1.258826,0.398565\H,0,-1.162698,-
 1.251095,-1.224796\H,0,0.392188,-0.000046,1.953423\\Version=ES64L-G16R

 Normal termination of Gaussian 16 at Wed Apr  9 00:01:29 2025.
