 Gaussian 16, Revision C.01,

 ----------------------------------------------------------------------
 #t hf aug-cc-pvdz symm=none int=(grid=ultrafine) guess=(read,tcheck) s
 table=(opt,rrhf)
 ----------------------------------------------------------------------
 -----
 title
 -----
 Symbolic Z-matrix:
 Charge =  0 Multiplicity = 1

 SCF Done:  E(RHF) =  -894.248548019     A.U. after   15 cycles
 Normal termination of Gaussian 16 at Tue Apr  8 23:26:08 2025.
 Gaussian 16:  ES64L-G16RevC.01  3-Jul-2019

 ----------------------------------------------------------------------
 #t hf aug-cc-pvdz iop(5/13=1,5/36=2,99/5=2) pseudo=read geom=check gue
 ss=(read,tcheck) scf=(maxcycle=1)
 ----------------------------------------------------------------------
 -----
 title
 -----
 Structure from the checkpoint file:  "BDE49_nonexpt_1196_mol1.chk"
 Charge =  0 Multiplicity = 1

                         Standard orientation:
 ---------------------------------------------------------------------
 Center     Atomic      Atomic             Coordinates (Angstroms)
 Number     Number       Type             X           Y           Z
 ---------------------------------------------------------------------
      1          6           0        2.372232    0.813687   -0.106459
      2          8           0        1.561213    1.589369   -0.511803
      3          8           0        2.267520   -0.564419   -0.243166
      4         16           0        0.847367   -1.183534   -0.923486
      5          6           0       -0.257878   -1.002298    0.487454
      6          8           0        0.095746   -0.498627    1.517858
      7          6           0        3.645806    1.129842    0.630167
      8          1           0        3.821661    2.202921    0.596110
      9          1           0        4.486733    0.586380    0.197375
     10          1           0        3.536702    0.805182    1.667662
     11          6           0       -1.650128   -1.526757    0.194105
     12          6           0       -2.728001   -0.466480    0.483463
     13          1           0       -1.796603   -2.399740    0.839267
     14          1           0       -1.714870   -1.875253   -0.843490
     15          6           0       -2.680020    0.736993   -0.465290
     16          1           0       -2.604402   -0.128647    1.516861
     17          1           0       -3.709851   -0.948019    0.421338
     18          6           0       -3.762276    1.774429   -0.155411
     19          1           0       -2.792900    0.387103   -1.498766
     20          1           0       -1.694292    1.210890   -0.408822
     21          1           0       -4.764365    1.341464   -0.237490
     22          1           0       -3.707688    2.620145   -0.845451
     23          1           0       -3.652242    2.167046    0.859905
 ---------------------------------------------------------------------

 SCF Done:  E(RHF) =  -896.736687932     A.U. after    2 cycles

 The electronic state is 1-A.
 Alpha  occ. eigenvalues --  -75.75257 -21.10989 -21.07246 -21.06289 -13.24329
 Alpha  occ. eigenvalues --  -13.16790 -13.10826 -11.53558 -11.52027 -11.44224
 Alpha  occ. eigenvalues --  -11.41723 -11.39990 -11.38517 -11.35263  -8.09077
 Alpha  occ. eigenvalues --   -1.84521  -1.73140  -1.67840  -1.26433  -1.16545
 Alpha  occ. eigenvalues --   -1.11424  -1.06816  -0.95406  -0.84976  -0.78918
 Alpha  occ. eigenvalues --   -0.72894  -0.66834  -0.64275  -0.62845  -0.62679
 Alpha  occ. eigenvalues --   -0.60811  -0.59638  -0.58777  -0.54232  -0.53800
 Alpha  occ. eigenvalues --   -0.51411  -0.50207  -0.48880  -0.46753  -0.46126
 Alpha  occ. eigenvalues --   -0.45651  -0.42365  -0.41329  -0.35994  -0.30719
 Alpha  occ. eigenvalues --   -0.27018  -0.26014
 Alpha virt. eigenvalues --    0.03809   0.04297   0.04838   0.05252   0.05888
 Alpha virt. eigenvalues --    0.06025   0.06430   0.06916   0.07051   0.07418
 Alpha virt. eigenvalues --    0.08174   0.08792   0.10056   0.11171   0.11340

 Mulliken charges:
               1
     1  C    5.382240
     2  O   -3.028278
     3  O   -2.722721
     4  S    1.403994
     5  C    3.191695
     6  O   -3.367068
     7  C   -4.358060
     8  H    1.229609
     9  H    1.281855
    10  H    1.276169
    11  C   -3.236678
    12  C   -2.891367
    13  H    1.281064
    14  H    1.797343
    15  C   -3.268508
    16  H    1.552978
    17  H    1.380256
    18  C   -3.983311
    19  H    1.431160
    20  H    1.895206
    21  H    1.328593
    22  H    1.117286
    23  H    1.306545
 Sum of Mulliken charges =  -0.00000

 Dipole moment (field-independent basis, Debye):
    X=             -0.1559    Y=             -0.6511    Z=             -0.9306  Tot=              1.1464

 Test job not archived.
 1\1\GINC-SE222\SP\RHF\Aug-CC-pVDZ\C7H12O3S1\OHZDE\08-Apr-2025\0\\#t hf
  aug-cc-pvdz iop(5/13=1,5/36=2,99/5=2) pseudo=read geom=check guess=(r
 ead,tcheck) scf=(maxcycle=1)\\title\\0,1\C,0,2.372232,0.813687,-0.1064
 59\O,0,1.561213,1.589369,-0.511803\O,0,2.26752,-0.564419,-0.243166\S,0
 ,0.847367,-1.183534,-0.923486\C,0,-0.257878,-1.002298,0.487454\O,0,0.0
 95746,-0.498627,1.517858\C,0,3.645806,1.129842,0.630167\H,0,3.821661,2
 .202921,0.59611\H,0,4.486733,0.58638,0.197375\H,0,3.536702,0.805182,1.
 667662\C,0,-1.650128,-1.526757,0.194105\C,0,-2.728001,-0.46648,0.48346

 Normal termination of Gaussian 16 at Tue Apr  8 23:26:24 2025.
