 Gaussian 16, Revision C.01,

 ----------------------------------------------------------------------
 #t hf aug-cc-pvdz symm=none int=(grid=ultrafine) guess=(read,tcheck) s
 table=(opt,rrhf)
 ----------------------------------------------------------------------
 -----
 title
 -----
 Symbolic Z-matrix:
 Charge =  0 Multiplicity = 1

 SCF Done:  E(RHF) =  -125.332838161     A.U. after   10 cycles
 Normal termination of Gaussian 16 at Wed Apr  9 00:36:47 2025.
 Gaussian 16:  ES64L-G16RevC.01  3-Jul-2019

 ----------------------------------------------------------------------
 #t hf aug-cc-pvdz iop(5/13=1,5/36=2,99/5=2) pseudo=read geom=check gue
 ss=(read,tcheck) scf=(maxcycle=1)
 ----------------------------------------------------------------------
 -----
 title
 -----
 Structure from the checkpoint file:  "BDE49_nonexpt_547_mol1.chk"
 Charge =  0 Multiplicity = 1

                         Standard orientation:
 ---------------------------------------------------------------------
 Center     Atomic      Atomic             Coordinates (Angstroms)
 Number     Number       Type             X           Y           Z
 ---------------------------------------------------------------------
      1          5           0       -0.674901    0.000000    0.000005
      2          9           0        0.648756   -0.000001   -0.000003
      3          1           0       -1.232144    1.054111   -0.000001
      4          1           0       -1.232154   -1.054106   -0.000001
 ---------------------------------------------------------------------

 SCF Done:  E(RHF) =  -125.803562596     A.U. after    2 cycles

 The electronic state is 1-A.
 Alpha  occ. eigenvalues --  -29.25301  -7.66519  -1.02165  -0.59677  -0.58176
 Alpha  occ. eigenvalues --   -0.41353  -0.38614  -0.30214
 Alpha virt. eigenvalues --    0.03627   0.03849   0.04567   0.06262   0.11567
 Alpha virt. eigenvalues --    0.13779   0.15032   0.20016   0.23844   0.24053
 Alpha virt. eigenvalues --    0.24508   0.25396   0.27068   0.29887   0.32319

 Mulliken charges:
               1
     1  B    5.693437
     2  F   -0.900441
     3  H   -2.396499
     4  H   -2.396497
 Sum of Mulliken charges =   0.00000

 Dipole moment (field-independent basis, Debye):
    X=              3.2128    Y=             -0.0000    Z=             -0.0000  Tot=              3.2128

 Test job not archived.
 1\1\GINC-SE459\SP\RHF\Aug-CC-pVDZ\B1F1H2\OHZDE\09-Apr-2025\0\\#t hf au
 g-cc-pvdz iop(5/13=1,5/36=2,99/5=2) pseudo=read geom=check guess=(read
 ,tcheck) scf=(maxcycle=1)\\title\\0,1\B,0,0.674901,0.,-0.000005\F,0,-0
 .648756,-0.000001,0.000003\H,0,1.232144,1.054111,0.000001\H,0,1.232154
 ,-1.054106,0.000001\\Version=ES64L-G16RevC.01\State=1-A\HF=-125.803562
 6\RMSD=3.793e-01\Dipole=-1.2639972,-0.0000054,0.0000017\Quadrupole=-0.
 0875324,-1.0949746,1.182507,-0.0000054,-0.0000098,0.\PG=C01 [X(B1F1H2)
 ]\\@

 Normal termination of Gaussian 16 at Wed Apr  9 00:36:48 2025.
