 Gaussian 16, Revision C.01,

 ----------------------------------------------------------------------
 #t hf aug-cc-pvdz symm=none int=(grid=ultrafine) guess=(read,tcheck) s
 table=opt
 ----------------------------------------------------------------------
 -----
 title
 -----
 Symbolic Z-matrix:
 Charge =  0 Multiplicity = 2

 SCF Done:  E(UHF) =  -624.756511368     A.U. after   19 cycles
 Normal termination of Gaussian 16 at Tue Apr  8 23:18:54 2025.
 Gaussian 16:  ES64L-G16RevC.01  3-Jul-2019

 ----------------------------------------------------------------------
 #t hf aug-cc-pvdz iop(5/13=1,5/36=2,99/5=2) pseudo=read geom=check gue
 ss=(read,tcheck) scf=(maxcycle=1)
 ----------------------------------------------------------------------
 -----
 title
 -----
 Structure from the checkpoint file:  "BDE49_nonexpt_1062_mol2.chk"
 Charge =  0 Multiplicity = 2

                         Standard orientation:
 ---------------------------------------------------------------------
 Center     Atomic      Atomic             Coordinates (Angstroms)
 Number     Number       Type             X           Y           Z
 ---------------------------------------------------------------------
      1          8           0       -0.134139    1.444204   -0.000142
      2          6           0        0.088140    0.257901    0.000490
      3         16           0        1.747546   -0.318133   -0.000285
      4          8           0       -0.821210   -0.715806    0.000289
      5          6           0       -2.205070   -0.283217    0.000066
      6          1           0       -2.786114   -1.201391   -0.000066
      7          1           0       -2.414981    0.308147   -0.891324
      8          1           0       -2.415272    0.308082    0.891431
 ---------------------------------------------------------------------

 SCF Done:  E(UHF) =  -625.905014872     A.U. after    2 cycles

 The electronic state is 2-A.
 Alpha  occ. eigenvalues --  -75.74227 -21.11791 -21.06817 -13.17968 -13.09374
 Alpha  occ. eigenvalues --  -13.04949 -11.53588 -11.43306  -8.08069  -1.86324
 Alpha  occ. eigenvalues --   -1.68587  -1.18141  -1.02970  -0.76442  -0.67153
 Alpha  occ. eigenvalues --   -0.65102  -0.59569  -0.54755  -0.54545  -0.42519
 Alpha  occ. eigenvalues --   -0.34644  -0.34519  -0.28069  -0.27648
 Alpha virt. eigenvalues --    0.03120   0.05534   0.06323   0.06471   0.08538
 Alpha virt. eigenvalues --    0.11903   0.12139   0.12960   0.14113   0.14392
 Alpha virt. eigenvalues --    0.14863   0.15829   0.17648   0.18336   0.19672

  Beta  occ. eigenvalues --  -75.73207 -21.11769 -21.06636 -13.17439 -13.04321
  Beta  occ. eigenvalues --  -13.03214 -11.53698 -11.43296  -8.06922  -1.86220
  Beta  occ. eigenvalues --   -1.68286  -1.11588  -1.01253  -0.75371  -0.66072
  Beta  occ. eigenvalues --   -0.65116  -0.58800  -0.54758  -0.53926  -0.42202
  Beta  occ. eigenvalues --   -0.34440  -0.29793  -0.26051
  Beta virt. eigenvalues --    0.02721   0.03512   0.05679   0.06473   0.06530
  Beta virt. eigenvalues --    0.08638   0.12174   0.12984   0.14087   0.14124
  Beta virt. eigenvalues --    0.14905   0.15634   0.15829   0.17966   0.18733

 Mulliken charges and spin densities:
               1          2
     1  O   -2.304072   0.008028
     2  C    2.530300  -0.038691
     3  S    1.111118   1.105631
     4  O   -2.441435  -0.069377
     5  C   -2.790716  -0.008604
     6  H    1.317690   0.004624
     7  H    1.288537  -0.000802
     8  H    1.288578  -0.000809
 Sum of Mulliken charges =  -0.00000   1.00000

 Dipole moment (field-independent basis, Debye):
    X=             -0.1008    Y=             -1.3503    Z=             -0.0018  Tot=              1.3540
                          Isotropic Fermi Contact Couplings
        Atom                 a.u.       MegaHertz       Gauss      10(-4) cm-1
     1  O(17)              0.02253     -13.65517      -4.87251      -4.55488
     2  C(13)             -0.01085     -12.19506      -4.35150      -4.06783
     3  S(33)              0.32357     111.13674      39.65635      37.07123
     4  O(17)              0.01219      -7.39198      -2.63764      -2.46570
     5  C(13)              0.00718       8.07211       2.88033       2.69257
     6  H(1)               0.00005       0.23500       0.08385       0.07839
     7  H(1)              -0.00007      -0.31882      -0.11376      -0.10635
     8  H(1)              -0.00007      -0.31845      -0.11363      -0.10622

 Normal termination of Gaussian 16 at Tue Apr  8 23:18:57 2025.
