 Gaussian 16, Revision C.01,

 ----------------------------------------------------------------------
 #t hf aug-cc-pvdz symm=none int=(grid=ultrafine) guess=(read,tcheck) s
 table=(opt,rrhf)
 ----------------------------------------------------------------------
 -----
 title
 -----
 Symbolic Z-matrix:
 Charge =  0 Multiplicity = 1

 SCF Done:  E(RHF) =  -404.466525509     A.U. after   15 cycles
 Normal termination of Gaussian 16 at Tue Apr  8 23:12:12 2025.
 Gaussian 16:  ES64L-G16RevC.01  3-Jul-2019

 ----------------------------------------------------------------------
 #t hf aug-cc-pvdz iop(5/13=1,5/36=2,99/5=2) pseudo=read geom=check gue
 ss=(read,tcheck) scf=(maxcycle=1)
 ----------------------------------------------------------------------
 -----
 title
 -----
 Structure from the checkpoint file:  "BDE49_expt_722_mol1.chk"
 Charge =  0 Multiplicity = 1

                         Standard orientation:
 ---------------------------------------------------------------------
 Center     Atomic      Atomic             Coordinates (Angstroms)
 Number     Number       Type             X           Y           Z
 ---------------------------------------------------------------------
      1          6           0       -1.245814    1.072304    0.000000
      2          6           0       -1.191834   -0.315274    0.000000
      3          6           0       -0.001494   -1.021172    0.000000
      4          6           0       -0.040484    1.768331    0.000000
      5          6           0        1.178523    1.094622    0.000000
      6          6           0        1.196014   -0.303202    0.000000
      7          1           0        0.003730   -2.102952    0.000000
      8          1           0       -0.049491    2.851986    0.000000
      9          1           0        2.111373    1.649582    0.000000
     10          8           0        2.351014   -1.027049   -0.000001
     11          1           0        3.102487   -0.425418   -0.000001
     12          1           0       -2.203451    1.575648    0.000001
     13          9           0       -2.349136   -1.011789    0.000000
 ---------------------------------------------------------------------

 SCF Done:  E(RHF) =  -406.197595327     A.U. after    2 cycles

 The electronic state is 1-A.
 Alpha  occ. eigenvalues --  -29.28510 -21.11546 -11.54224 -11.49263 -11.45447
 Alpha  occ. eigenvalues --  -11.41571 -11.41040 -11.38397  -1.77024  -1.35614
 Alpha  occ. eigenvalues --   -1.14898  -1.09424  -0.93402  -0.87974  -0.76272
 Alpha  occ. eigenvalues --   -0.70280  -0.64729  -0.61816  -0.59526  -0.56919
 Alpha  occ. eigenvalues --   -0.53118  -0.49281  -0.47796  -0.43228  -0.39439
 Alpha  occ. eigenvalues --   -0.38483  -0.29144  -0.27230  -0.23613
 Alpha virt. eigenvalues --    0.03373   0.04633   0.05345   0.06613   0.06895
 Alpha virt. eigenvalues --    0.10486   0.11321   0.11539   0.12060   0.13331
 Alpha virt. eigenvalues --    0.13539   0.13758   0.14112   0.14638   0.15069

 Mulliken charges:
               1
     1  C   -5.233807
     2  C    3.922577
     3  C   -4.777388
     4  C    0.528555
     5  C   -4.643686
     6  C    6.427027
     7  H    1.774070
     8  H    1.428782
     9  H    1.628931
    10  O   -4.393946
    11  H    1.016581
    12  H    1.659091
    13  F    0.663213
 Sum of Mulliken charges =   0.00000

 Dipole moment (field-independent basis, Debye):
    X=             -0.7903    Y=             -0.5263    Z=              0.0000  Tot=              0.9495

 Test job not archived.
 1\1\GINC-SE343\SP\RHF\Aug-CC-pVDZ\C6H5F1O1\OHZDE\08-Apr-2025\0\\#t hf
 aug-cc-pvdz iop(5/13=1,5/36=2,99/5=2) pseudo=read geom=check guess=(re
 ad,tcheck) scf=(maxcycle=1)\\title\\0,1\C,0,-1.245814,1.072304,0.\C,0,
 -1.191834,-0.315274,0.\C,0,-0.001494,-1.021172,0.\C,0,-0.040484,1.7683
 31,0.\C,0,1.178523,1.094622,0.\C,0,1.196014,-0.303202,0.\H,0,0.00373,-
 2.102952,0.\H,0,-0.049491,2.851986,0.\H,0,2.111373,1.649582,0.\O,0,2.3
 51014,-1.027049,-0.000001\H,0,3.102487,-0.425418,-0.000001\H,0,-2.2034
 51,1.575648,0.000001\F,0,-2.349136,-1.011789,0.\\Version=ES64L-G16RevC

 Normal termination of Gaussian 16 at Tue Apr  8 23:12:16 2025.
