 Gaussian 16, Revision C.01,

 ----------------------------------------------------------------------
 #t hf aug-cc-pvdz symm=none int=(grid=ultrafine) guess=(read,tcheck) s
 table=(opt,rrhf)
 ----------------------------------------------------------------------
 -----
 title
 -----
 Symbolic Z-matrix:
 Charge =  0 Multiplicity = 1

 SCF Done:  E(RHF) =  -1287.83872315     A.U. after   16 cycles
 Normal termination of Gaussian 16 at Wed Apr  9 00:14:19 2025.
 Gaussian 16:  ES64L-G16RevC.01  3-Jul-2019

 ----------------------------------------------------------------------
 #t hf aug-cc-pvdz iop(5/13=1,5/36=2,99/5=2) pseudo=read geom=check gue
 ss=(read,tcheck) scf=(maxcycle=1)
 ----------------------------------------------------------------------
 -----
 title
 -----
 Structure from the checkpoint file:  "BDE49_nonexpt_240_mol1.chk"
 Charge =  0 Multiplicity = 1

                         Standard orientation:
 ---------------------------------------------------------------------
 Center     Atomic      Atomic             Coordinates (Angstroms)
 Number     Number       Type             X           Y           Z
 ---------------------------------------------------------------------
      1         17           0        2.728152   -1.127001    0.350888
      2         17           0        1.901869    1.640339   -0.420103
      3          5           0        1.393140   -0.001837   -0.015567
      4          6           0       -0.065627   -0.510954   -0.015343
      5          6           0       -1.212690    0.328195    0.064010
      6          6           0       -2.499765   -0.217906   -0.004995
      7          1           0       -3.369888    0.420349    0.056376
      8          6           0       -2.671237   -1.590836   -0.146445
      9          6           0       -0.296157   -1.896809   -0.136192
     10          1           0        0.559851   -2.557607   -0.185023
     11          6           0       -1.570618   -2.440287   -0.211029
     12          1           0       -1.704237   -3.509930   -0.316075
     13          1           0       -3.676416   -1.994616   -0.200099
     14          8           0       -0.992942    1.650971    0.234866
     15          6           0       -2.094202    2.549228    0.296198
     16          1           0       -1.655552    3.538555    0.410032
     17          1           0       -2.737040    2.335713    1.156569
     18          1           0       -2.687458    2.518421   -0.623449
 ---------------------------------------------------------------------

 SCF Done:  E(RHF) =  -1290.03489834     A.U. after    2 cycles

 The electronic state is 1-A.
 Alpha  occ. eigenvalues --  -99.88439 -99.88136 -21.08496 -11.54492 -11.47951
 Alpha  occ. eigenvalues --  -11.44373 -11.42640 -11.41639 -11.41408 -11.37547
 Alpha  occ. eigenvalues --  -10.45797 -10.45409  -9.65775  -9.65388  -9.65308
 Alpha  occ. eigenvalues --   -9.65123  -9.64994  -9.64801  -7.73843  -1.80607
 Alpha  occ. eigenvalues --   -1.39331  -1.31994  -1.27884  -1.12249  -1.09899
 Alpha  occ. eigenvalues --   -1.00312  -0.90489  -0.85020  -0.79085  -0.71231
 Alpha  occ. eigenvalues --   -0.66299  -0.64836  -0.63591  -0.62986  -0.61124
 Alpha  occ. eigenvalues --   -0.58715  -0.56604  -0.54448  -0.53038  -0.51691
 Alpha  occ. eigenvalues --   -0.50787  -0.48791  -0.46115  -0.45535  -0.42172
 Alpha  occ. eigenvalues --   -0.38427  -0.35526  -0.27774
 Alpha virt. eigenvalues --    0.02723   0.04114   0.04605   0.04806   0.05148
 Alpha virt. eigenvalues --    0.05205   0.05762   0.06380   0.07079   0.07145
 Alpha virt. eigenvalues --    0.08271   0.09556   0.11676   0.12237   0.12542

 Mulliken charges:
               1
     1  Cl  -1.409652
     2  Cl  -1.350363
     3  B    1.000840
     4  C   -5.036431
     5  C    8.579448
     6  C   -2.753774
     7  H    1.973034
     8  C   -0.372806
     9  C    0.332241
    10  H    1.776461
    11  C   -1.518769
    12  H    1.624001
    13  H    1.535294
    14  O   -4.884913
    15  C   -3.744759
    16  H    1.454468
    17  H    1.424493
    18  H    1.371188
 Sum of Mulliken charges =  -0.00000

 Dipole moment (field-independent basis, Debye):
    X=             -3.7653    Y=              0.5047    Z=              0.1205  Tot=              3.8009

 Test job not archived.
 1\1\GINC-SE329\SP\RHF\Aug-CC-pVDZ\C7H7B1Cl2O1\OHZDE\09-Apr-2025\0\\#t
 hf aug-cc-pvdz iop(5/13=1,5/36=2,99/5=2) pseudo=read geom=check guess=
 (read,tcheck) scf=(maxcycle=1)\\title\\0,1\Cl,0,2.728152,-1.127001,0.3
 50888\Cl,0,1.901869,1.640339,-0.420103\B,0,1.39314,-0.001837,-0.015567
 \C,0,-0.065627,-0.510954,-0.015343\C,0,-1.21269,0.328195,0.06401\C,0,-
 2.499765,-0.217906,-0.004995\H,0,-3.369888,0.420349,0.056376\C,0,-2.67
 1237,-1.590836,-0.146445\C,0,-0.296157,-1.896809,-0.136192\H,0,0.55985
 1,-2.557607,-0.185023\C,0,-1.570618,-2.440287,-0.211029\H,0,-1.704237,

 Normal termination of Gaussian 16 at Wed Apr  9 00:14:30 2025.
