 Gaussian 16, Revision C.01,

 ----------------------------------------------------------------------
 #t hf aug-cc-pvdz symm=none int=(grid=ultrafine) guess=(read,tcheck) s
 table=(opt,rrhf)
 ----------------------------------------------------------------------
 -----
 title
 -----
 Symbolic Z-matrix:
 Charge =  0 Multiplicity = 1

 SCF Done:  E(RHF) =  -1367.87023496     A.U. after   15 cycles
 Normal termination of Gaussian 16 at Wed Apr  9 00:18:36 2025.
 Gaussian 16:  ES64L-G16RevC.01  3-Jul-2019

 ----------------------------------------------------------------------
 #t hf aug-cc-pvdz iop(5/13=1,5/36=2,99/5=2) pseudo=read geom=check gue
 ss=(read,tcheck) scf=(maxcycle=1)
 ----------------------------------------------------------------------
 -----
 title
 -----
 Structure from the checkpoint file:  "BDE49_nonexpt_2574_mol1.chk"
 Charge =  0 Multiplicity = 1

                         Standard orientation:
 ---------------------------------------------------------------------
 Center     Atomic      Atomic             Coordinates (Angstroms)
 Number     Number       Type             X           Y           Z
 ---------------------------------------------------------------------
      1         17           0       -2.260720    0.086218   -0.000154
      2         16           0       -0.364347   -0.929474    0.000228
      3          6           0        0.778848    0.372130    0.000186
      4         16           0        2.302337   -0.225533   -0.000152
      5          8           0        0.414017    1.635403    0.000021
      6          1           0       -0.560827    1.698391    0.000124
 ---------------------------------------------------------------------

 SCF Done:  E(RHF) =  -1369.03328903     A.U. after    2 cycles

 The electronic state is 1-A.
 Alpha  occ. eigenvalues --  -99.94021 -75.79902 -75.68525 -21.18061 -13.21891
 Alpha  occ. eigenvalues --  -13.16550 -13.15495 -13.10858 -13.02117 -12.99566
 Alpha  occ. eigenvalues --  -11.55244 -10.51023  -9.70783  -9.70394  -9.70088
 Alpha  occ. eigenvalues --   -8.13661  -8.02775  -1.84224  -1.36451  -1.24509
 Alpha  occ. eigenvalues --   -1.09268  -0.82856  -0.71825  -0.62391  -0.59353
 Alpha  occ. eigenvalues --   -0.55769  -0.54915  -0.51962  -0.42192  -0.35214
 Alpha  occ. eigenvalues --   -0.26589  -0.25019
 Alpha virt. eigenvalues --    0.02679   0.03451   0.05955   0.06854   0.07914
 Alpha virt. eigenvalues --    0.09887   0.11507   0.12320   0.12997   0.13987
 Alpha virt. eigenvalues --    0.15170   0.15706   0.16302   0.17098   0.18088

 Mulliken charges:
               1
     1  Cl  -0.556387
     2  S    1.164069
     3  C   -0.550970
     4  S    1.834008
     5  O   -3.054558
     6  H    1.163838
 Sum of Mulliken charges =   0.00000

 Dipole moment (field-independent basis, Debye):
    X=              3.6874    Y=             -1.8031    Z=             -0.0007  Tot=              4.1047

 Test job not archived.
 1\1\GINC-SE072\SP\RHF\Aug-CC-pVDZ\C1H1Cl1O1S2\OHZDE\09-Apr-2025\0\\#t
 hf aug-cc-pvdz iop(5/13=1,5/36=2,99/5=2) pseudo=read geom=check guess=
 (read,tcheck) scf=(maxcycle=1)\\title\\0,1\Cl,0,-2.26072,0.086218,-0.0
 00154\S,0,-0.364347,-0.929474,0.000228\C,0,0.778848,0.37213,0.000186\S
 ,0,2.302337,-0.225533,-0.000152\O,0,0.414017,1.635403,0.000021\H,0,-0.
 560827,1.698391,0.000124\\Version=ES64L-G16RevC.01\State=1-A\HF=-1369.
 033289\RMSD=1.286e-01\Dipole=1.4507544,-0.7093758,-0.0002907\Quadrupol
 e=2.3206216,1.6144341,-3.9350557,-1.7697999,-0.0020322,-0.0000364\PG=C

 Normal termination of Gaussian 16 at Wed Apr  9 00:18:38 2025.
