 Gaussian 16, Revision C.01,

 ----------------------------------------------------------------------
 #t hf aug-cc-pvdz symm=none int=(grid=ultrafine) guess=(read,tcheck) s
 table=(opt,rrhf)
 ----------------------------------------------------------------------
 -----
 title
 -----
 Symbolic Z-matrix:
 Charge =  0 Multiplicity = 1

 SCF Done:  E(RHF) =  -189.830697362     A.U. after   13 cycles
 Normal termination of Gaussian 16 at Tue Apr  8 23:03:39 2025.
 Gaussian 16:  ES64L-G16RevC.01  3-Jul-2019

 ----------------------------------------------------------------------
 #t hf aug-cc-pvdz iop(5/13=1,5/36=2,99/5=2) pseudo=read geom=check gue
 ss=(read,tcheck) scf=(maxcycle=1)
 ----------------------------------------------------------------------
 -----
 title
 -----
 Structure from the checkpoint file:  "BDE49_expt_276_mol1.chk"
 Charge =  0 Multiplicity = 1

                         Standard orientation:
 ---------------------------------------------------------------------
 Center     Atomic      Atomic             Coordinates (Angstroms)
 Number     Number       Type             X           Y           Z
 ---------------------------------------------------------------------
      1          6           0       -1.129626   -0.223655    0.026722
      2          8           0        0.016209    0.606861   -0.031369
      3          1           0       -1.189210   -0.877972   -0.848559
      4          1           0       -1.972936    0.471234    0.024141
      5          1           0       -1.144269   -0.825446    0.942264
      6          8           0        1.164109   -0.285511   -0.090729
      7          1           0        1.641628    0.003318    0.698603
 ---------------------------------------------------------------------

 SCF Done:  E(RHF) =  -190.638911641     A.U. after    2 cycles

 The electronic state is 1-A.
 Alpha  occ. eigenvalues --  -21.11496 -21.09587 -11.40665  -1.93081  -1.43956
 Alpha  occ. eigenvalues --   -0.96456  -0.65758  -0.62347  -0.55255  -0.54258
 Alpha  occ. eigenvalues --   -0.42665  -0.35107  -0.28948
 Alpha virt. eigenvalues --    0.03780   0.05848   0.06209   0.06500   0.11034
 Alpha virt. eigenvalues --    0.15016   0.15346   0.16230   0.17023   0.20250
 Alpha virt. eigenvalues --    0.22260   0.23970   0.25479   0.27344   0.28882

 Mulliken charges:
               1
     1  C   -2.409857
     2  O   -1.347786
     3  H    1.283027
     4  H    1.223714
     5  H    1.260934
     6  O   -0.912505
     7  H    0.902473
 Sum of Mulliken charges =   0.00000

 Dipole moment (field-independent basis, Debye):
    X=             -0.2765    Y=             -0.1960    Z=              0.6824  Tot=              0.7620

 Test job not archived.
 1\1\GINC-SE435\SP\RHF\Aug-CC-pVDZ\C1H4O2\OHZDE\08-Apr-2025\0\\#t hf au
 g-cc-pvdz iop(5/13=1,5/36=2,99/5=2) pseudo=read geom=check guess=(read
 ,tcheck) scf=(maxcycle=1)\\title\\0,1\C,0,-1.129626,-0.223655,0.026722
 \O,0,0.016209,0.606861,-0.031369\H,0,-1.18921,-0.877972,-0.848559\H,0,
 -1.972936,0.471234,0.024141\H,0,-1.144269,-0.825446,0.942264\O,0,1.164
 109,-0.285511,-0.090729\H,0,1.641628,0.003318,0.698603\\Version=ES64L-
 G16RevC.01\State=1-A\HF=-190.6389116\RMSD=5.294e-02\Dipole=-0.1087939,
 -0.0771117,0.2684919\Quadrupole=1.3378333,-1.2362668,-0.1015666,0.0161

 Normal termination of Gaussian 16 at Tue Apr  8 23:03:40 2025.
