 Gaussian 16, Revision C.01,

 ----------------------------------------------------------------------
 #t hf aug-cc-pvdz symm=none int=(grid=ultrafine) guess=(read,tcheck) s
 table=(opt,rrhf)
 ----------------------------------------------------------------------
 -----
 title
 -----
 Symbolic Z-matrix:
 Charge =  0 Multiplicity = 1

 SCF Done:  E(RHF) =  -701.343921639     A.U. after   16 cycles
 Normal termination of Gaussian 16 at Tue Apr  8 23:18:49 2025.
 Gaussian 16:  ES64L-G16RevC.01  3-Jul-2019

 ----------------------------------------------------------------------
 #t hf aug-cc-pvdz iop(5/13=1,5/36=2,99/5=2) pseudo=read geom=check gue
 ss=(read,tcheck) scf=(maxcycle=1)
 ----------------------------------------------------------------------
 -----
 title
 -----
 Structure from the checkpoint file:  "BDE49_nonexpt_1067_mol1.chk"
 Charge =  0 Multiplicity = 1

                         Standard orientation:
 ---------------------------------------------------------------------
 Center     Atomic      Atomic             Coordinates (Angstroms)
 Number     Number       Type             X           Y           Z
 ---------------------------------------------------------------------
      1         17           0       -1.651232   -0.400236   -0.088344
      2          8           0       -0.485042    0.692786    0.544333
      3          6           0        1.583734   -0.016100   -0.089409
      4          7           0        2.454731   -0.738563    0.159560
      5          8           0        0.658220    0.816033   -0.429160
 ---------------------------------------------------------------------

 SCF Done:  E(RHF) =  -702.568211934     A.U. after    2 cycles

 The electronic state is 1-A.
 Alpha  occ. eigenvalues --  -99.99746 -21.23199 -21.22920 -15.79144 -11.50174
 Alpha  occ. eigenvalues --  -10.56491  -9.76323  -9.75428  -9.75316  -2.03061
 Alpha  occ. eigenvalues --   -1.63273  -1.31633  -1.26592  -0.77399  -0.69228
 Alpha  occ. eigenvalues --   -0.68569  -0.62620  -0.57540  -0.56072  -0.54603
 Alpha  occ. eigenvalues --   -0.42643  -0.41923  -0.38623
 Alpha virt. eigenvalues --   -0.00999   0.06174   0.06804   0.10145   0.10596
 Alpha virt. eigenvalues --    0.11272   0.12542   0.12755   0.14381   0.17956
 Alpha virt. eigenvalues --    0.18582   0.19047   0.19427   0.21174   0.22790

 Mulliken charges:
               1
     1  Cl   0.658390
     2  O   -0.539242
     3  C    3.699362
     4  N   -2.282196
     5  O   -1.536314
 Sum of Mulliken charges =  -0.00000

 Dipole moment (field-independent basis, Debye):
    X=             -1.3538    Y=              2.1982    Z=             -0.0228  Tot=              2.5817

 Test job not archived.
 1\1\GINC-SE460\SP\RHF\Aug-CC-pVDZ\C1Cl1N1O2\OHZDE\08-Apr-2025\0\\#t hf
  aug-cc-pvdz iop(5/13=1,5/36=2,99/5=2) pseudo=read geom=check guess=(r
 ead,tcheck) scf=(maxcycle=1)\\title\\0,1\Cl,0,-1.651232,-0.400236,-0.0
 88344\O,0,-0.485042,0.692786,0.544333\C,0,1.583734,-0.0161,-0.089409\N
 ,0,2.454731,-0.738563,0.15956\O,0,0.65822,0.816033,-0.42916\\Version=E
 S64L-G16RevC.01\State=1-A\HF=-702.5682119\RMSD=3.901e-02\Dipole=-0.532
 6305,0.8648261,-0.0089753\Quadrupole=-3.2530658,1.4571211,1.7959447,3.
 0484563,-0.8324088,0.841724\PG=C01 [X(C1Cl1N1O2)]\\@

 Normal termination of Gaussian 16 at Tue Apr  8 23:18:51 2025.
