 Gaussian 16, Revision C.01,

 ----------------------------------------------------------------------
 #t hf aug-cc-pvdz symm=none int=(grid=ultrafine) guess=(read,tcheck) s
 table=opt
 ----------------------------------------------------------------------
 -----
 title
 -----
 Symbolic Z-matrix:
 Charge =  0 Multiplicity = 2

 SCF Done:  E(UHF) =  -516.699544533     A.U. after   16 cycles
 Normal termination of Gaussian 16 at Wed Apr  9 00:00:39 2025.
 Gaussian 16:  ES64L-G16RevC.01  3-Jul-2019

 ----------------------------------------------------------------------
 #t hf aug-cc-pvdz iop(5/13=1,5/36=2,99/5=2) pseudo=read geom=check gue
 ss=(read,tcheck) scf=(maxcycle=1)
 ----------------------------------------------------------------------
 -----
 title
 -----
 Structure from the checkpoint file:  "BDE49_nonexpt_2087_mol2.chk"
 Charge =  0 Multiplicity = 2

                         Standard orientation:
 ---------------------------------------------------------------------
 Center     Atomic      Atomic             Coordinates (Angstroms)
 Number     Number       Type             X           Y           Z
 ---------------------------------------------------------------------
      1          7           0       -0.433017    1.352491    0.085396
      2          7           0       -0.433017   -1.352491    0.085396
      3          6           0        1.000682    1.278908   -0.211743
      4          6           0        1.617894    0.000000    0.362184
      5          6           0        1.000682   -1.278908   -0.211743
      6         14           0       -1.507624    0.000000   -0.091897
      7          1           0       -0.816699    2.279478   -0.033831
      8          1           0       -0.816699   -2.279478   -0.033831
      9          1           0        1.204661   -1.322371   -1.294145
     10          1           0        1.497369   -2.146101    0.236534
     11          1           0        1.488984    0.000000    1.448973
     12          1           0        2.692304    0.000000    0.150625
     13          1           0        1.497369    2.146101    0.236534
     14          1           0        1.204661    1.322371   -1.294146
     15          1           0       -2.498538    0.000000    1.042126
 ---------------------------------------------------------------------

 SCF Done:  E(UHF) =  -517.942390324     A.U. after    2 cycles

 The electronic state is 2-A.
 Alpha  occ. eigenvalues --  -76.21870 -15.70691 -15.70650 -11.42886 -11.41883
 Alpha  occ. eigenvalues --  -11.35875  -5.55817  -2.21448  -2.19552  -2.16248
 Alpha  occ. eigenvalues --   -1.37430  -1.28555  -1.11335  -0.93291  -0.84155
 Alpha  occ. eigenvalues --   -0.72989  -0.67575  -0.62069  -0.59933  -0.59016
 Alpha  occ. eigenvalues --   -0.51151  -0.50601  -0.49450  -0.44874  -0.41216
 Alpha  occ. eigenvalues --   -0.40172  -0.34602  -0.23485
 Alpha virt. eigenvalues --    0.03805   0.05307   0.05715   0.05837   0.05988
 Alpha virt. eigenvalues --    0.06102   0.06703   0.06831   0.07706   0.08687
 Alpha virt. eigenvalues --    0.09107   0.10316   0.13264   0.13272   0.13762

  Beta  occ. eigenvalues --  -76.21443 -15.70266 -15.70225 -11.42904 -11.41919
  Beta  occ. eigenvalues --  -11.35887  -5.55121  -2.21038  -2.18841  -2.13844
  Beta  occ. eigenvalues --   -1.36746  -1.27668  -1.10874  -0.93093  -0.83665
  Beta  occ. eigenvalues --   -0.71981  -0.66550  -0.60839  -0.59702  -0.58575
  Beta  occ. eigenvalues --   -0.50783  -0.49763  -0.48641  -0.43198  -0.40982
  Beta  occ. eigenvalues --   -0.37016  -0.32218
  Beta virt. eigenvalues --    0.03581   0.05349   0.05409   0.05902   0.05928
  Beta virt. eigenvalues --    0.06159   0.06709   0.06839   0.07080   0.08726
  Beta virt. eigenvalues --    0.09220   0.09682   0.11131   0.13348   0.13398

 Mulliken charges and spin densities:
               1          2
     1  N   -2.369622   0.003843
     2  N   -2.369623   0.003844
     3  C   -1.985700  -0.050824
     4  C   -2.298296   0.015635
     5  C   -1.985701  -0.050824
     6  Si   2.927879   0.976943
     7  H    0.661957  -0.016461
     8  H    0.661957  -0.016461
     9  H    1.450143  -0.007052
    10  H    1.358674   0.006912
    11  H    1.349095   0.009340
    12  H    1.328822   0.001777
    13  H    1.358674   0.006912
    14  H    1.450142  -0.007052
    15  H   -1.538400   0.123469
 Sum of Mulliken charges =   0.00000   1.00000

 Dipole moment (field-independent basis, Debye):
    X=              1.2362    Y=             -0.0000    Z=             -0.6508  Tot=              1.3971
                          Isotropic Fermi Contact Couplings
        Atom                 a.u.       MegaHertz       Gauss      10(-4) cm-1
     1  N(14)              0.04610      14.89638       5.31540       4.96890
     2  N(14)              0.04610      14.89639       5.31540       4.96890
     3  C(13)             -0.00373      -4.19149      -1.49563      -1.39813
     4  C(13)              0.00126       1.41659       0.50547       0.47252
     5  C(13)             -0.00373      -4.19148      -1.49563      -1.39813
     6  Si(29)             0.46382    -412.20626    -147.08544    -137.49721
     7  H(1)              -0.00150      -6.72012      -2.39791      -2.24159
     8  H(1)              -0.00150      -6.72012      -2.39791      -2.24159

 Normal termination of Gaussian 16 at Wed Apr  9 00:00:45 2025.
