 Gaussian 16, Revision C.01,

 ----------------------------------------------------------------------
 #t hf aug-cc-pvdz symm=none int=(grid=ultrafine) guess=(read,tcheck) s
 table=opt
 ----------------------------------------------------------------------
 -----
 title
 -----
 Symbolic Z-matrix:
 Charge =  0 Multiplicity = 2

 SCF Done:  E(UHF) =  -227.186365755     A.U. after   18 cycles
 Normal termination of Gaussian 16 at Tue Apr  8 22:37:25 2025.
 Gaussian 16:  ES64L-G16RevC.01  3-Jul-2019

 ----------------------------------------------------------------------
 #t hf aug-cc-pvdz iop(5/13=1,5/36=2,99/5=2) pseudo=read geom=check gue
 ss=(read,tcheck) scf=(maxcycle=1)
 ----------------------------------------------------------------------
 -----
 title
 -----
 Structure from the checkpoint file:  "BDE49_expt_1127_mol2.chk"
 Charge =  0 Multiplicity = 2

                         Standard orientation:
 ---------------------------------------------------------------------
 Center     Atomic      Atomic             Coordinates (Angstroms)
 Number     Number       Type             X           Y           Z
 ---------------------------------------------------------------------
      1          6           0       -0.694383   -0.325033    0.000002
      2          8           0       -1.831999   -0.004981    0.000002
      3          8           0        0.366424    0.484898   -0.000002
      4          6           0        1.658402   -0.163636   -0.000001
      5          1           0        2.385930    0.644373   -0.000016
      6          1           0        1.777271   -0.775861   -0.894670
      7          1           0        1.777281   -0.775836    0.894684
 ---------------------------------------------------------------------

 SCF Done:  E(UHF) =  -228.135776615     A.U. after    2 cycles

 The electronic state is 2-A.
 Alpha  occ. eigenvalues --  -21.12921 -21.09908 -11.51675 -11.44187  -1.85770
 Alpha  occ. eigenvalues --   -1.70137  -1.04016  -0.79765  -0.65353  -0.65234
 Alpha  occ. eigenvalues --   -0.62670  -0.53663  -0.52498  -0.44739  -0.34159
 Alpha  occ. eigenvalues --   -0.27693
 Alpha virt. eigenvalues --    0.03201   0.05481   0.05586   0.08580   0.11236
 Alpha virt. eigenvalues --    0.11545   0.11994   0.14569   0.14643   0.16074
 Alpha virt. eigenvalues --    0.16665   0.17724   0.21591   0.26266   0.27104

  Beta  occ. eigenvalues --  -21.12133 -21.08969 -11.49626 -11.44192  -1.83707
  Beta  occ. eigenvalues --   -1.68094  -1.03611  -0.73368  -0.64946  -0.64171
  Beta  occ. eigenvalues --   -0.55586  -0.52261  -0.48361  -0.39357  -0.34331
  Beta virt. eigenvalues --    0.02216   0.05505   0.05574   0.07326   0.10482
  Beta virt. eigenvalues --    0.11432   0.11704   0.12096   0.14717   0.14944
  Beta virt. eigenvalues --    0.16802   0.18533   0.21516   0.22978   0.27024

 Mulliken charges and spin densities:
               1          2
     1  C    2.975073   0.912602
     2  O   -1.956425   0.116765
     3  O   -2.404970   0.045944
     4  C   -2.574431  -0.061222
     5  H    1.295883   0.020303
     6  H    1.332436  -0.017196
     7  H    1.332435  -0.017197
 Sum of Mulliken charges =   0.00000   1.00000

 Dipole moment (field-independent basis, Debye):
    X=              2.1535    Y=              0.3043    Z=             -0.0000  Tot=              2.1749
                          Isotropic Fermi Contact Couplings
        Atom                 a.u.       MegaHertz       Gauss      10(-4) cm-1
     1  C(13)              0.19187     215.69673      76.96596      71.94868
     2  O(17)              0.08933     -54.15412     -19.32354     -18.06387
     3  O(17)              0.07784     -47.18664     -16.83736     -15.73977
     4  C(13)              0.00842       9.46347       3.37680       3.15667
     5  H(1)              -0.00051      -2.26760      -0.80914      -0.75639
     6  H(1)              -0.00023      -1.02883      -0.36711      -0.34318
     7  H(1)              -0.00023      -1.02877      -0.36709      -0.34316
 --------------------------------------------------------

 Normal termination of Gaussian 16 at Tue Apr  8 22:37:27 2025.
