 Gaussian 16, Revision C.01,

 ----------------------------------------------------------------------
 #t hf aug-cc-pvdz symm=none int=(grid=ultrafine) guess=(read,tcheck) s
 table=(opt,rrhf)
 ----------------------------------------------------------------------
 -----
 title
 -----
 Symbolic Z-matrix:
 Charge =  0 Multiplicity = 1

 SCF Done:  E(RHF) =  -548.396451640     A.U. after   13 cycles
 Normal termination of Gaussian 16 at Tue Apr  8 22:58:35 2025.
 Gaussian 16:  ES64L-G16RevC.01  3-Jul-2019

 ----------------------------------------------------------------------
 #t hf aug-cc-pvdz iop(5/13=1,5/36=2,99/5=2) pseudo=read geom=check gue
 ss=(read,tcheck) scf=(maxcycle=1)
 ----------------------------------------------------------------------
 -----
 title
 -----
 Structure from the checkpoint file:  "BDE49_expt_1913_mol1.chk"
 Charge =  0 Multiplicity = 1

                         Standard orientation:
 ---------------------------------------------------------------------
 Center     Atomic      Atomic             Coordinates (Angstroms)
 Number     Number       Type             X           Y           Z
 ---------------------------------------------------------------------
      1          8           0        0.000000    1.315761   -0.467978
      2         16           0       -0.000000    0.000000    0.558858
      3          1           0        0.915625    1.486325   -0.727042
      4          8           0       -0.000000   -1.315761   -0.467978
      5          1           0       -0.915625   -1.486325   -0.727042
 ---------------------------------------------------------------------

 SCF Done:  E(RHF) =  -549.241269881     A.U. after    2 cycles

 The electronic state is 1-A.
 Alpha  occ. eigenvalues --  -75.76735 -21.11504 -21.11466 -13.23254 -13.16493
 Alpha  occ. eigenvalues --  -13.09469  -8.10125  -1.78462  -1.69782  -1.00730
 Alpha  occ. eigenvalues --   -0.65431  -0.58158  -0.50211  -0.49976  -0.36810
 Alpha  occ. eigenvalues --   -0.35660  -0.23382
 Alpha virt. eigenvalues --    0.03839   0.04787   0.07737   0.10014   0.13083
 Alpha virt. eigenvalues --    0.14465   0.19791   0.20150   0.21134   0.22658
 Alpha virt. eigenvalues --    0.23167   0.25609   0.26285   0.28010   0.30252

 Mulliken charges:
               1
     1  O   -2.060165
     2  S    2.286693
     3  H    0.916819
     4  O   -2.060165
     5  H    0.916819
 Sum of Mulliken charges =  -0.00000

 Dipole moment (field-independent basis, Debye):
    X=             -0.0000    Y=              0.0000    Z=              0.2375  Tot=              0.2375

 Test job not archived.
 1\1\GINC-SE402\SP\RHF\Aug-CC-pVDZ\H2O2S1\OHZDE\08-Apr-2025\0\\#t hf au
 g-cc-pvdz iop(5/13=1,5/36=2,99/5=2) pseudo=read geom=check guess=(read
 ,tcheck) scf=(maxcycle=1)\\title\\0,1\O,0,0.,-1.315761,-0.467978\S,0,0
 .,0.,0.558858\H,0,-0.915625,-1.486325,-0.727042\O,0,0.,1.315761,-0.467
 978\H,0,0.915625,1.486325,-0.727042\\Version=ES64L-G16RevC.01\State=1-
 A\HF=-549.2412699\RMSD=3.979e-02\Dipole=0.,0.,0.0934536\Quadrupole=0.0
 501561,-0.2011094,0.1509533,2.7348934,0.,0.\PG=C02 [C2(S1),X(H2O2)]\\@

 Normal termination of Gaussian 16 at Tue Apr  8 22:58:36 2025.
