 Gaussian 16, Revision C.01,

 ----------------------------------------------------------------------
 #t hf aug-cc-pvdz symm=none int=(grid=ultrafine) guess=(read,tcheck) s
 table=(opt,rrhf)
 ----------------------------------------------------------------------
 -----
 title
 -----
 Symbolic Z-matrix:
 Charge =  0 Multiplicity = 1

 SCF Done:  E(RHF) =  -867.387129007     A.U. after   11 cycles
 Normal termination of Gaussian 16 at Tue Apr  8 22:59:53 2025.
 Gaussian 16:  ES64L-G16RevC.01  3-Jul-2019

 ----------------------------------------------------------------------
 #t hf aug-cc-pvdz iop(5/13=1,5/36=2,99/5=2) pseudo=read geom=check gue
 ss=(read,tcheck) scf=(maxcycle=1)
 ----------------------------------------------------------------------
 -----
 title
 -----
 Structure from the checkpoint file:  "BDE49_expt_1944_mol1.chk"
 Charge =  0 Multiplicity = 1

                         Standard orientation:
 ---------------------------------------------------------------------
 Center     Atomic      Atomic             Coordinates (Angstroms)
 Number     Number       Type             X           Y           Z
 ---------------------------------------------------------------------
      1         14           0        0.342989    0.000027   -0.000019
      2         17           0       -1.767770   -0.000059    0.000043
      3          6           0        0.895653   -0.458480    1.727290
      4          1           0        0.527347    0.261158    2.462906
      5          1           0        1.989141   -0.474125    1.785877
      6          1           0        0.527200   -1.448135    2.009187
      7          6           0        0.895462    1.725180   -0.466596
      8          1           0        1.988936    1.783869   -0.482403
      9          1           0        0.526942    2.464109    0.249524
     10          1           0        0.527060    2.002336   -1.457615
     11          6           0        0.895585   -1.266626   -1.260742
     12          1           0        0.527346   -2.263504   -1.005219
     13          1           0        1.989066   -1.309512   -1.303692
     14          1           0        0.527004   -1.016015   -2.258740
 ---------------------------------------------------------------------

 SCF Done:  E(RHF) =  -868.428934879     A.U. after    2 cycles

 The electronic state is 1-A.
 Alpha  occ. eigenvalues --  -99.86285 -76.23197 -11.35291 -11.35291 -11.35280
 Alpha  occ. eigenvalues --  -10.43659  -9.63592  -9.63079  -9.63079  -5.57242
 Alpha  occ. eigenvalues --   -2.20597  -2.20596  -2.19431  -1.26884  -1.08367
 Alpha  occ. eigenvalues --   -1.01906  -1.01905  -0.68994  -0.58837  -0.57665
 Alpha  occ. eigenvalues --   -0.57665  -0.56277  -0.56276  -0.54282  -0.50828
 Alpha  occ. eigenvalues --   -0.50828  -0.49951  -0.39993  -0.39992
 Alpha virt. eigenvalues --    0.02415   0.05471   0.05471   0.05952   0.06594
 Alpha virt. eigenvalues --    0.06594   0.07343   0.07677   0.07677   0.07986
 Alpha virt. eigenvalues --    0.09975   0.09975   0.10076   0.13636   0.16458

 Mulliken charges:
               1
     1  Si   6.519282
     2  Cl  -0.993040
     3  C   -5.424631
     4  H    1.156042
     5  H    1.270538
     6  H    1.156035
     7  C   -5.424725
     8  H    1.270558
     9  H    1.156004
    10  H    1.156006
    11  C   -5.424662
    12  H    1.156017
    13  H    1.270551
    14  H    1.156026
 Sum of Mulliken charges =  -0.00000

 Dipole moment (field-independent basis, Debye):
    X=              2.4936    Y=              0.0002    Z=             -0.0002  Tot=              2.4936

 Test job not archived.
 1\1\GINC-SE455\SP\RHF\Aug-CC-pVDZ\C3H9Cl1Si1\OHZDE\08-Apr-2025\0\\#t h
 f aug-cc-pvdz iop(5/13=1,5/36=2,99/5=2) pseudo=read geom=check guess=(
 read,tcheck) scf=(maxcycle=1)\\title\\0,1\Si,0,0.342989,0.000027,-0.00
 0019\Cl,0,-1.76777,-0.00006,0.000042\C,0,0.895653,-0.461625,1.726452\H
 ,0,0.527346,0.256671,2.463378\H,0,1.989141,-0.477376,1.785011\H,0,0.52
 72,-1.451792,2.006546\C,0,0.895461,1.726028,-0.463453\H,0,1.988935,1.7
 84746,-0.479152\H,0,0.526941,2.463651,0.254012\H,0,0.527059,2.004988,-
 1.453965\C,0,0.895586,-1.264327,-1.263047\H,0,0.527347,-2.261669,-1.00

 Normal termination of Gaussian 16 at Tue Apr  8 22:59:57 2025.
