 Gaussian 16, Revision C.01,

 ----------------------------------------------------------------------
 #t hf aug-cc-pvdz symm=none int=(grid=ultrafine) guess=(read,tcheck) s
 table=(opt,rrhf)
 ----------------------------------------------------------------------
 -----
 title
 -----
 Symbolic Z-matrix:
 Charge =  0 Multiplicity = 1

 SCF Done:  E(RHF) =  -2975.17796603     A.U. after   11 cycles
 Normal termination of Gaussian 16 at Wed Apr  9 00:09:45 2025.
 Gaussian 16:  ES64L-G16RevC.01  3-Jul-2019

 ----------------------------------------------------------------------
 #t hf aug-cc-pvdz iop(5/13=1,5/36=2,99/5=2) pseudo=read geom=check gue
 ss=(read,tcheck) scf=(maxcycle=1)
 ----------------------------------------------------------------------
 -----
 title
 -----
 Structure from the checkpoint file:  "BDE49_nonexpt_2329_mol1.chk"
 Charge =  0 Multiplicity = 1

                         Standard orientation:
 ---------------------------------------------------------------------
 Center     Atomic      Atomic             Coordinates (Angstroms)
 Number     Number       Type             X           Y           Z
 ---------------------------------------------------------------------
      1         14           0        0.712062    1.093749    0.000000
      2         14           0       -0.341030   -1.003307   -0.000000
      3         17           0        0.214780   -2.052486    1.676733
      4         17           0        0.214780   -2.052486   -1.676733
      5         17           0        0.214780    2.153572   -1.679772
      6         17           0        0.214780    2.153572    1.679772
      7         17           0       -2.378959   -0.743812   -0.000000
      8          9           0        2.293649    0.882409    0.000000
 ---------------------------------------------------------------------

 SCF Done:  E(RHF) =  -2977.01546400     A.U. after    2 cycles

 The electronic state is 1-A'.
 Alpha  occ. eigenvalues --  -99.92326 -99.92313 -99.92311 -99.92254 -99.92254
 Alpha  occ. eigenvalues --  -76.36526 -76.35861 -29.31139 -10.49818 -10.49797
 Alpha  occ. eigenvalues --  -10.49783 -10.49713 -10.49708  -9.69657  -9.69637
 Alpha  occ. eigenvalues --   -9.69629  -9.69577  -9.69569  -9.69130  -9.69129
 Alpha  occ. eigenvalues --   -9.69064  -9.69026  -9.69003  -9.68958  -9.68930
 Alpha  occ. eigenvalues --   -9.68862  -9.68832  -9.68809  -5.70457  -5.70182
 Alpha  occ. eigenvalues --   -2.34553  -2.32056  -2.32045  -2.31777  -2.30585
 Alpha  occ. eigenvalues --   -2.29575  -1.35730  -1.34345  -1.32000  -1.31617
 Alpha  occ. eigenvalues --   -1.31432  -0.91713  -0.81039  -0.68077  -0.64442
 Alpha  occ. eigenvalues --   -0.63660  -0.62806  -0.62664  -0.58973  -0.58373
 Alpha  occ. eigenvalues --   -0.58229  -0.57292  -0.57156  -0.55260  -0.55101
 Alpha  occ. eigenvalues --   -0.54263  -0.53294  -0.46863  -0.38146  -0.37848
 Alpha  occ. eigenvalues --   -0.35420
 Alpha virt. eigenvalues --    0.02984   0.03954   0.03995   0.05656   0.06274
 Alpha virt. eigenvalues --    0.06630   0.07226   0.08092   0.08172   0.09228
 Alpha virt. eigenvalues --    0.09682   0.11312   0.11673   0.12341   0.13272

 Mulliken charges:
               1
     1  Si   2.474576
     2  Si   1.650403
     3  Cl  -0.732593
     4  Cl  -0.732593
     5  Cl  -0.831384
     6  Cl  -0.831384
     7  Cl  -0.744302
     8  F   -0.252724
 Sum of Mulliken charges =  -0.00000

 Dipole moment (field-independent basis, Debye):
    X=              3.7318    Y=             -0.2645    Z=              0.0000  Tot=              3.7411

 Test job not archived.
 1\1\GINC-SE423\SP\RHF\Aug-CC-pVDZ\Cl5F1Si2\OHZDE\09-Apr-2025\0\\#t hf
 aug-cc-pvdz iop(5/13=1,5/36=2,99/5=2) pseudo=read geom=check guess=(re
 ad,tcheck) scf=(maxcycle=1)\\title\\0,1\Si,0,1.253786,0.,-0.36241\Si,0
 ,-1.059142,0.,0.03384\Cl,0,-1.900804,-1.676733,-0.8036\Cl,0,-1.900804,
 1.676733,-0.8036\Cl,0,2.122686,1.679772,0.422145\Cl,0,2.122686,-1.6797
 72,0.422145\Cl,0,-1.404811,0.,2.058934\F,0,1.512531,0.,-1.936936\\Vers
 ion=ES64L-G16RevC.01\State=1-A'\HF=-2977.015464\RMSD=3.497e-02\Dipole=
 0.3283075,0.,-1.4347984\Quadrupole=-2.8053632,-1.1087619,3.9141251,0.,

 Normal termination of Gaussian 16 at Wed Apr  9 00:09:49 2025.
