 Gaussian 16, Revision C.01,

 ----------------------------------------------------------------------
 #t hf aug-cc-pvdz symm=none int=(grid=ultrafine) guess=(read,tcheck) s
 table=opt
 ----------------------------------------------------------------------
 -----
 title
 -----
 Symbolic Z-matrix:
 Charge =  0 Multiplicity = 2

 SCF Done:  E(UHF) =  -407.757477147     A.U. after   15 cycles

 1\1\GINC-SE109\Stability\UHF\Aug-CC-pVDZ\C3H9Si1\OHZDE\08-Apr-2025\0\\
 #t hf aug-cc-pvdz symm=none int=(grid=ultrafine) guess=(read,tcheck) s
 table=opt\\title\\0,2\Si,0,0.680177,-0.703795,0.12049\C,0,-1.098561,-0
 .443373,-0.484177\C,0,-1.87124,0.664887,0.260207\H,0,-1.629724,-1.3965
 8,-0.38706\H,0,-1.069282,-0.224175,-1.55763\H,0,-1.935803,0.455793,1.3
 31636\H,0,-2.893855,0.757358,-0.119947\C,0,1.763258,0.824325,-0.130126
 \H,0,2.782281,0.638672,0.218536\H,0,1.370004,1.680952,0.429169\H,0,1.8
 13934,1.104318,-1.185745\H,0,-1.390141,1.639887,0.143342\H,0,0.669374,

 Normal termination of Gaussian 16 at Tue Apr  8 23:41:26 2025.
 Gaussian 16:  ES64L-G16RevC.01  3-Jul-2019

 ----------------------------------------------------------------------
 #t hf aug-cc-pvdz iop(5/13=1,5/36=2,99/5=2) pseudo=read geom=check gue
 ss=(read,tcheck) scf=(maxcycle=1)
 ----------------------------------------------------------------------
 -----
 title
 -----
 Structure from the checkpoint file:  "BDE49_nonexpt_1636_mol2.chk"
 Charge =  0 Multiplicity = 2

                         Standard orientation:
 ---------------------------------------------------------------------
 Center     Atomic      Atomic             Coordinates (Angstroms)
 Number     Number       Type             X           Y           Z
 ---------------------------------------------------------------------
      1         14           0        0.680177   -0.703795    0.120490
      2          6           0       -1.098561   -0.443373   -0.484177
      3          6           0       -1.871240    0.664887    0.260207
      4          1           0       -1.629724   -1.396580   -0.387060
      5          1           0       -1.069282   -0.224175   -1.557630
      6          1           0       -1.935803    0.455793    1.331636
      7          1           0       -2.893855    0.757358   -0.119947
      8          6           0        1.763258    0.824326   -0.130126
      9          1           0        2.782281    0.638673    0.218536
     10          1           0        1.370004    1.680952    0.429169
     11          1           0        1.813934    1.104319   -1.185745
     12          1           0       -1.390141    1.639887    0.143342
     13          1           0        0.669374   -1.078137    1.565417
 ---------------------------------------------------------------------

 SCF Done:  E(UHF) =  -408.527166219     A.U. after    2 cycles

 The electronic state is 2-A.
 Alpha  occ. eigenvalues --  -76.20555 -11.39054 -11.34871 -11.34506  -5.54166
 Alpha  occ. eigenvalues --   -2.18139  -2.16737  -2.15663  -1.14947  -1.03303
 Alpha  occ. eigenvalues --   -0.88920  -0.69155  -0.60868  -0.57191  -0.55784
 Alpha  occ. eigenvalues --   -0.54827  -0.49844  -0.48814  -0.42780  -0.38120
 Alpha  occ. eigenvalues --   -0.25219
 Alpha virt. eigenvalues --    0.03355   0.05029   0.05738   0.05805   0.06413
 Alpha virt. eigenvalues --    0.06700   0.06910   0.07301   0.08035   0.08729
 Alpha virt. eigenvalues --    0.09376   0.10906   0.13041   0.13933   0.14915

  Beta  occ. eigenvalues --  -76.20024 -11.38977 -11.34819 -11.34441  -5.53334
  Beta  occ. eigenvalues --   -2.17537  -2.16028  -2.12281  -1.14488  -1.02734
  Beta  occ. eigenvalues --   -0.88501  -0.65585  -0.60751  -0.56342  -0.55179
  Beta  occ. eigenvalues --   -0.54500  -0.49307  -0.48733  -0.41905  -0.37367
  Beta virt. eigenvalues --    0.03216   0.04572   0.05235   0.05901   0.06463
  Beta virt. eigenvalues --    0.06586   0.06718   0.07286   0.07499   0.08764
  Beta virt. eigenvalues --    0.09436   0.09972   0.11449   0.13631   0.14012

 Mulliken charges and spin densities:
               1          2
     1  Si   4.254910   1.006751
     2  C   -4.130374   0.051546
     3  C   -3.658140   0.012384
     4  H    1.353959  -0.004804
     5  H    1.376708  -0.029532
     6  H    1.313923  -0.013146
     7  H    1.169200   0.004736
     8  C   -5.133614  -0.005619
     9  H    1.306851  -0.032534
    10  H    1.281754   0.004928
    11  H    1.271267  -0.015128
    12  H    1.359040  -0.005161
    13  H   -1.765485   0.025579
 Sum of Mulliken charges =  -0.00000   1.00000

 Dipole moment (field-independent basis, Debye):
    X=             -0.3604    Y=              0.5880    Z=             -0.5927  Tot=              0.9093
                          Isotropic Fermi Contact Couplings
        Atom                 a.u.       MegaHertz       Gauss      10(-4) cm-1
     1  Si(29)             0.43226    -384.16132    -137.07831    -128.14242
     2  C(13)              0.01775      19.95988       7.12218       6.65790
     3  C(13)              0.01949      21.91513       7.81986       7.31010
     4  H(1)               0.00042       1.86876       0.66682       0.62335
     5  H(1)               0.00009       0.42014       0.14992       0.14014
     6  H(1)              -0.00010      -0.46247      -0.16502      -0.15426
     7  H(1)               0.00202       9.03415       3.22361       3.01347
     8  C(13)              0.01798      20.20939       7.21121       6.74113

 Normal termination of Gaussian 16 at Tue Apr  8 23:41:30 2025.
