 Gaussian 16, Revision C.01,

 ----------------------------------------------------------------------
 #t hf aug-cc-pvdz symm=none int=(grid=ultrafine) guess=(read,tcheck) s
 table=(opt,rrhf)
 ----------------------------------------------------------------------
 -----
 title
 -----
 Symbolic Z-matrix:
 Charge =  0 Multiplicity = 1

 SCF Done:  E(RHF) =  -341.417244649     A.U. after   12 cycles
 Normal termination of Gaussian 16 at Wed Apr  9 00:32:26 2025.
 Gaussian 16:  ES64L-G16RevC.01  3-Jul-2019

 ----------------------------------------------------------------------
 #t hf aug-cc-pvdz iop(5/13=1,5/36=2,99/5=2) pseudo=read geom=check gue
 ss=(read,tcheck) scf=(maxcycle=1)
 ----------------------------------------------------------------------
 -----
 title
 -----
 Structure from the checkpoint file:  "BDE49_nonexpt_373_mol1.chk"
 Charge =  0 Multiplicity = 1

                         Standard orientation:
 ---------------------------------------------------------------------
 Center     Atomic      Atomic             Coordinates (Angstroms)
 Number     Number       Type             X           Y           Z
 ---------------------------------------------------------------------
      1          9           0        2.175946   -0.398326    0.490299
      2          9           0        0.966487    1.257438   -0.437678
      3          5           0        1.020086   -0.012389   -0.042945
      4          6           0       -0.172986   -1.000773   -0.224038
      5          6           0       -1.542770   -0.364769   -0.519937
      6          1           0        0.113374   -1.673837   -1.046493
      7          6           0       -2.091584    0.454910    0.652159
      8          1           0       -2.257991   -1.153098   -0.775981
      9          1           0       -1.462337    0.275997   -1.403871
     10          1           0       -2.200273   -0.162858    1.549343
     11          1           0       -3.073702    0.873333    0.417265
     12          1           0       -0.228567   -1.655657    0.654436
     13          1           0       -1.428796    1.289847    0.897331
 ---------------------------------------------------------------------

 SCF Done:  E(RHF) =  -342.816842792     A.U. after    2 cycles

 The electronic state is 1-A.
 Alpha  occ. eigenvalues --  -29.25132 -29.25020 -11.41718 -11.37675 -11.34652
 Alpha  occ. eigenvalues --   -7.68911  -1.25788  -1.12120  -0.97822  -0.84919
 Alpha  occ. eigenvalues --   -0.74201  -0.63800  -0.62583  -0.56717  -0.55741
 Alpha  occ. eigenvalues --   -0.48947  -0.48343  -0.47603  -0.44608  -0.43963
 Alpha  occ. eigenvalues --   -0.43430  -0.33516  -0.31989  -0.25756
 Alpha virt. eigenvalues --    0.03267   0.04000   0.04790   0.05244   0.06281
 Alpha virt. eigenvalues --    0.06505   0.07149   0.07579   0.08757   0.09386
 Alpha virt. eigenvalues --    0.10181   0.13634   0.14006   0.15067   0.15511

 Mulliken charges:
               1
     1  F    0.124815
     2  F   -0.814976
     3  B    2.346344
     4  C   -4.097910
     5  C   -2.737009
     6  H    1.037774
     7  C   -3.812527
     8  H    1.321751
     9  H    1.464333
    10  H    1.336651
    11  H    1.135997
    12  H    1.290129
    13  H    1.404628
 Sum of Mulliken charges =   0.00000

 Dipole moment (field-independent basis, Debye):
    X=              1.3086    Y=              1.2684    Z=              0.0191  Tot=              1.8225

 Test job not archived.
 1\1\GINC-SE339\SP\RHF\Aug-CC-pVDZ\C3H7B1F2\OHZDE\09-Apr-2025\0\\#t hf
 aug-cc-pvdz iop(5/13=1,5/36=2,99/5=2) pseudo=read geom=check guess=(re
 ad,tcheck) scf=(maxcycle=1)\\title\\0,1\F,0,2.175946,-0.398326,0.49029
 9\F,0,0.966487,1.257438,-0.437678\B,0,1.020086,-0.012389,-0.042945\C,0
 ,-0.172986,-1.000773,-0.224038\C,0,-1.54277,-0.364769,-0.519937\H,0,0.
 113374,-1.673837,-1.046493\C,0,-2.091584,0.45491,0.652159\H,0,-2.25799
 1,-1.153098,-0.775981\H,0,-1.462337,0.275997,-1.403871\H,0,-2.200273,-
 0.162858,1.549343\H,0,-3.073702,0.873333,0.417265\H,0,-0.228567,-1.655

 Normal termination of Gaussian 16 at Wed Apr  9 00:32:29 2025.
