 Gaussian 16, Revision C.01,

 ----------------------------------------------------------------------
 #t hf aug-cc-pvdz symm=none int=(grid=ultrafine) guess=(read,tcheck) s
 table=(opt,rrhf)
 ----------------------------------------------------------------------
 -----
 title
 -----
 Symbolic Z-matrix:
 Charge =  0 Multiplicity = 1

 SCF Done:  E(RHF) =  -817.518464057     A.U. after   13 cycles
 Normal termination of Gaussian 16 at Tue Apr  8 22:56:51 2025.
 Gaussian 16:  ES64L-G16RevC.01  3-Jul-2019

 ----------------------------------------------------------------------
 #t hf aug-cc-pvdz iop(5/13=1,5/36=2,99/5=2) pseudo=read geom=check gue
 ss=(read,tcheck) scf=(maxcycle=1)
 ----------------------------------------------------------------------
 -----
 title
 -----
 Structure from the checkpoint file:  "BDE49_expt_1838_mol1.chk"
 Charge =  0 Multiplicity = 1

                         Standard orientation:
 ---------------------------------------------------------------------
 Center     Atomic      Atomic             Coordinates (Angstroms)
 Number     Number       Type             X           Y           Z
 ---------------------------------------------------------------------
      1          7           0       -0.321984    0.000000   -0.000045
      2          6           0        0.424248    1.194385   -0.000164
      3          6           0        1.886965    0.768930   -0.000025
      4          6           0        1.886965   -0.768930   -0.000018
      5          1           0        2.367861    1.202545    0.878680
      6          1           0        2.367982    1.202542   -0.878663
      7          6           0        0.424248   -1.194385   -0.000058
      8          1           0        2.367888   -1.202534    0.878676
      9          1           0        2.367954   -1.202554   -0.878666
     10          8           0       -0.032407   -2.301325    0.000017
     11          8           0       -0.032407    2.301325    0.000020
     12         17           0       -2.025520   -0.000000    0.000093
 ---------------------------------------------------------------------

 SCF Done:  E(RHF) =  -819.321932522     A.U. after    2 cycles

 The electronic state is 1-A.
 Alpha  occ. eigenvalues --  -99.94458 -21.07388 -21.07375 -15.82529 -11.55737
 Alpha  occ. eigenvalues --  -11.54014 -11.47712 -11.41787 -10.51598  -9.71747
 Alpha  occ. eigenvalues --   -9.70694  -9.70328  -1.76304  -1.73763  -1.51815
 Alpha  occ. eigenvalues --   -1.31874  -1.16578  -1.03239  -0.88149  -0.82158
 Alpha  occ. eigenvalues --   -0.71671  -0.64964  -0.64152  -0.63348  -0.60110
 Alpha  occ. eigenvalues --   -0.58270  -0.53164  -0.52577  -0.51728  -0.51499
 Alpha  occ. eigenvalues --   -0.44785  -0.34879  -0.34696  -0.30087
 Alpha virt. eigenvalues --    0.02392   0.04595   0.05049   0.05443   0.05995
 Alpha virt. eigenvalues --    0.07745   0.09686   0.09889   0.09974   0.10749
 Alpha virt. eigenvalues --    0.12936   0.13514   0.14609   0.14865   0.15108

 Mulliken charges:
               1
     1  N   -1.946024
     2  C    4.401681
     3  C   -3.130872
     4  C   -3.130872
     5  H    1.375591
     6  H    1.375670
     7  C    4.401682
     8  H    1.375621
     9  H    1.375641
    10  O   -3.363482
    11  O   -3.363482
    12  Cl   0.628847
 Sum of Mulliken charges =   0.00000

 Dipole moment (field-independent basis, Debye):
    X=              2.9739    Y=             -0.0000    Z=              0.0000  Tot=              2.9739

 Test job not archived.
 1\1\GINC-SE044\SP\RHF\Aug-CC-pVDZ\C4H4Cl1N1O2\OHZDE\08-Apr-2025\0\\#t
 hf aug-cc-pvdz iop(5/13=1,5/36=2,99/5=2) pseudo=read geom=check guess=
 (read,tcheck) scf=(maxcycle=1)\\title\\0,1\N,0,-0.321984,0.,-0.000045\
 C,0,0.424248,1.194385,-0.000164\C,0,1.886965,0.76893,-0.000025\C,0,1.8
 86965,-0.76893,-0.000018\H,0,2.367861,1.202545,0.87868\H,0,2.367982,1.
 202542,-0.878663\C,0,0.424248,-1.194385,-0.000058\H,0,2.367888,-1.2025
 34,0.878676\H,0,2.367954,-1.202554,-0.878666\O,0,-0.032407,-2.301325,0
 .000017\O,0,-0.032407,2.301325,0.00002\Cl,0,-2.02552,0.,0.000093\\Vers

 Normal termination of Gaussian 16 at Tue Apr  8 22:56:57 2025.
