 Gaussian 16, Revision C.01,

 ----------------------------------------------------------------------
 #t hf aug-cc-pvdz symm=none int=(grid=ultrafine) guess=(read,tcheck) s
 table=(opt,rrhf)
 ----------------------------------------------------------------------
 -----
 title
 -----
 Symbolic Z-matrix:
 Charge =  0 Multiplicity = 1

 SCF Done:  E(RHF) =  -1498.49396197     A.U. after   15 cycles
 Normal termination of Gaussian 16 at Wed Apr  9 00:17:42 2025.
 Gaussian 16:  ES64L-G16RevC.01  3-Jul-2019

 ----------------------------------------------------------------------
 #t hf aug-cc-pvdz iop(5/13=1,5/36=2,99/5=2) pseudo=read geom=check gue
 ss=(read,tcheck) scf=(maxcycle=1)
 ----------------------------------------------------------------------
 -----
 title
 -----
 Structure from the checkpoint file:  "BDE49_nonexpt_2555_mol1.chk"
 Charge =  0 Multiplicity = 1

                         Standard orientation:
 ---------------------------------------------------------------------
 Center     Atomic      Atomic             Coordinates (Angstroms)
 Number     Number       Type             X           Y           Z
 ---------------------------------------------------------------------
      1         17           0        2.548922    0.631760    0.048277
      2         16           0        1.321249   -1.026648   -0.054167
      3         15           0       -1.337696    0.033363   -0.089670
      4          8           0       -1.873118   -0.875196   -1.098458
      5          8           0       -2.295628    0.427230    1.113786
      6          1           0       -2.881816   -0.295258    1.369287
      7          8           0       -0.820510    1.446150   -0.590953
      8          1           0       -1.134660    1.653889   -1.479132
      9          8           0       -0.059462   -0.519760    0.763233
 ---------------------------------------------------------------------

 SCF Done:  E(RHF) =  -1500.38682130     A.U. after    2 cycles

 The electronic state is 1-A.
 Alpha  occ. eigenvalues -- -105.34748 -99.92560 -75.80769 -21.13834 -21.13748
 Alpha  occ. eigenvalues --  -21.12683 -21.04653 -13.25593 -13.15581 -13.14316
 Alpha  occ. eigenvalues --  -10.49729  -9.69443  -9.68786  -9.68705  -8.14070
 Alpha  occ. eigenvalues --   -2.98152  -2.03376  -1.94970  -1.93147  -1.77633
 Alpha  occ. eigenvalues --   -1.47381  -1.42402  -1.33859  -1.27364  -1.03121
 Alpha  occ. eigenvalues --   -0.72034  -0.62234  -0.61695  -0.59741  -0.58078
 Alpha  occ. eigenvalues --   -0.56043  -0.50393  -0.48299  -0.43536  -0.41989
 Alpha  occ. eigenvalues --   -0.40107  -0.36467  -0.34895  -0.30371  -0.23366
 Alpha  occ. eigenvalues --   -0.17410
 Alpha virt. eigenvalues --    0.03352   0.03875   0.05512   0.06702   0.09473
 Alpha virt. eigenvalues --    0.10673   0.11392   0.12426   0.13304   0.13481
 Alpha virt. eigenvalues --    0.14038   0.15248   0.17131   0.18325   0.19958

 Mulliken charges:
               1
     1  Cl  -0.424346
     2  S    0.986715
     3  P    8.242207
     4  O   -2.738144
     5  O   -2.662936
     6  H    0.831084
     7  O   -2.657023
     8  H    0.851308
     9  O   -2.428865
 Sum of Mulliken charges =   0.00000

 Dipole moment (field-independent basis, Debye):
    X=             -1.6460    Y=             -0.7829    Z=              1.4628  Tot=              2.3371

 Test job not archived.
 1\1\GINC-SE457\SP\RHF\Aug-CC-pVDZ\Cl1H2O4P1S1\OHZDE\09-Apr-2025\0\\#t
 hf aug-cc-pvdz iop(5/13=1,5/36=2,99/5=2) pseudo=read geom=check guess=
 (read,tcheck) scf=(maxcycle=1)\\title\\0,1\Cl,0,2.548922,0.63176,0.048
 277\S,0,1.321249,-1.026648,-0.054167\P,0,-1.337696,0.033363,-0.08967\O
 ,0,-1.873118,-0.875196,-1.098458\O,0,-2.295628,0.42723,1.113786\H,0,-2
 .881816,-0.295258,1.369287\O,0,-0.82051,1.44615,-0.590953\H,0,-1.13466
 ,1.653889,-1.479132\O,0,-0.059462,-0.51976,0.763233\\Version=ES64L-G16
 RevC.01\State=1-A\HF=-1500.3868213\RMSD=8.260e-02\Dipole=-0.6475911,-0

 Normal termination of Gaussian 16 at Wed Apr  9 00:17:46 2025.
