 Gaussian 16, Revision C.01,

 ----------------------------------------------------------------------
 #t hf aug-cc-pvdz symm=none int=(grid=ultrafine) guess=(read,tcheck) s
 table=(opt,rrhf)
 ----------------------------------------------------------------------
 -----
 title
 -----
 Symbolic Z-matrix:
 Charge =  0 Multiplicity = 1

 SCF Done:  E(RHF) =  -569.618895502     A.U. after   14 cycles
 Normal termination of Gaussian 16 at Tue Apr  8 23:57:22 2025.
 Gaussian 16:  ES64L-G16RevC.01  3-Jul-2019

 ----------------------------------------------------------------------
 #t hf aug-cc-pvdz iop(5/13=1,5/36=2,99/5=2) pseudo=read geom=check gue
 ss=(read,tcheck) scf=(maxcycle=1)
 ----------------------------------------------------------------------
 -----
 title
 -----
 Structure from the checkpoint file:  "BDE49_nonexpt_2014_mol1.chk"
 Charge =  0 Multiplicity = 1

                         Standard orientation:
 ---------------------------------------------------------------------
 Center     Atomic      Atomic             Coordinates (Angstroms)
 Number     Number       Type             X           Y           Z
 ---------------------------------------------------------------------
      1          7           0       -1.020952    0.039361    0.000021
      2         14           0        1.643061    0.001523    0.000003
      3          8           0       -0.797604    1.234503   -0.000023
      4          8           0       -2.064960   -0.538570   -0.000012
      5          8           0        0.113325   -0.788541    0.000011
      6          1           0        2.535051   -1.170089   -0.000010
      7          1           0        1.801341    0.807049    1.221399
      8          1           0        1.801321    0.807060   -1.221390
 ---------------------------------------------------------------------

 SCF Done:  E(RHF) =  -570.922487613     A.U. after    2 cycles

 The electronic state is 1-A.
 Alpha  occ. eigenvalues --  -76.27842 -21.13785 -21.13707 -21.12744 -16.07051
 Alpha  occ. eigenvalues --   -5.61203  -2.26955  -2.23198  -2.22929  -2.08741
 Alpha  occ. eigenvalues --   -1.74992  -1.73091  -0.95093  -0.78366  -0.73638
 Alpha  occ. eigenvalues --   -0.72730  -0.67431  -0.52424  -0.51881  -0.47430
 Alpha  occ. eigenvalues --   -0.41991  -0.38400  -0.35238  -0.32630
 Alpha virt. eigenvalues --    0.03748   0.05198   0.05787   0.06446   0.08783
 Alpha virt. eigenvalues --    0.09040   0.12721   0.13091   0.14341   0.14819
 Alpha virt. eigenvalues --    0.16450   0.16906   0.18025   0.18787   0.19730

 Mulliken charges:
               1
     1  N    6.601653
     2  Si   6.403264
     3  O   -2.560143
     4  O   -2.682094
     5  O   -2.720170
     6  H   -1.664390
     7  H   -1.689064
     8  H   -1.689056
 Sum of Mulliken charges =  -0.00000

 Dipole moment (field-independent basis, Debye):
    X=              1.4776    Y=             -0.3632    Z=             -0.0000  Tot=              1.5216

 Test job not archived.
 1\1\GINC-SE284\SP\RHF\Aug-CC-pVDZ\H3N1O3Si1\OHZDE\08-Apr-2025\0\\#t hf
  aug-cc-pvdz iop(5/13=1,5/36=2,99/5=2) pseudo=read geom=check guess=(r
 ead,tcheck) scf=(maxcycle=1)\\title\\0,1\N,0,1.020952,0.039361,-0.0000
 21\Si,0,-1.643061,0.001523,-0.000003\O,0,0.797604,1.234503,0.000023\O,
 0,2.06496,-0.53857,0.000012\O,0,-0.113325,-0.788541,-0.000011\H,0,-2.5
 35051,-1.170089,0.00001\H,0,-1.801341,0.807049,-1.221399\H,0,-1.801321
 ,0.80706,1.22139\\Version=ES64L-G16RevC.01\State=1-A\HF=-570.9224876\R
 MSD=9.581e-02\Dipole=-0.5813169,-0.1429092,0.000013\Quadrupole=0.64904

 Normal termination of Gaussian 16 at Tue Apr  8 23:57:25 2025.
