 Gaussian 16, Revision C.01,

 ----------------------------------------------------------------------
 #t hf aug-cc-pvdz symm=none int=(grid=ultrafine) guess=(read,tcheck) s
 table=(opt,rrhf)
 ----------------------------------------------------------------------
 -----
 title
 -----
 Symbolic Z-matrix:
 Charge =  0 Multiplicity = 1

 SCF Done:  E(RHF) =  -837.766469805     A.U. after   16 cycles
 Normal termination of Gaussian 16 at Tue Apr  8 23:21:17 2025.
 Gaussian 16:  ES64L-G16RevC.01  3-Jul-2019

 ----------------------------------------------------------------------
 #t hf aug-cc-pvdz iop(5/13=1,5/36=2,99/5=2) pseudo=read geom=check gue
 ss=(read,tcheck) scf=(maxcycle=1)
 ----------------------------------------------------------------------
 -----
 title
 -----
 Structure from the checkpoint file:  "BDE49_nonexpt_1092_mol1.chk"
 Charge =  0 Multiplicity = 1

                         Standard orientation:
 ---------------------------------------------------------------------
 Center     Atomic      Atomic             Coordinates (Angstroms)
 Number     Number       Type             X           Y           Z
 ---------------------------------------------------------------------
      1         17           0        1.217480   -1.695293   -0.686038
      2          7           0       -1.341603   -0.039088    0.053453
      3          7           0        0.445997    1.274710    0.172909
      4          6           0       -0.143074    0.143095    0.786906
      5          6           0       -1.438802    0.930847   -0.954038
      6          1           0       -2.262462    0.938149   -1.646791
      7          6           0       -0.340308    1.702631   -0.902310
      8          1           0       -0.020550    2.501421   -1.549091
      9          6           0       -2.432165   -0.847191    0.552054
     10          1           0       -2.026036   -1.737924    1.032640
     11          1           0       -3.055130   -1.173352   -0.282747
     12          6           0        1.739737    1.791034    0.556803
     13          1           0        1.801980    2.848476    0.290639
     14          1           0        2.565201    1.253899    0.077294
     15          1           0        1.863376    1.704068    1.639758
     16          8           0        0.715972   -1.051241    0.890343
     17          1           0       -0.269086    0.231463    1.885940
     18          1           0       -3.065310   -0.308133    1.271227
 ---------------------------------------------------------------------

 SCF Done:  E(RHF) =  -839.785051636     A.U. after    2 cycles

 The electronic state is 1-A.
 Alpha  occ. eigenvalues --  -99.91242 -21.09519 -15.73140 -15.73047 -11.48198
 Alpha  occ. eigenvalues --  -11.45952 -11.40650 -11.40285 -11.38294 -10.47908
 Alpha  occ. eigenvalues --   -9.67816  -9.67181  -9.67048  -1.75456  -1.53833
 Alpha  occ. eigenvalues --   -1.35118  -1.23377  -1.12148  -1.04585  -0.97456
 Alpha  occ. eigenvalues --   -0.82333  -0.82183  -0.71880  -0.68804  -0.61871
 Alpha  occ. eigenvalues --   -0.61192  -0.60440  -0.59113  -0.57070  -0.55541
 Alpha  occ. eigenvalues --   -0.54051  -0.52436  -0.50519  -0.50025  -0.47554
 Alpha  occ. eigenvalues --   -0.42426  -0.37042  -0.33879  -0.21387
 Alpha virt. eigenvalues --    0.03508   0.04990   0.05338   0.05642   0.05674
 Alpha virt. eigenvalues --    0.06315   0.06639   0.07188   0.07658   0.08230
 Alpha virt. eigenvalues --    0.10413   0.11686   0.11948   0.11995   0.12950

 Mulliken charges:
               1
     1  Cl   0.154062
     2  N   -3.003624
     3  N   -3.090634
     4  C    1.783227
     5  C    0.062214
     6  H    1.331778
     7  C    0.097691
     8  H    1.311720
     9  C   -3.745442
    10  H    1.437072
    11  H    1.396695
    12  C   -3.455252
    13  H    1.423656
    14  H    1.431807
    15  H    1.429105
    16  O   -2.022465
    17  H    1.971944
    18  H    1.486447
 Sum of Mulliken charges =   0.00000

 Dipole moment (field-independent basis, Debye):
    X=             -1.7095    Y=              2.4612    Z=              1.9228  Tot=              3.5605

 Test job not archived.
 1\1\GINC-SE361\SP\RHF\Aug-CC-pVDZ\C5H9Cl1N2O1\OHZDE\08-Apr-2025\0\\#t
 hf aug-cc-pvdz iop(5/13=1,5/36=2,99/5=2) pseudo=read geom=check guess=
 (read,tcheck) scf=(maxcycle=1)\\title\\0,1\Cl,0,1.21748,-1.695293,-0.6
 86038\N,0,-1.341603,-0.039088,0.053453\N,0,0.445997,1.27471,0.172909\C
 ,0,-0.143074,0.143095,0.786906\C,0,-1.438802,0.930847,-0.954038\H,0,-2
 .262462,0.938149,-1.646791\C,0,-0.340308,1.702631,-0.90231\H,0,-0.0205
 51,2.501421,-1.549091\C,0,-2.432165,-0.847192,0.552054\H,0,-2.026036,-
 1.737924,1.03264\H,0,-3.05513,-1.173353,-0.282747\C,0,1.739737,1.79103

 Normal termination of Gaussian 16 at Tue Apr  8 23:21:26 2025.
