 Gaussian 16, Revision C.01,

 ----------------------------------------------------------------------
 #t hf aug-cc-pvdz symm=none int=(grid=ultrafine) guess=(read,tcheck) s
 table=(opt,rrhf)
 ----------------------------------------------------------------------
 -----
 title
 -----
 Symbolic Z-matrix:
 Charge =  0 Multiplicity = 1

 SCF Done:  E(RHF) =  -875.121940395     A.U. after   15 cycles
 Normal termination of Gaussian 16 at Tue Apr  8 23:42:25 2025.
 Gaussian 16:  ES64L-G16RevC.01  3-Jul-2019

 ----------------------------------------------------------------------
 #t hf aug-cc-pvdz iop(5/13=1,5/36=2,99/5=2) pseudo=read geom=check gue
 ss=(read,tcheck) scf=(maxcycle=1)
 ----------------------------------------------------------------------
 -----
 title
 -----
 Structure from the checkpoint file:  "BDE49_nonexpt_1661_mol1.chk"
 Charge =  0 Multiplicity = 1

                         Standard orientation:
 ---------------------------------------------------------------------
 Center     Atomic      Atomic             Coordinates (Angstroms)
 Number     Number       Type             X           Y           Z
 ---------------------------------------------------------------------
      1         15           0       -0.126399    0.556285   -0.748126
      2         14           0       -1.873352   -0.533594    0.250137
      3          7           0        1.193746   -0.540778   -0.011279
      4          8           0        0.995165   -1.748118   -0.087691
      5          8           0        2.201822   -0.018562    0.433090
      6          6           0        0.091675    2.031994    0.347208
      7          1           0       -0.689373    2.750489    0.083686
      8          1           0        1.061177    2.480937    0.129758
      9          1           0        0.033562    1.803159    1.411574
     10          1           0       -2.208143   -1.736049   -0.534329
     11          1           0       -3.003658    0.425166    0.207913
     12          1           0       -1.552818   -0.870753    1.653873
 ---------------------------------------------------------------------

 SCF Done:  E(RHF) =  -876.530829955     A.U. after    2 cycles

 The electronic state is 1-A.
 Alpha  occ. eigenvalues -- -105.22670 -76.25163 -21.09646 -21.09191 -15.97820
 Alpha  occ. eigenvalues --  -11.40475  -5.58561  -2.80801  -2.20730  -2.20586
 Alpha  occ. eigenvalues --   -2.20490  -1.98465  -1.68928  -1.52841  -1.50247
 Alpha  occ. eigenvalues --   -1.48011  -1.04856  -0.92433  -0.79235  -0.71055
 Alpha  occ. eigenvalues --   -0.65222  -0.60670  -0.59474  -0.59100  -0.52803
 Alpha  occ. eigenvalues --   -0.49975  -0.49701  -0.32902  -0.31543  -0.24575
 Alpha  occ. eigenvalues --   -0.17891  -0.04541
 Alpha virt. eigenvalues --    0.03676   0.04808   0.05363   0.06071   0.06682
 Alpha virt. eigenvalues --    0.07899   0.08091   0.08904   0.09309   0.10013
 Alpha virt. eigenvalues --    0.10258   0.11294   0.13021   0.14343   0.14908

 Mulliken charges:
               1
     1  P    3.265278
     2  Si   5.082835
     3  N    4.067454
     4  O   -2.676248
     5  O   -2.502986
     6  C   -5.700158
     7  H    1.208569
     8  H    1.253872
     9  H    1.171179
    10  H   -1.746006
    11  H   -1.781195
    12  H   -1.642594
 Sum of Mulliken charges =  -0.00000

 Dipole moment (field-independent basis, Debye):
    X=              1.2038    Y=              2.7444    Z=             -3.7087  Tot=              4.7682

 Test job not archived.
 1\1\GINC-SE398\SP\RHF\Aug-CC-pVDZ\C1H6N1O2P1Si1\OHZDE\08-Apr-2025\0\\#
 t hf aug-cc-pvdz iop(5/13=1,5/36=2,99/5=2) pseudo=read geom=check gues
 s=(read,tcheck) scf=(maxcycle=1)\\title\\0,1\P,0,-0.126399,0.556285,-0
 .748126\Si,0,-1.873352,-0.533594,0.250137\N,0,1.193746,-0.540778,-0.01
 1279\O,0,0.995165,-1.748118,-0.087691\O,0,2.201822,-0.018562,0.43309\C
 ,0,0.091675,2.031994,0.347208\H,0,-0.689373,2.750489,0.083686\H,0,1.06
 1177,2.480937,0.129758\H,0,0.033562,1.803159,1.411574\H,0,-2.208143,-1
 .736049,-0.534329\H,0,-3.003658,0.425166,0.207913\H,0,-1.552818,-0.870

 Normal termination of Gaussian 16 at Tue Apr  8 23:42:29 2025.
