 Gaussian 16, Revision C.01,

 ----------------------------------------------------------------------
 #t hf aug-cc-pvdz symm=none int=(grid=ultrafine) guess=(read,tcheck) s
 table=(opt,rrhf)
 ----------------------------------------------------------------------
 -----
 title
 -----
 Symbolic Z-matrix:
 Charge =  0 Multiplicity = 1

 SCF Done:  E(RHF) =  -492.621499966     A.U. after   14 cycles
 Normal termination of Gaussian 16 at Wed Apr  9 00:53:46 2025.
 Gaussian 16:  ES64L-G16RevC.01  3-Jul-2019

 ----------------------------------------------------------------------
 #t hf aug-cc-pvdz iop(5/13=1,5/36=2,99/5=2) pseudo=read geom=check gue
 ss=(read,tcheck) scf=(maxcycle=1)
 ----------------------------------------------------------------------
 -----
 title
 -----
 Structure from the checkpoint file:  "BDE49_nonexpt_954_mol1.chk"
 Charge =  0 Multiplicity = 1

                         Standard orientation:
 ---------------------------------------------------------------------
 Center     Atomic      Atomic             Coordinates (Angstroms)
 Number     Number       Type             X           Y           Z
 ---------------------------------------------------------------------
      1          9           0       -2.177319   -1.660575    0.048772
      2          8           0        2.630705   -1.138444    0.040444
      3          7           0       -1.946064   -0.245587   -0.008035
      4          7           0        0.315887   -1.066561   -0.029415
      5          7           0       -0.051246    1.131768   -0.178726
      6          6           0       -0.664841   -0.090068   -0.066932
      7          6           0        1.592454   -0.532862    0.007213
      8          6           0        1.382917    0.984428    0.014281
      9          6           0       -0.752519    2.376570    0.075335
     10          1           0        0.094553   -2.050342   -0.013216
     11          1           0        1.726771    1.388331    0.976462
     12          1           0        1.964630    1.453655   -0.783981
     13          1           0       -0.780412    2.624023    1.144536
     14          1           0       -0.258026    3.185895   -0.464974
     15          1           0       -1.775387    2.285413   -0.287469
 ---------------------------------------------------------------------

 SCF Done:  E(RHF) =  -494.712911170     A.U. after    2 cycles

 The electronic state is 1-A.
 Alpha  occ. eigenvalues --  -29.25342 -21.07048 -15.81335 -15.78357 -15.77735
 Alpha  occ. eigenvalues --  -11.55016 -11.51548 -11.45708 -11.42588  -1.74902
 Alpha  occ. eigenvalues --   -1.60015  -1.38690  -1.36084  -1.11700  -1.03153
 Alpha  occ. eigenvalues --   -0.88003  -0.84219  -0.75837  -0.72260  -0.65565
 Alpha  occ. eigenvalues --   -0.62697  -0.61405  -0.60117  -0.59498  -0.55940
 Alpha  occ. eigenvalues --   -0.53426  -0.51264  -0.49726  -0.40494  -0.35635
 Alpha  occ. eigenvalues --   -0.34972  -0.31695  -0.23482  -0.20411
 Alpha virt. eigenvalues --    0.02768   0.04955   0.05103   0.06292   0.06533
 Alpha virt. eigenvalues --    0.06679   0.08599   0.10105   0.10283   0.11949
 Alpha virt. eigenvalues --    0.12375   0.13157   0.13271   0.13748   0.14335

 Mulliken charges:
               1
     1  F   -0.408934
     2  O   -3.436304
     3  N   -1.717251
     4  N   -2.063303
     5  N   -2.700212
     6  C    4.114178
     7  C    5.001130
     8  C   -2.927255
     9  C   -3.691284
    10  H    0.637644
    11  H    1.475449
    12  H    1.438408
    13  H    1.423477
    14  H    1.416577
    15  H    1.437679
 Sum of Mulliken charges =  -0.00000

 Dipole moment (field-independent basis, Debye):
    X=              0.7243    Y=              0.6723    Z=              0.1743  Tot=              1.0035

 Test job not archived.
 1\1\GINC-SE044\SP\RHF\Aug-CC-pVDZ\C4H6F1N3O1\OHZDE\09-Apr-2025\0\\#t h
 f aug-cc-pvdz iop(5/13=1,5/36=2,99/5=2) pseudo=read geom=check guess=(
 read,tcheck) scf=(maxcycle=1)\\title\\0,1\F,0,-2.177319,-1.660575,0.04
 8772\O,0,2.630705,-1.138444,0.040444\N,0,-1.946064,-0.245587,-0.008035
 \N,0,0.315887,-1.066561,-0.029415\N,0,-0.051246,1.131768,-0.178726\C,0
 ,-0.664841,-0.090068,-0.066932\C,0,1.592454,-0.532862,0.007213\C,0,1.3
 82917,0.984428,0.014281\C,0,-0.752519,2.37657,0.075335\H,0,0.094553,-2
 .050342,-0.013216\H,0,1.726771,1.388331,0.976462\H,0,1.96463,1.453655,

 Normal termination of Gaussian 16 at Wed Apr  9 00:53:52 2025.
