 Gaussian 16, Revision C.01,

 ----------------------------------------------------------------------
 #t hf aug-cc-pvdz symm=none int=(grid=ultrafine) guess=(read,tcheck) s
 table=opt
 ----------------------------------------------------------------------
 -----
 title
 -----
 Symbolic Z-matrix:
 Charge =  0 Multiplicity = 2

 SCF Done:  E(UHF) =  -156.691448942     A.U. after   14 cycles
 Normal termination of Gaussian 16 at Tue Apr  8 22:36:35 2025.
 Gaussian 16:  ES64L-G16RevC.01  3-Jul-2019

 ----------------------------------------------------------------------
 #t hf aug-cc-pvdz iop(5/13=1,5/36=2,99/5=2) pseudo=read geom=check gue
 ss=(read,tcheck) scf=(maxcycle=1)
 ----------------------------------------------------------------------
 -----
 title
 -----
 Structure from the checkpoint file:  "BDE49_expt_1093_mol2.chk"
 Charge =  0 Multiplicity = 2

                         Standard orientation:
 ---------------------------------------------------------------------
 Center     Atomic      Atomic             Coordinates (Angstroms)
 Number     Number       Type             X           Y           Z
 ---------------------------------------------------------------------
      1          6           0        0.000009   -0.000016   -0.149845
      2          6           0       -0.501854    1.398890    0.014856
      3          1           0       -1.491182    1.530876   -0.434888
      4          1           0        0.178091    2.129717   -0.434610
      5          1           0       -0.602231    1.678115    1.079395
      6          6           0       -0.960557   -1.134059    0.015002
      7          1           0       -1.933456   -0.910630   -0.434446
      8          1           0       -1.152158   -1.360473    1.079572
      9          1           0       -0.580244   -2.056884   -0.434681
     10          6           0        1.462413   -0.264826    0.014911
     11          1           0        2.071388    0.525930   -0.434880
     12          1           0        1.755356   -1.219128   -0.434471
     13          1           0        1.754368   -0.317454    1.079465
 ---------------------------------------------------------------------

 SCF Done:  E(UHF) =  -157.496476805     A.U. after    2 cycles

 The electronic state is 2-A.
 Alpha  occ. eigenvalues --  -11.39233 -11.37214 -11.37214 -11.33830  -1.24433
 Alpha  occ. eigenvalues --   -1.00306  -1.00305  -0.77160  -0.61651  -0.59603
 Alpha  occ. eigenvalues --   -0.59603  -0.53114  -0.53114  -0.50960  -0.44743
 Alpha  occ. eigenvalues --   -0.44742  -0.27249
 Alpha virt. eigenvalues --    0.03359   0.06004   0.06004   0.06186   0.06186
 Alpha virt. eigenvalues --    0.06466   0.07099   0.07099   0.09429   0.10714
 Alpha virt. eigenvalues --    0.14308   0.14308   0.14310   0.16190   0.16190

  Beta  occ. eigenvalues --  -11.38167 -11.37516 -11.37516 -11.32821  -1.20591
  Beta  occ. eigenvalues --   -1.00179  -1.00178  -0.72230  -0.58984  -0.58983
  Beta  occ. eigenvalues --   -0.56862  -0.52021  -0.52021  -0.50797  -0.43911
  Beta  occ. eigenvalues --   -0.43911
  Beta virt. eigenvalues --    0.03249   0.06037   0.06037   0.06188   0.06188
  Beta virt. eigenvalues --    0.06237   0.07107   0.07107   0.09428   0.10644
  Beta virt. eigenvalues --    0.13142   0.14354   0.14389   0.14389   0.16236

 Mulliken charges and spin densities:
               1          2
     1  C    0.497212   1.965101
     2  C   -3.954369  -0.377475
     3  H    1.300689   0.008382
     4  H    1.300923   0.008355
     5  H    1.187002   0.039029
     6  C   -3.954355  -0.377465
     7  H    1.300911   0.008357
     8  H    1.186998   0.039029
     9  H    1.300695   0.008382
    10  C   -3.954322  -0.377466
    11  H    1.300694   0.008381
    12  H    1.300924   0.008356
    13  H    1.186998   0.039031
 Sum of Mulliken charges =  -0.00000   1.00000

 Dipole moment (field-independent basis, Debye):
    X=              0.0000    Y=             -0.0000    Z=              0.1191  Tot=              0.1191
                          Isotropic Fermi Contact Couplings
        Atom                 a.u.       MegaHertz       Gauss      10(-4) cm-1
     1  C(13)              0.15907     178.82750      63.81010      59.65043
     2  C(13)             -0.03357     -37.74310     -13.46768     -12.58974
     3  H(1)               0.00527      23.56475       8.40849       7.86036
     4  H(1)               0.00527      23.53854       8.39914       7.85161
     5  H(1)               0.01961      87.64802      31.27499      29.23623
     6  C(13)             -0.03357     -37.74271     -13.46754     -12.58961
     7  H(1)               0.00527      23.54215       8.40043       7.85282
     8  H(1)               0.01961      87.64817      31.27505      29.23628

 Normal termination of Gaussian 16 at Tue Apr  8 22:36:38 2025.
