 Gaussian 16, Revision C.01,

 ----------------------------------------------------------------------
 #t hf aug-cc-pvdz symm=none int=(grid=ultrafine) guess=(read,tcheck) s
 table=(opt,rrhf)
 ----------------------------------------------------------------------
 -----
 title
 -----
 Symbolic Z-matrix:
 Charge =  0 Multiplicity = 1

 SCF Done:  E(RHF) =  -799.831684073     A.U. after   15 cycles
 Normal termination of Gaussian 16 at Tue Apr  8 23:36:08 2025.
 Gaussian 16:  ES64L-G16RevC.01  3-Jul-2019

 ----------------------------------------------------------------------
 #t hf aug-cc-pvdz iop(5/13=1,5/36=2,99/5=2) pseudo=read geom=check gue
 ss=(read,tcheck) scf=(maxcycle=1)
 ----------------------------------------------------------------------
 -----
 title
 -----
 Structure from the checkpoint file:  "BDE49_nonexpt_1435_mol1.chk"
 Charge =  0 Multiplicity = 1

                         Standard orientation:
 ---------------------------------------------------------------------
 Center     Atomic      Atomic             Coordinates (Angstroms)
 Number     Number       Type             X           Y           Z
 ---------------------------------------------------------------------
      1          6           0       -1.389194   -1.293128    0.002401
      2          6           0       -0.055488   -1.712380    0.013509
      3          6           0        1.006474   -0.815033    0.020312
      4          6           0       -1.666310    0.072502    0.003495
      5          6           0       -0.618436    1.003777    0.013060
      6          6           0        0.698384    0.562364    0.016586
      7          1           0        0.151171   -2.776898    0.018623
      8         15           0        2.771537   -1.325301   -0.117434
      9          1           0       -2.179426   -2.030535   -0.001150
     10          1           0       -0.876883    2.053142    0.018387
     11          8           0        1.779086    1.394016    0.028705
     12          6           0        1.568535    2.798569   -0.025424
     13          1           0        1.031599    3.086229   -0.935523
     14          1           0        2.560296    3.247154   -0.032860
     15          1           0        1.016181    3.152570    0.851593
     16          8           0       -2.917465    0.614187   -0.000739
     17          6           0       -4.033407   -0.265161   -0.008884
     18          1           0       -4.040224   -0.896685   -0.904117
     19          1           0       -4.914901    0.373900   -0.012670
     20          1           0       -4.050526   -0.900195    0.883740
     21          1           0        2.561275   -2.674790    0.268109
     22          1           0        3.212062   -0.929051    1.173311
 ---------------------------------------------------------------------

 SCF Done:  E(RHF) =  -802.139855445     A.U. after    2 cycles

 The electronic state is 1-A.
 Alpha  occ. eigenvalues -- -105.17464 -21.07788 -21.07752 -11.53944 -11.49020
 Alpha  occ. eigenvalues --  -11.44912 -11.42162 -11.41909 -11.41311 -11.40621
 Alpha  occ. eigenvalues --  -11.37066  -2.74279  -1.80296  -1.78169  -1.49698
 Alpha  occ. eigenvalues --   -1.44563  -1.42220  -1.29323  -1.09840  -1.08399
 Alpha  occ. eigenvalues --   -0.99689  -0.98323  -0.86162  -0.81904  -0.73930
 Alpha  occ. eigenvalues --   -0.67372  -0.64809  -0.63455  -0.62896  -0.62400
 Alpha  occ. eigenvalues --   -0.61996  -0.56866  -0.55361  -0.53769  -0.52126
 Alpha  occ. eigenvalues --   -0.46601  -0.44825  -0.40662  -0.39571  -0.38620
 Alpha  occ. eigenvalues --   -0.28709  -0.26242  -0.24938  -0.22885  -0.01595
 Alpha virt. eigenvalues --    0.03362   0.04525   0.05376   0.05427   0.05957
 Alpha virt. eigenvalues --    0.06562   0.06707   0.07239   0.07854   0.08176
 Alpha virt. eigenvalues --    0.08757   0.10633   0.11023   0.11060   0.11499

 Mulliken charges:
               1
     1  C   -3.280727
     2  C   -0.961498
     3  C   -0.451676
     4  C    7.503400
     5  C   -6.361788
     6  C    6.426138
     7  H    1.873621
     8  P    1.592721
     9  H    1.904210
    10  H    2.138530
    11  O   -4.666299
    12  C   -3.697163
    13  H    1.396632
    14  H    1.451466
    15  H    1.383587
    16  O   -4.935728
    17  C   -3.819088
    18  H    1.395970
    19  H    1.443932
    20  H    1.384566
    21  H   -1.028909
    22  H   -0.691898
 Sum of Mulliken charges =   0.00000

 Dipole moment (field-independent basis, Debye):
    X=             -0.8065    Y=              2.4671    Z=             -2.4675  Tot=              3.5813

 Test job not archived.
 1\1\GINC-SE072\SP\RHF\Aug-CC-pVDZ\C8H11O2P1\OHZDE\08-Apr-2025\0\\#t hf
  aug-cc-pvdz iop(5/13=1,5/36=2,99/5=2) pseudo=read geom=check guess=(r
 ead,tcheck) scf=(maxcycle=1)\\title\\0,1\C,0,-1.389194,-1.293128,0.002
 401\C,0,-0.055488,-1.71238,0.013509\C,0,1.006474,-0.815033,0.020312\C,
 0,-1.66631,0.072502,0.003495\C,0,-0.618436,1.003777,0.01306\C,0,0.6983
 84,0.562364,0.016586\H,0,0.151171,-2.776898,0.018623\P,0,2.771537,-1.3
 25301,-0.117434\H,0,-2.179426,-2.030535,-0.00115\H,0,-0.876883,2.05314
 2,0.018387\O,0,1.779086,1.394016,0.028705\C,0,1.568535,2.798569,-0.025

 Normal termination of Gaussian 16 at Tue Apr  8 23:36:23 2025.
