 Gaussian 16, Revision C.01,

 ----------------------------------------------------------------------
 #t hf aug-cc-pvdz symm=none int=(grid=ultrafine) guess=(read,tcheck) s
 table=opt
 ----------------------------------------------------------------------
 -----
 title
 -----
 Symbolic Z-matrix:
 Charge =  0 Multiplicity = 2

 SCF Done:  E(UHF) =  -94.6091925236     A.U. after   15 cycles
 Normal termination of Gaussian 16 at Tue Apr  8 22:38:22 2025.
 Gaussian 16:  ES64L-G16RevC.01  3-Jul-2019

 ----------------------------------------------------------------------
 #t hf aug-cc-pvdz iop(5/13=1,5/36=2,99/5=2) pseudo=read geom=check gue
 ss=(read,tcheck) scf=(maxcycle=1)
 ----------------------------------------------------------------------
 -----
 title
 -----
 Structure from the checkpoint file:  "BDE49_expt_1197_mol2.chk"
 Charge =  0 Multiplicity = 2

                         Standard orientation:
 ---------------------------------------------------------------------
 Center     Atomic      Atomic             Coordinates (Angstroms)
 Number     Number       Type             X           Y           Z
 ---------------------------------------------------------------------
      1          6           0       -0.011349    0.733975   -0.000000
      2          7           0       -0.011349   -0.663670    0.000000
      3          1           0       -0.295657    1.212863    0.928772
      4          1           0       -0.295657    1.212863   -0.928772
      5          1           0        0.369428   -1.091943    0.832988
      6          1           0        0.369428   -1.091943   -0.832988
 ---------------------------------------------------------------------

 SCF Done:  E(UHF) =  -95.0545683119     A.U. after    2 cycles

 The electronic state is 2-A'.
 Alpha  occ. eigenvalues --  -15.75274 -11.37240  -1.33782  -0.92855  -0.68483
 Alpha  occ. eigenvalues --   -0.57700  -0.52724  -0.49500  -0.25074
 Alpha virt. eigenvalues --    0.03805   0.05381   0.05729   0.07645   0.11680
 Alpha virt. eigenvalues --    0.13352   0.16701   0.17733   0.18803   0.19009
 Alpha virt. eigenvalues --    0.21281   0.25554   0.29209   0.29824   0.31787

  Beta  occ. eigenvalues --  -15.74728 -11.35135  -1.31446  -0.86626  -0.67786
  Beta  occ. eigenvalues --   -0.56536  -0.51717  -0.39736
  Beta virt. eigenvalues --    0.03877   0.05478   0.05745   0.07665   0.10530
  Beta virt. eigenvalues --    0.12007   0.16500   0.17593   0.17866   0.19283
  Beta virt. eigenvalues --    0.21327   0.23544   0.26207   0.29587   0.29831

 Mulliken charges and spin densities:
               1          2
     1  C   -1.827915   1.100474
     2  N   -2.185640   0.095145
     3  H    1.361687  -0.083859
     4  H    1.361687  -0.083859
     5  H    0.645091  -0.013950
     6  H    0.645091  -0.013950
 Sum of Mulliken charges =  -0.00000   1.00000

 Dipole moment (field-independent basis, Debye):
    X=              0.4653    Y=             -0.7267    Z=              0.0000  Tot=              0.8629
                          Isotropic Fermi Contact Couplings
        Atom                 a.u.       MegaHertz       Gauss      10(-4) cm-1
     1  C(13)              0.12461     140.08382      49.98539      46.72693
     2  N(14)              0.03009       9.72318       3.46947       3.24330
     3  H(1)              -0.01216     -54.35267     -19.39439     -18.13010
     4  H(1)              -0.01216     -54.35267     -19.39439     -18.13010
     5  H(1)               0.00113       5.05659       1.80432       1.68670
     6  H(1)               0.00113       5.05659       1.80432       1.68670
 --------------------------------------------------------
       Center         ----  Spin Dipole Couplings  ----

 Normal termination of Gaussian 16 at Tue Apr  8 22:38:23 2025.
