 Gaussian 16, Revision C.01,

 ----------------------------------------------------------------------
 #t hf aug-cc-pvdz symm=none int=(grid=ultrafine) guess=(read,tcheck) s
 table=(opt,rrhf)
 ----------------------------------------------------------------------
 -----
 title
 -----
 Symbolic Z-matrix:
 Charge =  0 Multiplicity = 1

 SCF Done:  E(RHF) =  -801.522745710     A.U. after   13 cycles
 Normal termination of Gaussian 16 at Tue Apr  8 23:58:22 2025.
 Gaussian 16:  ES64L-G16RevC.01  3-Jul-2019

 ----------------------------------------------------------------------
 #t hf aug-cc-pvdz iop(5/13=1,5/36=2,99/5=2) pseudo=read geom=check gue
 ss=(read,tcheck) scf=(maxcycle=1)
 ----------------------------------------------------------------------
 -----
 title
 -----
 Structure from the checkpoint file:  "BDE49_nonexpt_2054_mol1.chk"
 Charge =  0 Multiplicity = 1

                         Standard orientation:
 ---------------------------------------------------------------------
 Center     Atomic      Atomic             Coordinates (Angstroms)
 Number     Number       Type             X           Y           Z
 ---------------------------------------------------------------------
      1         14           0       -1.625464   -0.407738   -0.000010
      2          6           0        0.084034    0.490945   -0.000087
      3          8           0        0.125552    1.692808    0.000042
      4         16           0        1.643817   -0.455814    0.000014
      5          1           0        1.084233   -1.676926    0.000083
      6          1           0       -2.339519    0.033826   -1.214679
      7          1           0       -2.339414    0.033818    1.214724
      8          1           0       -1.458492   -1.877494   -0.000022
 ---------------------------------------------------------------------

 SCF Done:  E(RHF) =  -802.384587842     A.U. after    2 cycles

 The electronic state is 1-A.
 Alpha  occ. eigenvalues --  -76.25055 -75.71501 -21.08561 -13.14369 -13.11487
 Alpha  occ. eigenvalues --  -13.03101 -11.48889  -8.05494  -5.58524  -2.21953
 Alpha  occ. eigenvalues --   -2.20857  -2.20650  -1.73323  -1.16183  -0.86863
 Alpha  occ. eigenvalues --   -0.72759  -0.59644  -0.52912  -0.52687  -0.50112
 Alpha  occ. eigenvalues --   -0.47318  -0.45054  -0.26710  -0.25645
 Alpha virt. eigenvalues --    0.02911   0.04709   0.05518   0.05761   0.06224
 Alpha virt. eigenvalues --    0.08578   0.08618   0.09964   0.10373   0.11600
 Alpha virt. eigenvalues --    0.13076   0.14196   0.15716   0.15959   0.16949

 Mulliken charges:
               1
     1  Si   5.844311
     2  C    0.493720
     3  O   -2.225308
     4  S   -0.256374
     5  H    1.036953
     6  H   -1.681031
     7  H   -1.681038
     8  H   -1.531232
 Sum of Mulliken charges =  -0.00000

 Dipole moment (field-independent basis, Debye):
    X=              0.8197    Y=             -0.3349    Z=              0.0002  Tot=              0.8855

 Test job not archived.
 1\1\GINC-SE362\SP\RHF\Aug-CC-pVDZ\C1H4O1S1Si1\OHZDE\08-Apr-2025\0\\#t
 hf aug-cc-pvdz iop(5/13=1,5/36=2,99/5=2) pseudo=read geom=check guess=
 (read,tcheck) scf=(maxcycle=1)\\title\\0,1\Si,0,-1.625464,-0.407738,-0
 .00001\C,0,0.084034,0.490945,-0.000087\O,0,0.125552,1.692808,0.000042\
 S,0,1.643817,-0.455814,0.000014\H,0,1.084233,-1.676926,0.000083\H,0,-2
 .339519,0.033827,-1.214679\H,0,-2.339414,0.033819,1.214724\H,0,-1.4584
 92,-1.877494,-0.000022\\Version=ES64L-G16RevC.01\State=1-A\HF=-802.384
 5878\RMSD=9.654e-02\Dipole=0.3224901,-0.1317456,0.0000696\Quadrupole=2

 Normal termination of Gaussian 16 at Tue Apr  8 23:58:25 2025.
