 Gaussian 16, Revision C.01,

 ----------------------------------------------------------------------
 #t hf aug-cc-pvdz symm=none int=(grid=ultrafine) guess=(read,tcheck) s
 table=opt
 ----------------------------------------------------------------------
 -----
 title
 -----
 Symbolic Z-matrix:
 Charge =  0 Multiplicity = 2

 SCF Done:  E(UHF) =  -787.147468845     A.U. after   14 cycles
 Normal termination of Gaussian 16 at Wed Apr  9 00:21:37 2025.
 Gaussian 16:  ES64L-G16RevC.01  3-Jul-2019

 ----------------------------------------------------------------------
 #t hf aug-cc-pvdz iop(5/13=1,5/36=2,99/5=2) pseudo=read geom=check gue
 ss=(read,tcheck) scf=(maxcycle=1)
 ----------------------------------------------------------------------
 -----
 title
 -----
 Structure from the checkpoint file:  "BDE49_nonexpt_2626_mol2.chk"
 Charge =  0 Multiplicity = 2

                         Standard orientation:
 ---------------------------------------------------------------------
 Center     Atomic      Atomic             Coordinates (Angstroms)
 Number     Number       Type             X           Y           Z
 ---------------------------------------------------------------------
      1         16           0        1.472851   -0.195958   -0.000031
      2         14           0       -0.533537    0.487119    0.000014
      3          9           0       -1.625349   -0.692092    0.000024
      4          1           0       -0.733948    1.272212    1.233535
      5          1           0       -0.734012    1.272278   -1.233456
 ---------------------------------------------------------------------

 SCF Done:  E(UHF) =  -787.829604850     A.U. after    2 cycles

 The electronic state is 2-A.
 Alpha  occ. eigenvalues --  -76.28731 -75.72335 -29.27722 -13.09873 -13.07091
 Alpha  occ. eigenvalues --  -13.05251  -8.06065  -5.63036  -2.27610  -2.23874
 Alpha  occ. eigenvalues --   -2.23669  -1.12768  -0.86665  -0.60538  -0.54241
 Alpha  occ. eigenvalues --   -0.43262  -0.34739  -0.34686  -0.33594  -0.32563
 Alpha  occ. eigenvalues --   -0.27812
 Alpha virt. eigenvalues --    0.04230   0.04623   0.05789   0.06873   0.09979
 Alpha virt. eigenvalues --    0.10684   0.13752   0.13767   0.15155   0.15475
 Alpha virt. eigenvalues --    0.17530   0.20704   0.22784   0.23868   0.26959

  Beta  occ. eigenvalues --  -76.28775 -75.71383 -29.27744 -13.09341 -13.04668
  Beta  occ. eigenvalues --  -13.01311  -8.05004  -5.63104  -2.27679  -2.23950
  Beta  occ. eigenvalues --   -2.23808  -1.04082  -0.85244  -0.60150  -0.53066
  Beta  occ. eigenvalues --   -0.42416  -0.34590  -0.33553  -0.31582  -0.26435
  Beta virt. eigenvalues --   -0.00023   0.04442   0.04661   0.06202   0.06898
  Beta virt. eigenvalues --    0.10126   0.10890   0.13857   0.15096   0.15459
  Beta virt. eigenvalues --    0.15694   0.17850   0.23097   0.24466   0.25853

 Mulliken charges and spin densities:
               1          2
     1  S   -1.390643   1.125462
     2  Si   5.909721  -0.185623
     3  F   -0.954661  -0.004501
     4  H   -1.782215   0.032332
     5  H   -1.782202   0.032329
 Sum of Mulliken charges =  -0.00000   1.00000

 Dipole moment (field-independent basis, Debye):
    X=             -0.5612    Y=             -2.1731    Z=             -0.0000  Tot=              2.2444
                          Isotropic Fermi Contact Couplings
        Atom                 a.u.       MegaHertz       Gauss      10(-4) cm-1
     1  S(33)              0.22072      75.81204      27.05162      25.28817
     2  Si(29)            -0.03869      34.38421      12.26914      11.46934
     3  F(19)             -0.00397     -16.70053      -5.95917      -5.57070
     4  H(1)               0.00783      35.01740      12.49508      11.68055
     5  H(1)               0.00783      35.01488      12.49418      11.67971
 --------------------------------------------------------
       Center         ----  Spin Dipole Couplings  ----
                      3XX-RR        3YY-RR        3ZZ-RR

 Normal termination of Gaussian 16 at Wed Apr  9 00:21:39 2025.
