 Gaussian 16, Revision C.01,

 ----------------------------------------------------------------------
 #t hf aug-cc-pvdz symm=none int=(grid=ultrafine) guess=(read,tcheck) s
 table=(opt,rrhf)
 ----------------------------------------------------------------------
 -----
 title
 -----
 Symbolic Z-matrix:
 Charge =  0 Multiplicity = 1

 SCF Done:  E(RHF) =  -986.784054919     A.U. after   15 cycles
 Normal termination of Gaussian 16 at Wed Apr  9 00:22:38 2025.
 Gaussian 16:  ES64L-G16RevC.01  3-Jul-2019

 ----------------------------------------------------------------------
 #t hf aug-cc-pvdz iop(5/13=1,5/36=2,99/5=2) pseudo=read geom=check gue
 ss=(read,tcheck) scf=(maxcycle=1)
 ----------------------------------------------------------------------
 -----
 title
 -----
 Structure from the checkpoint file:  "BDE49_nonexpt_2655_mol1.chk"
 Charge =  0 Multiplicity = 1

                         Standard orientation:
 ---------------------------------------------------------------------
 Center     Atomic      Atomic             Coordinates (Angstroms)
 Number     Number       Type             X           Y           Z
 ---------------------------------------------------------------------
      1          9           0        1.852636    0.878088   -0.607654
      2         16           0        1.184241   -0.088444    0.578946
      3          6           0       -1.704508    0.228027   -0.003273
      4          7           0       -2.597236    0.943459    0.171269
      5         16           0       -0.450868   -0.903754   -0.310843
 ---------------------------------------------------------------------

 SCF Done:  E(RHF) =  -987.955916132     A.U. after    2 cycles

 The electronic state is 1-A.
 Alpha  occ. eigenvalues --  -75.82455 -75.80342 -29.30579 -15.79992 -13.25791
 Alpha  occ. eigenvalues --  -13.25112 -13.18094 -13.17299 -13.13458 -13.12153
 Alpha  occ. eigenvalues --  -11.46342  -8.16271  -8.14452  -1.37397  -1.29511
 Alpha  occ. eigenvalues --   -1.12611  -0.74567  -0.66150  -0.54466  -0.54005
 Alpha  occ. eigenvalues --   -0.51866  -0.45799  -0.43959  -0.38779  -0.30371
 Alpha  occ. eigenvalues --   -0.29002  -0.22702
 Alpha virt. eigenvalues --    0.03280   0.04026   0.07396   0.09851   0.10847
 Alpha virt. eigenvalues --    0.12258   0.12542   0.13255   0.13822   0.14226
 Alpha virt. eigenvalues --    0.15727   0.16838   0.18396   0.19657   0.21258

 Mulliken charges:
               1
     1  F   -0.058615
     2  S    0.298272
     3  C    1.214503
     4  N   -2.023790
     5  S    0.569630
 Sum of Mulliken charges =   0.00000

 Dipole moment (field-independent basis, Debye):
    X=              5.2867    Y=             -0.5757    Z=             -1.8638  Tot=              5.6351

 Test job not archived.
 1\1\GINC-SE159\SP\RHF\Aug-CC-pVDZ\C1F1N1S2\OHZDE\09-Apr-2025\0\\#t hf
 aug-cc-pvdz iop(5/13=1,5/36=2,99/5=2) pseudo=read geom=check guess=(re
 ad,tcheck) scf=(maxcycle=1)\\title\\0,1\F,0,-1.852636,-0.878088,-0.607
 654\S,0,-1.184241,0.088444,0.578946\C,0,1.704508,-0.228027,-0.003273\N
 ,0,2.597236,-0.943459,0.171269\S,0,0.450868,0.903754,-0.310843\\Versio
 n=ES64L-G16RevC.01\State=1-A\HF=-987.9559161\RMSD=8.322e-02\Dipole=-2.
 0799631,0.2264837,-0.733282\Quadrupole=-1.2176056,0.7079473,0.5096583,
 5.0993664,-0.6353831,-0.4466315\PG=C01 [X(C1F1N1S2)]\\@

 Normal termination of Gaussian 16 at Wed Apr  9 00:22:40 2025.
