 Gaussian 16, Revision C.01,

 ----------------------------------------------------------------------
 #t hf aug-cc-pvdz symm=none int=(grid=ultrafine) guess=(read,tcheck) s
 table=(opt,rrhf)
 ----------------------------------------------------------------------
 -----
 title
 -----
 Symbolic Z-matrix:
 Charge =  0 Multiplicity = 1

 SCF Done:  E(RHF) =  -1530.76500850     A.U. after   13 cycles
 Normal termination of Gaussian 16 at Tue Apr  8 23:44:57 2025.
 Gaussian 16:  ES64L-G16RevC.01  3-Jul-2019

 ----------------------------------------------------------------------
 #t hf aug-cc-pvdz iop(5/13=1,5/36=2,99/5=2) pseudo=read geom=check gue
 ss=(read,tcheck) scf=(maxcycle=1)
 ----------------------------------------------------------------------
 -----
 title
 -----
 Structure from the checkpoint file:  "BDE49_nonexpt_1703_mol1.chk"
 Charge =  0 Multiplicity = 1

                         Standard orientation:
 ---------------------------------------------------------------------
 Center     Atomic      Atomic             Coordinates (Angstroms)
 Number     Number       Type             X           Y           Z
 ---------------------------------------------------------------------
      1         15           0       -1.499755   -0.125280   -0.055449
      2         16           0        0.000000    1.396710   -0.000021
      3         15           0        1.499761   -0.125274    0.055462
      4          8           0       -1.250391   -1.016011   -1.207941
      5          8           0       -2.879286    0.657576   -0.066214
      6          8           0        1.250500   -1.015870    1.208079
      7          8           0        1.531139   -0.763588   -1.382725
      8          1           0        0.624036   -1.049726   -1.634874
      9          1           0       -3.247684    0.729999   -0.955831
     10          8           0        2.879295    0.657581    0.066015
     11          1           0        3.247772    0.730108    0.955590
     12          8           0       -1.531261   -0.763425    1.382809
     13          1           0       -0.624181   -1.049536    1.635075
 ---------------------------------------------------------------------

 SCF Done:  E(RHF) =  -1533.24451442     A.U. after    2 cycles

 The electronic state is 1-A.
 Alpha  occ. eigenvalues -- -105.35515-105.34736 -75.72748 -21.15074 -21.15064
 Alpha  occ. eigenvalues --  -21.12526 -21.12516 -21.05590 -21.05584 -13.15680
 Alpha  occ. eigenvalues --  -13.12717 -13.07493  -8.07071  -2.97508  -2.97394
 Alpha  occ. eigenvalues --   -2.02781  -2.02278  -1.95286  -1.95251  -1.82373
 Alpha  occ. eigenvalues --   -1.80680  -1.58618  -1.54694  -1.42220  -1.41702
 Alpha  occ. eigenvalues --   -1.30528  -1.28805  -1.04817  -0.71696  -0.71198
 Alpha  occ. eigenvalues --   -0.61468  -0.61068  -0.59704  -0.57623  -0.47346
 Alpha  occ. eigenvalues --   -0.46795  -0.45262  -0.45020  -0.38867  -0.37977
 Alpha  occ. eigenvalues --   -0.37388  -0.37302  -0.30179  -0.29984  -0.29316
 Alpha  occ. eigenvalues --   -0.26547  -0.25433  -0.19858  -0.19109
 Alpha virt. eigenvalues --    0.03409   0.04049   0.07116   0.08040   0.08334
 Alpha virt. eigenvalues --    0.09828   0.11242   0.11323   0.12076   0.12940
 Alpha virt. eigenvalues --    0.13338   0.13890   0.15171   0.15371   0.18299

 Mulliken charges:
               1
     1  P    8.226992
     2  S   -3.174169
     3  P    8.226934
     4  O   -2.994454
     5  O   -2.665064
     6  O   -2.994349
     7  O   -3.332156
     8  H    1.447430
     9  H    0.904388
    10  O   -2.665101
    11  H    0.904412
    12  O   -3.332112
    13  H    1.447248
 Sum of Mulliken charges =  -0.00000

 Dipole moment (field-independent basis, Debye):
    X=             -0.0004    Y=              2.1115    Z=             -0.0002  Tot=              2.1115

 Test job not archived.
 1\1\GINC-SE092\SP\RHF\Aug-CC-pVDZ\H4O6P2S1\OHZDE\08-Apr-2025\0\\#t hf
 aug-cc-pvdz iop(5/13=1,5/36=2,99/5=2) pseudo=read geom=check guess=(re
 ad,tcheck) scf=(maxcycle=1)\\title\\0,1\P,0,-1.499755,-0.12528,-0.0554
 49\S,0,0.,1.39671,-0.000021\P,0,1.499761,-0.125274,0.055462\O,0,-1.250
 391,-1.016011,-1.207941\O,0,-2.879286,0.657576,-0.066214\O,0,1.2505,-1
 .01587,1.208079\O,0,1.531139,-0.763588,-1.382725\H,0,0.624036,-1.04972
 6,-1.634874\H,0,-3.247684,0.729999,-0.955831\O,0,2.879295,0.657581,0.0
 66015\H,0,3.247772,0.730108,0.95559\O,0,-1.531261,-0.763425,1.382809\H

 Normal termination of Gaussian 16 at Tue Apr  8 23:45:04 2025.
