 Gaussian 16, Revision C.01,

 ----------------------------------------------------------------------
 #t hf aug-cc-pvdz symm=none int=(grid=ultrafine) guess=(read,tcheck) s
 table=(opt,rrhf)
 ----------------------------------------------------------------------
 -----
 title
 -----
 Symbolic Z-matrix:
 Charge =  0 Multiplicity = 1

 SCF Done:  E(RHF) =  -1748.77218330     A.U. after   17 cycles
 Normal termination of Gaussian 16 at Tue Apr  8 23:48:08 2025.
 Gaussian 16:  ES64L-G16RevC.01  3-Jul-2019

 ----------------------------------------------------------------------
 #t hf aug-cc-pvdz iop(5/13=1,5/36=2,99/5=2) pseudo=read geom=check gue
 ss=(read,tcheck) scf=(maxcycle=1)
 ----------------------------------------------------------------------
 -----
 title
 -----
 Structure from the checkpoint file:  "BDE49_nonexpt_1628_mol1.chk"
 Charge =  0 Multiplicity = 1

                         Standard orientation:
 ---------------------------------------------------------------------
 Center     Atomic      Atomic             Coordinates (Angstroms)
 Number     Number       Type             X           Y           Z
 ---------------------------------------------------------------------
      1          6           0        1.730416    1.886330   -0.190013
      2         15           0        1.193327    0.466665    0.936890
      3          6           0       -0.563894    0.175824    0.478418
      4         15           0        2.328535   -1.124080   -0.133819
      5          8           0        1.783464   -1.557890   -1.431581
      6          8           0        2.882997    1.960131   -0.581738
      7          6           0       -0.997357   -0.255830   -0.785306
      8          6           0       -2.352399   -0.430664   -1.044243
      9          6           0       -3.281071   -0.174866   -0.037999
     10          6           0       -2.878054    0.241946    1.225701
     11          6           0       -1.519189    0.409878    1.477406
     12          1           0       -1.200466    0.725342    2.464776
     13          1           0       -3.612672    0.425749    1.998817
     14          1           0       -0.272457   -0.486450   -1.555927
     15          1           0       -2.687243   -0.767301   -2.016971
     16          6           0        0.735033    2.983249   -0.472155
     17          1           0        0.001902    2.628377   -1.202190
     18          1           0        1.260915    3.849278   -0.874116
     19          1           0        0.182058    3.254777    0.430212
     20         17           0       -4.988415   -0.391483   -0.368333
     21          8           0        3.793734   -0.522089   -0.074701
     22          1           0        3.781704    0.423299   -0.355127
     23          8           0        2.441623   -2.308472    0.941179
     24          1           0        2.065940   -3.125274    0.589990
 ---------------------------------------------------------------------

 SCF Done:  E(RHF) =  -1752.11149868     A.U. after    2 cycles

 The electronic state is 1-A.
 Alpha  occ. eigenvalues -- -105.31399-105.21335 -99.91008 -21.12038 -21.10145
 Alpha  occ. eigenvalues --  -21.09280 -21.02835 -11.54591 -11.52258 -11.48310
 Alpha  occ. eigenvalues --  -11.46940 -11.46059 -11.44328 -11.41464 -11.40061
 Alpha  occ. eigenvalues --  -10.48359  -9.68389  -9.67497  -9.67316  -2.93523
 Alpha  occ. eigenvalues --   -2.79635  -1.98967  -1.91168  -1.79422  -1.75430
 Alpha  occ. eigenvalues --   -1.58554  -1.54841  -1.50410  -1.41475  -1.39983
 Alpha  occ. eigenvalues --   -1.39457  -1.29003  -1.25695  -1.13071  -1.12802
 Alpha  occ. eigenvalues --   -1.08772  -0.90662  -0.87926  -0.81537  -0.73658
 Alpha  occ. eigenvalues --   -0.70896  -0.68380  -0.65822  -0.63474  -0.61833
 Alpha  occ. eigenvalues --   -0.61276  -0.60159  -0.59003  -0.58564  -0.56865
 Alpha  occ. eigenvalues --   -0.55474  -0.52172  -0.51930  -0.51455  -0.47335
 Alpha  occ. eigenvalues --   -0.46483  -0.44595  -0.41836  -0.40416  -0.36876
 Alpha  occ. eigenvalues --   -0.36405  -0.34514  -0.33775  -0.28157  -0.21023
 Alpha  occ. eigenvalues --   -0.18762  -0.08390   0.02198
 Alpha virt. eigenvalues --    0.02725   0.04776   0.05201   0.05557   0.06036
 Alpha virt. eigenvalues --    0.06315   0.06810   0.07451   0.07644   0.07962
 Alpha virt. eigenvalues --    0.08243   0.08796   0.09242   0.09726   0.10639

 Mulliken charges:
               1
     1  C    1.340982
     2  P    2.300880
     3  C    1.336816
     4  P    9.422034
     5  O   -3.390234
     6  O   -3.391366
     7  C    0.015354
     8  C   -1.712169
     9  C   -1.872981
    10  C   -1.664477
    11  C   -4.450919
    12  H    1.618694
    13  H    1.901226
    14  H    2.367096
    15  H    1.777382
    16  C   -4.580372
    17  H    1.413347
    18  H    1.156482
    19  H    1.722386
    20  Cl  -0.764994
    21  O   -3.724632
    22  H    1.470627
    23  O   -3.159299
    24  H    0.868138
 Sum of Mulliken charges =   0.00000

 Dipole moment (field-independent basis, Debye):
    X=              2.8101    Y=             -6.0614    Z=              2.6774  Tot=              7.1976

 Test job not archived.
 1\1\GINC-SE099\SP\RHF\Aug-CC-pVDZ\C8H9Cl1O4P2\OHZDE\08-Apr-2025\0\\#t
 hf aug-cc-pvdz iop(5/13=1,5/36=2,99/5=2) pseudo=read geom=check guess=
 (read,tcheck) scf=(maxcycle=1)\\title\\0,1\C,0,1.730416,1.88633,-0.190
 013\P,0,1.193327,0.466665,0.93689\C,0,-0.563894,0.175824,0.478418\P,0,
 2.328535,-1.12408,-0.133819\O,0,1.783464,-1.55789,-1.431581\O,0,2.8829
 97,1.960131,-0.581738\C,0,-0.997357,-0.25583,-0.785306\C,0,-2.352399,-
 0.430664,-1.044243\C,0,-3.281071,-0.174866,-0.037999\C,0,-2.878054,0.2
 41946,1.225701\C,0,-1.519189,0.409878,1.477406\H,0,-1.200466,0.725342,

 Normal termination of Gaussian 16 at Tue Apr  8 23:48:36 2025.
