 Gaussian 16, Revision C.01,

 ----------------------------------------------------------------------
 #t hf aug-cc-pvdz symm=none int=(grid=ultrafine) guess=(read,tcheck) s
 table=(opt,rrhf)
 ----------------------------------------------------------------------
 -----
 title
 -----
 Symbolic Z-matrix:
 Charge =  0 Multiplicity = 1

 SCF Done:  E(RHF) =  -976.891449272     A.U. after   13 cycles
 Normal termination of Gaussian 16 at Tue Apr  8 23:49:23 2025.
 Gaussian 16:  ES64L-G16RevC.01  3-Jul-2019

 ----------------------------------------------------------------------
 #t hf aug-cc-pvdz iop(5/13=1,5/36=2,99/5=2) pseudo=read geom=check gue
 ss=(read,tcheck) scf=(maxcycle=1)
 ----------------------------------------------------------------------
 -----
 title
 -----
 Structure from the checkpoint file:  "BDE49_nonexpt_1816_mol1.chk"
 Charge =  0 Multiplicity = 1

                         Standard orientation:
 ---------------------------------------------------------------------
 Center     Atomic      Atomic             Coordinates (Angstroms)
 Number     Number       Type             X           Y           Z
 ---------------------------------------------------------------------
      1          6           0        0.887744    0.491226   -0.000076
      2          8           0        1.667082    1.415961    0.000032
      3         14           0       -0.984008    0.883455    0.000007
      4          8           0        1.240235   -0.801248   -0.000030
      5         17           0       -2.191376   -0.803815    0.000005
      6          6           0        2.661985   -1.073571    0.000018
      7          1           0        2.746851   -2.156957    0.000052
      8          1           0        3.127539   -0.647267    0.889236
      9          1           0        3.127589   -0.647318   -0.889199
     10          1           0       -1.264733    1.662228   -1.217335
     11          1           0       -1.264655    1.662174    1.217403
 ---------------------------------------------------------------------

 SCF Done:  E(RHF) =  -978.260368093     A.U. after    2 cycles

 The electronic state is 1-A.
 Alpha  occ. eigenvalues --  -99.89405 -76.28070 -21.10691 -21.06945 -11.49468
 Alpha  occ. eigenvalues --  -11.42438 -10.46809  -9.66708  -9.66059  -9.66002
 Alpha  occ. eigenvalues --   -5.61616  -2.25282  -2.23787  -2.23341  -1.84733
 Alpha  occ. eigenvalues --   -1.67402  -1.29813  -1.03776  -0.86056  -0.73910
 Alpha  occ. eigenvalues --   -0.66202  -0.64121  -0.58752  -0.56696  -0.56212
 Alpha  occ. eigenvalues --   -0.55105  -0.52691  -0.51405  -0.47768  -0.41612
 Alpha  occ. eigenvalues --   -0.33322  -0.30115
 Alpha virt. eigenvalues --    0.03462   0.04813   0.05792   0.05816   0.06161
 Alpha virt. eigenvalues --    0.06482   0.06687   0.09391   0.10951   0.12060
 Alpha virt. eigenvalues --    0.12214   0.12937   0.13634   0.14269   0.14593

 Mulliken charges:
               1
     1  C    2.898027
     2  O   -2.369143
     3  Si   5.525548
     4  O   -2.828987
     5  Cl  -0.837364
     6  C   -2.793108
     7  H    1.337986
     8  H    1.334447
     9  H    1.334450
    10  H   -1.800928
    11  H   -1.800929
 Sum of Mulliken charges =  -0.00000

 Dipole moment (field-independent basis, Debye):
    X=              1.5573    Y=             -0.4552    Z=              0.0001  Tot=              1.6225

 Test job not archived.
 1\1\GINC-SE398\SP\RHF\Aug-CC-pVDZ\C2H5Cl1O2Si1\OHZDE\08-Apr-2025\0\\#t
  hf aug-cc-pvdz iop(5/13=1,5/36=2,99/5=2) pseudo=read geom=check guess
 =(read,tcheck) scf=(maxcycle=1)\\title\\0,1\C,0,-0.887744,0.491226,0.0
 00076\O,0,-1.667082,1.415961,-0.000032\Si,0,0.984008,0.883455,-0.00000
 7\O,0,-1.240235,-0.801248,0.00003\Cl,0,2.191376,-0.803815,-0.000005\C,
 0,-2.661985,-1.073571,-0.000018\H,0,-2.746851,-2.156957,-0.000052\H,0,
 -3.127539,-0.647267,-0.889236\H,0,-3.127589,-0.647318,0.889199\H,0,1.2
 64733,1.662228,1.217335\H,0,1.264655,1.662174,-1.217403\\Version=ES64L

 Normal termination of Gaussian 16 at Tue Apr  8 23:49:27 2025.
