 Gaussian 16, Revision C.01,

 ----------------------------------------------------------------------
 #t hf aug-cc-pvdz symm=none int=(grid=ultrafine) guess=(read,tcheck) s
 table=(opt,rrhf)
 ----------------------------------------------------------------------
 -----
 title
 -----
 Symbolic Z-matrix:
 Charge =  0 Multiplicity = 1

 SCF Done:  E(RHF) =  -1697.17294900     A.U. after   12 cycles
 Normal termination of Gaussian 16 at Wed Apr  9 00:09:33 2025.
 Gaussian 16:  ES64L-G16RevC.01  3-Jul-2019

 ----------------------------------------------------------------------
 #t hf aug-cc-pvdz iop(5/13=1,5/36=2,99/5=2) pseudo=read geom=check gue
 ss=(read,tcheck) scf=(maxcycle=1)
 ----------------------------------------------------------------------
 -----
 title
 -----
 Structure from the checkpoint file:  "BDE49_nonexpt_2324_mol1.chk"
 Charge =  0 Multiplicity = 1

                         Standard orientation:
 ---------------------------------------------------------------------
 Center     Atomic      Atomic             Coordinates (Angstroms)
 Number     Number       Type             X           Y           Z
 ---------------------------------------------------------------------
      1         14           0        1.538210    0.000000   -0.363795
      2         14           0       -0.645288    0.000000    0.523875
      3         17           0       -1.617535   -1.694251   -0.168658
      4         17           0       -1.617535    1.694251   -0.168658
      5          1           0       -0.730968    0.000000    1.993367
      6          9           0        2.311852    1.289009    0.185148
      7          1           0        1.612900   -0.000001   -1.832785
      8          9           0        2.311852   -1.289009    0.185149
 ---------------------------------------------------------------------

 SCF Done:  E(RHF) =  -1698.63353049     A.U. after    2 cycles

 The electronic state is 1-A.
 Alpha  occ. eigenvalues --  -99.91001 -99.91000 -76.32077 -76.30996 -29.29609
 Alpha  occ. eigenvalues --  -29.29609 -10.48432 -10.48393  -9.68288  -9.68271
 Alpha  occ. eigenvalues --   -9.67686  -9.67669  -9.67657  -9.67552  -5.66301
 Alpha  occ. eigenvalues --   -5.65602  -2.31254  -2.28667  -2.27846  -2.27059
 Alpha  occ. eigenvalues --   -2.26155  -2.25161  -1.32805  -1.30008  -0.96647
 Alpha  occ. eigenvalues --   -0.80060  -0.71334  -0.60744  -0.60600  -0.59629
 Alpha  occ. eigenvalues --   -0.58003  -0.55383  -0.53248  -0.52991  -0.48121
 Alpha  occ. eigenvalues --   -0.42444  -0.36669  -0.36110  -0.35652  -0.31462
 Alpha  occ. eigenvalues --   -0.30176
 Alpha virt. eigenvalues --    0.03907   0.04921   0.05657   0.05939   0.07550
 Alpha virt. eigenvalues --    0.07620   0.08449   0.08907   0.09480   0.10907
 Alpha virt. eigenvalues --    0.11194   0.12311   0.12954   0.14358   0.15539

 Mulliken charges:
               1
     1  Si   4.304996
     2  Si   2.908425
     3  Cl  -0.826419
     4  Cl  -0.826419
     5  H   -1.939362
     6  F   -0.853902
     7  H   -1.913418
     8  F   -0.853901
 Sum of Mulliken charges =  -0.00000

 Dipole moment (field-independent basis, Debye):
    X=              4.1182    Y=              0.0000    Z=              2.1035  Tot=              4.6243

 Test job not archived.
 1\1\GINC-SE341\SP\RHF\Aug-CC-pVDZ\Cl2F2H2Si2\OHZDE\09-Apr-2025\0\\#t h
 f aug-cc-pvdz iop(5/13=1,5/36=2,99/5=2) pseudo=read geom=check guess=(
 read,tcheck) scf=(maxcycle=1)\\title\\0,1\Si,0,-1.53821,0.,-0.363795\S
 i,0,0.645288,0.,0.523875\Cl,0,1.617535,1.694251,-0.168658\Cl,0,1.61753
 5,-1.694251,-0.168658\H,0,0.730968,0.,1.993367\F,0,-2.311852,-1.289009
 ,0.185148\H,0,-1.6129,0.000001,-1.832785\F,0,-2.311852,1.289009,0.1851
 49\\Version=ES64L-G16RevC.01\State=1-A\HF=-1698.6335305\RMSD=6.151e-02
 \Dipole=-1.6202291,-0.0000008,0.8275866\Quadrupole=2.4498661,0.191843,

 Normal termination of Gaussian 16 at Wed Apr  9 00:09:36 2025.
