 Gaussian 16, Revision C.01,

 ----------------------------------------------------------------------
 #t hf aug-cc-pvdz symm=none int=(grid=ultrafine) guess=(read,tcheck) s
 table=(opt,rrhf)
 ----------------------------------------------------------------------
 -----
 title
 -----
 Symbolic Z-matrix:
 Charge =  0 Multiplicity = 1

 SCF Done:  E(RHF) =  -1000.25779606     A.U. after   17 cycles
 Normal termination of Gaussian 16 at Tue Apr  8 23:32:08 2025.
 Gaussian 16:  ES64L-G16RevC.01  3-Jul-2019

 ----------------------------------------------------------------------
 #t hf aug-cc-pvdz iop(5/13=1,5/36=2,99/5=2) pseudo=read geom=check gue
 ss=(read,tcheck) scf=(maxcycle=1)
 ----------------------------------------------------------------------
 -----
 title
 -----
 Structure from the checkpoint file:  "BDE49_nonexpt_1326_mol1.chk"
 Charge =  0 Multiplicity = 1

                         Standard orientation:
 ---------------------------------------------------------------------
 Center     Atomic      Atomic             Coordinates (Angstroms)
 Number     Number       Type             X           Y           Z
 ---------------------------------------------------------------------
      1          6           0        1.346569   -1.205676    0.015972
      2          6           0       -0.041670   -1.181738    0.007467
      3          6           0        2.033361    0.004307   -0.000719
      4          6           0        1.382490    1.230741   -0.027214
      5          6           0       -0.008704    1.244070   -0.036887
      6          6           0       -0.722496    0.041930   -0.020556
      7          1           0       -0.550981    2.181009   -0.060097
      8          1           0        1.901889   -2.132711    0.035557
      9          1           0       -0.594961   -2.112337    0.020209
     10         15           0       -2.522491    0.124180   -0.012794
     11          8           0       -3.070024    1.485306    0.016881
     12          8           0       -3.015276   -0.803183    1.212753
     13          7           0        3.517623   -0.017796    0.010539
     14          8           0        4.064682   -1.110891    0.033327
     15          8           0        4.097613    1.057985   -0.003114
     16          1           0        1.962043    2.142940   -0.040856
     17          1           0       -3.276921   -0.269559    1.973094
     18          8           0       -2.870352   -0.812580   -1.260200
     19          1           0       -3.817506   -0.882365   -1.435319
 ---------------------------------------------------------------------

 SCF Done:  E(RHF) =  -1003.31527960     A.U. after    2 cycles

 The electronic state is 1-A.
 Alpha  occ. eigenvalues -- -105.32329 -21.13269 -21.12922 -21.10470 -21.10354
 Alpha  occ. eigenvalues --  -21.03648 -16.01000 -11.56534 -11.49230 -11.48092
 Alpha  occ. eigenvalues --  -11.47816 -11.45563 -11.41578  -2.94703  -2.00804
 Alpha  occ. eigenvalues --   -2.00019  -1.91141  -1.82477  -1.70098  -1.58313
 Alpha  occ. eigenvalues --   -1.41620  -1.37977  -1.27537  -1.17902  -1.14085
 Alpha  occ. eigenvalues --   -0.99569  -0.91972  -0.83885  -0.76058  -0.72386
 Alpha  occ. eigenvalues --   -0.68571  -0.67331  -0.65412  -0.62870  -0.62383
 Alpha  occ. eigenvalues --   -0.60545  -0.58765  -0.55168  -0.54011  -0.49062
 Alpha  occ. eigenvalues --   -0.46711  -0.43192  -0.38214  -0.37174  -0.36840
 Alpha  occ. eigenvalues --   -0.36428  -0.35521  -0.32159  -0.32130  -0.30921
 Alpha  occ. eigenvalues --   -0.27787  -0.17306
 Alpha virt. eigenvalues --    0.02706   0.04788   0.05040   0.06070   0.06250
 Alpha virt. eigenvalues --    0.06597   0.07171   0.07675   0.09637   0.10493
 Alpha virt. eigenvalues --    0.10749   0.11442   0.11674   0.12082   0.12734

 Mulliken charges:
               1
     1  C   -2.291613
     2  C    1.399406
     3  C    2.357226
     4  C   -3.056096
     5  C   -2.886233
     6  C   -2.861234
     7  H    1.940733
     8  H    1.846140
     9  H    1.651128
    10  P    9.428017
    11  O   -2.911218
    12  O   -2.712528
    13  N    3.389471
    14  O   -3.000642
    15  O   -3.000191
    16  H    1.917083
    17  H    0.716455
    18  O   -2.859156
    19  H    0.933251
 Sum of Mulliken charges =   0.00000

 Dipole moment (field-independent basis, Debye):
    X=             -1.7810    Y=             -2.6606    Z=              0.1698  Tot=              3.2062

 Test job not archived.
 1\1\GINC-SE333\SP\RHF\Aug-CC-pVDZ\C6H6N1O5P1\OHZDE\08-Apr-2025\0\\#t h
 f aug-cc-pvdz iop(5/13=1,5/36=2,99/5=2) pseudo=read geom=check guess=(
 read,tcheck) scf=(maxcycle=1)\\title\\0,1\C,0,1.346569,-1.205676,0.015
 972\C,0,-0.04167,-1.181738,0.007467\C,0,2.033361,0.004307,-0.000719\C,
 0,1.38249,1.230741,-0.027214\C,0,-0.008704,1.24407,-0.036887\C,0,-0.72
 2496,0.04193,-0.020556\H,0,-0.550981,2.181009,-0.060097\H,0,1.901889,-
 2.132711,0.035557\H,0,-0.594961,-2.112337,0.020209\P,0,-2.522491,0.124
 18,-0.012794\O,0,-3.070024,1.485306,0.016881\O,0,-3.015276,-0.803183,1

 Normal termination of Gaussian 16 at Tue Apr  8 23:32:21 2025.
