 Gaussian 16, Revision C.01,

 ----------------------------------------------------------------------
 #t hf aug-cc-pvdz symm=none int=(grid=ultrafine) guess=(read,tcheck) s
 table=(opt,rrhf)
 ----------------------------------------------------------------------
 -----
 title
 -----
 Symbolic Z-matrix:
 Charge =  0 Multiplicity = 1

 SCF Done:  E(RHF) =  -891.834542747     A.U. after   16 cycles
 Normal termination of Gaussian 16 at Tue Apr  8 23:14:49 2025.
 Gaussian 16:  ES64L-G16RevC.01  3-Jul-2019

 ----------------------------------------------------------------------
 #t hf aug-cc-pvdz iop(5/13=1,5/36=2,99/5=2) pseudo=read geom=check gue
 ss=(read,tcheck) scf=(maxcycle=1)
 ----------------------------------------------------------------------
 -----
 title
 -----
 Structure from the checkpoint file:  "BDE49_expt_756_mol1.chk"
 Charge =  0 Multiplicity = 1

                         Standard orientation:
 ---------------------------------------------------------------------
 Center     Atomic      Atomic             Coordinates (Angstroms)
 Number     Number       Type             X           Y           Z
 ---------------------------------------------------------------------
      1          6           0       -0.404386    1.559767   -0.033582
      2          6           0        0.002784    0.227012   -0.081471
      3          6           0       -0.903799   -0.825778   -0.066448
      4          6           0       -1.767356    1.829523    0.043429
      5          6           0       -2.696227    0.791844    0.070848
      6          6           0       -2.268018   -0.537454    0.012508
      7          1           0       -2.113810    2.855916    0.074921
      8          1           0       -3.757638    1.014420    0.128352
      9          8           0       -3.127911   -1.593586    0.024582
     10          1           0       -4.034994   -1.271726    0.052956
     11          1           0       -0.570544   -1.852589   -0.141017
     12         16           0        1.759157   -0.148479   -0.175567
     13          8           0        1.906512   -1.460551   -0.773434
     14          8           0        2.431923    1.011263   -0.726774
     15          6           0        2.246457   -0.284841    1.550300
     16          1           0        1.685859   -1.094101    2.015936
     17          1           0        2.061468    0.665421    2.049069
     18          1           0        3.313272   -0.512495    1.542738
     19          1           0        0.328952    2.353384   -0.082379
 ---------------------------------------------------------------------

 SCF Done:  E(RHF) =  -894.329557042     A.U. after    2 cycles

 The electronic state is 1-A.
 Alpha  occ. eigenvalues --  -75.88236 -21.12300 -21.03867 -21.03812 -13.51076
 Alpha  occ. eigenvalues --  -13.40627 -13.36183 -11.54943 -11.48605 -11.46305
 Alpha  occ. eigenvalues --  -11.44346 -11.43654 -11.42587 -11.39676  -8.23354
 Alpha  occ. eigenvalues --   -1.82546  -1.77725  -1.64456  -1.35195  -1.16998
 Alpha  occ. eigenvalues --   -1.11554  -1.09604  -0.95500  -0.88609  -0.84672
 Alpha  occ. eigenvalues --   -0.73469  -0.68504  -0.65117  -0.63505  -0.62685
 Alpha  occ. eigenvalues --   -0.60434  -0.60118  -0.57269  -0.55429  -0.52783
 Alpha  occ. eigenvalues --   -0.48541  -0.45571  -0.44119  -0.42802  -0.38857
 Alpha  occ. eigenvalues --   -0.38559  -0.36632  -0.34851  -0.34809  -0.29264
 Alpha virt. eigenvalues --    0.02473   0.04371   0.04429   0.05004   0.05883
 Alpha virt. eigenvalues --    0.06302   0.07281   0.07644   0.08076   0.09326
 Alpha virt. eigenvalues --    0.11212   0.11507   0.11920   0.12358   0.12849

 Mulliken charges:
               1
     1  C   -3.992442
     2  C    2.758303
     3  C   -3.753545
     4  C    0.022835
     5  C   -5.355280
     6  C    6.797447
     7  H    1.458412
     8  H    1.695811
     9  O   -4.601342
    10  H    1.048300
    11  H    1.973619
    12  S    6.571330
    13  O   -2.727973
    14  O   -2.753834
    15  C   -5.087025
    16  H    1.386674
    17  H    1.401347
    18  H    1.256189
    19  H    1.901175
 Sum of Mulliken charges =  -0.00000

 Dipole moment (field-independent basis, Debye):
    X=             -3.3009    Y=              0.5306    Z=              1.7954  Tot=              3.7949

 Test job not archived.
 1\1\GINC-SE043\SP\RHF\Aug-CC-pVDZ\C7H8O3S1\OHZDE\08-Apr-2025\0\\#t hf
 aug-cc-pvdz iop(5/13=1,5/36=2,99/5=2) pseudo=read geom=check guess=(re
 ad,tcheck) scf=(maxcycle=1)\\title\\0,1\C,0,-0.404386,1.559767,-0.0335
 82\C,0,0.002784,0.227012,-0.081471\C,0,-0.903799,-0.825778,-0.066448\C
 ,0,-1.767356,1.829523,0.043429\C,0,-2.696227,0.791844,0.070848\C,0,-2.
 268018,-0.537454,0.012508\H,0,-2.11381,2.855916,0.074921\H,0,-3.757638
 ,1.01442,0.128352\O,0,-3.127911,-1.593586,0.024582\H,0,-4.034994,-1.27
 1726,0.052956\H,0,-0.570544,-1.852589,-0.141017\S,0,1.759157,-0.148479

 Normal termination of Gaussian 16 at Tue Apr  8 23:15:03 2025.
