 Gaussian 16, Revision C.01,

 ----------------------------------------------------------------------
 #t hf aug-cc-pvdz symm=none int=(grid=ultrafine) guess=(read,tcheck) s
 table=(opt,rrhf)
 ----------------------------------------------------------------------
 -----
 title
 -----
 Symbolic Z-matrix:
 Charge =  0 Multiplicity = 1

 SCF Done:  E(RHF) =  -1159.12409823     A.U. after   15 cycles
 Normal termination of Gaussian 16 at Wed Apr  9 00:19:45 2025.
 Gaussian 16:  ES64L-G16RevC.01  3-Jul-2019

 ----------------------------------------------------------------------
 #t hf aug-cc-pvdz iop(5/13=1,5/36=2,99/5=2) pseudo=read geom=check gue
 ss=(read,tcheck) scf=(maxcycle=1)
 ----------------------------------------------------------------------
 -----
 title
 -----
 Structure from the checkpoint file:  "BDE49_nonexpt_2589_mol1.chk"
 Charge =  0 Multiplicity = 1

                         Standard orientation:
 ---------------------------------------------------------------------
 Center     Atomic      Atomic             Coordinates (Angstroms)
 Number     Number       Type             X           Y           Z
 ---------------------------------------------------------------------
      1         17           0       -2.349535   -0.850805   -0.302923
      2         16           0       -1.420320    0.895149    0.305783
      3          8           0        0.064610    0.822862   -0.462427
      4          6           0        1.072251    0.083727    0.144940
      5          8           0        0.963421   -0.575859    1.132127
      6          8           0        2.149787    0.264953   -0.606142
      7          6           0        3.327103   -0.440631   -0.156742
      8          1           0        3.140744   -1.514801   -0.145274
      9          1           0        3.607566   -0.107787    0.842953
     10          1           0        4.100236   -0.190319   -0.878173
 ---------------------------------------------------------------------

 SCF Done:  E(RHF) =  -1160.84604367     A.U. after    2 cycles

 The electronic state is 1-A.
 Alpha  occ. eigenvalues --  -99.92111 -75.80029 -21.13859 -21.12174 -21.07718
 Alpha  occ. eigenvalues --  -13.26000 -13.14538 -13.13769 -11.56411 -11.43707
 Alpha  occ. eigenvalues --  -10.49266  -9.68984  -9.68352  -9.68246  -8.13402
 Alpha  occ. eigenvalues --   -1.93455  -1.76612  -1.69810  -1.34146  -1.08893
 Alpha  occ. eigenvalues --   -1.01588  -0.79049  -0.71009  -0.67320  -0.63423
 Alpha  occ. eigenvalues --   -0.61197  -0.58121  -0.56803  -0.55966  -0.54912
 Alpha  occ. eigenvalues --   -0.45688  -0.43969  -0.40257  -0.35103  -0.32886
 Alpha  occ. eigenvalues --   -0.26531
 Alpha virt. eigenvalues --    0.02719   0.03861   0.05639   0.06210   0.06670
 Alpha virt. eigenvalues --    0.08296   0.10094   0.11333   0.12407   0.13396
 Alpha virt. eigenvalues --    0.14083   0.14452   0.15226   0.15836   0.16085

 Mulliken charges:
               1
     1  Cl  -0.440159
     2  S    1.057873
     3  O   -2.222323
     4  C    5.918035
     5  O   -2.261706
     6  O   -2.915723
     7  C   -3.003135
     8  H    1.253720
     9  H    1.260801
    10  H    1.352616
 Sum of Mulliken charges =   0.00000

 Dipole moment (field-independent basis, Debye):
    X=              2.5726    Y=              2.5848    Z=              0.6629  Tot=              3.7066

 Test job not archived.
 1\1\GINC-SE071\SP\RHF\Aug-CC-pVDZ\C2H3Cl1O3S1\OHZDE\09-Apr-2025\0\\#t
 hf aug-cc-pvdz iop(5/13=1,5/36=2,99/5=2) pseudo=read geom=check guess=
 (read,tcheck) scf=(maxcycle=1)\\title\\0,1\Cl,0,2.349535,0.850805,-0.3
 02923\S,0,1.42032,-0.895149,0.305783\O,0,-0.06461,-0.822862,-0.462427\
 C,0,-1.072251,-0.083727,0.14494\O,0,-0.963421,0.575859,1.132127\O,0,-2
 .149787,-0.264953,-0.606142\C,0,-3.327103,0.440631,-0.156742\H,0,-3.14
 0744,1.514801,-0.145274\H,0,-3.607566,0.107787,0.842953\H,0,-4.100236,
 0.190319,-0.878173\\Version=ES64L-G16RevC.01\State=1-A\HF=-1160.846043

 Normal termination of Gaussian 16 at Wed Apr  9 00:19:49 2025.
