 Gaussian 16, Revision C.01,

 ----------------------------------------------------------------------
 #t hf aug-cc-pvdz symm=none int=(grid=ultrafine) guess=(read,tcheck) s
 table=(opt,rrhf)
 ----------------------------------------------------------------------
 -----
 title
 -----
 Symbolic Z-matrix:
 Charge =  0 Multiplicity = 1

 SCF Done:  E(RHF) =  -659.438019601     A.U. after   10 cycles
 Normal termination of Gaussian 16 at Wed Apr  9 00:08:39 2025.
 Gaussian 16:  ES64L-G16RevC.01  3-Jul-2019

 ----------------------------------------------------------------------
 #t hf aug-cc-pvdz iop(5/13=1,5/36=2,99/5=2) pseudo=read geom=check gue
 ss=(read,tcheck) scf=(maxcycle=1)
 ----------------------------------------------------------------------
 -----
 title
 -----
 Structure from the checkpoint file:  "BDE49_nonexpt_2300_mol1.chk"
 Charge =  0 Multiplicity = 1

                         Standard orientation:
 ---------------------------------------------------------------------
 Center     Atomic      Atomic             Coordinates (Angstroms)
 Number     Number       Type             X           Y           Z
 ---------------------------------------------------------------------
      1         14           0        0.996361    0.633765    0.000000
      2         14           0       -0.996361   -0.633765    0.000001
      3          6           0        2.542990   -0.449589   -0.000001
      4          1           0        1.007873    1.520397    1.194699
      5          1           0        1.007870    1.520397   -1.194700
      6          1           0        2.570686   -1.091814    0.884190
      7          1           0        3.447334    0.164787   -0.000003
      8          1           0        2.570684   -1.091816   -0.884190
      9          6           0       -2.542990    0.449589   -0.000001
     10          1           0       -1.007872   -1.520396    1.194700
     11          1           0       -1.007871   -1.520397   -1.194698
     12          1           0       -2.570686    1.091815    0.884189
     13          1           0       -3.447334   -0.164787    0.000000
     14          1           0       -2.570685    1.091814   -0.884191
 ---------------------------------------------------------------------

 SCF Done:  E(RHF) =  -660.198209002     A.U. after    2 cycles

 The electronic state is 1-A.
 Alpha  occ. eigenvalues --  -76.20229 -76.20202 -11.35010 -11.35010  -5.53829
 Alpha  occ. eigenvalues --   -5.53819  -2.17274  -2.17144  -2.15892  -2.15724
 Alpha  occ. eigenvalues --   -2.15571  -2.14547  -1.04170  -1.03365  -0.76281
 Alpha  occ. eigenvalues --   -0.68105  -0.56305  -0.55858  -0.55776  -0.55481
 Alpha  occ. eigenvalues --   -0.46669  -0.44798  -0.42951  -0.41154  -0.32583
 Alpha virt. eigenvalues --    0.03315   0.03952   0.05225   0.06262   0.06707
 Alpha virt. eigenvalues --    0.07185   0.07330   0.07668   0.07720   0.08241
 Alpha virt. eigenvalues --    0.08507   0.09336   0.10456   0.10496   0.12022

 Mulliken charges:
               1
     1  Si   4.566766
     2  Si   4.566769
     3  C   -4.995411
     4  H   -1.767856
     5  H   -1.767853
     6  H    1.334552
     7  H    1.295248
     8  H    1.334554
     9  C   -4.995411
    10  H   -1.767857
    11  H   -1.767854
    12  H    1.334553
    13  H    1.295248
    14  H    1.334554
 Sum of Mulliken charges =  -0.00000

 Dipole moment (field-independent basis, Debye):
    X=             -0.0000    Y=             -0.0000    Z=              0.0000  Tot=              0.0000

 Test job not archived.
 1\1\GINC-SE073\SP\RHF\Aug-CC-pVDZ\C2H10Si2\OHZDE\09-Apr-2025\0\\#t hf
 aug-cc-pvdz iop(5/13=1,5/36=2,99/5=2) pseudo=read geom=check guess=(re
 ad,tcheck) scf=(maxcycle=1)\\title\\0,1\Si,0,0.996361,0.633765,0.\Si,0
 ,-0.996361,-0.633765,0.000001\C,0,2.54299,-0.449589,-0.000001\H,0,1.00
 7873,1.520397,1.194699\H,0,1.00787,1.520397,-1.1947\H,0,2.570686,-1.09
 1814,0.88419\H,0,3.447334,0.164787,-0.000003\H,0,2.570684,-1.091816,-0
 .88419\C,0,-2.54299,0.449589,-0.000001\H,0,-1.007872,-1.520396,1.1947\
 H,0,-1.007871,-1.520397,-1.194698\H,0,-2.570686,1.091815,0.884189\H,0,

 Normal termination of Gaussian 16 at Wed Apr  9 00:08:43 2025.
