 Gaussian 16, Revision C.01,

 ----------------------------------------------------------------------
 #t hf aug-cc-pvdz symm=none int=(grid=ultrafine) guess=(read,tcheck) s
 table=opt
 ----------------------------------------------------------------------
 -----
 title
 -----
 Symbolic Z-matrix:
 Charge =  0 Multiplicity = 2

 SCF Done:  E(UHF) =  -460.350937477     A.U. after   15 cycles
 Normal termination of Gaussian 16 at Wed Apr  9 00:34:49 2025.
 Gaussian 16:  ES64L-G16RevC.01  3-Jul-2019

 ----------------------------------------------------------------------
 #t hf aug-cc-pvdz iop(5/13=1,5/36=2,99/5=2) pseudo=read geom=check gue
 ss=(read,tcheck) scf=(maxcycle=1)
 ----------------------------------------------------------------------
 -----
 title
 -----
 Structure from the checkpoint file:  "BDE49_nonexpt_447_mol2.chk"
 Charge =  0 Multiplicity = 2

                         Standard orientation:
 ---------------------------------------------------------------------
 Center     Atomic      Atomic             Coordinates (Angstroms)
 Number     Number       Type             X           Y           Z
 ---------------------------------------------------------------------
      1          9           0        2.152345   -0.010516    0.042135
      2          9           0       -0.820421    1.100534   -0.637010
      3          9           0       -0.373511   -1.030730   -0.809919
      4          9           0       -1.294941   -0.261143    1.002899
      5          6           0       -0.386446    0.013910    0.048367
      6          5           0        1.069485    0.346648    0.665371
 ---------------------------------------------------------------------

 SCF Done:  E(UHF) =  -461.936673985     A.U. after    2 cycles

 The electronic state is 2-A.
 Alpha  occ. eigenvalues --  -29.32117 -29.32056 -29.31802 -29.30475 -11.56720
 Alpha  occ. eigenvalues --   -7.73504  -1.42664  -1.03662  -0.88700  -0.88525
 Alpha  occ. eigenvalues --   -0.75834  -0.53808  -0.49370  -0.48287  -0.44913
 Alpha  occ. eigenvalues --   -0.44241  -0.43734  -0.37930  -0.36981  -0.33325
 Alpha  occ. eigenvalues --   -0.27433  -0.26470  -0.22796  -0.22312
 Alpha virt. eigenvalues --    0.04002   0.04518   0.05979   0.08042   0.12338
 Alpha virt. eigenvalues --    0.13489   0.15780   0.16020   0.19795   0.20825
 Alpha virt. eigenvalues --    0.21369   0.22402   0.23903   0.24359   0.25865

  Beta  occ. eigenvalues --  -29.32135 -29.32089 -29.31692 -29.30213 -11.56365
  Beta  occ. eigenvalues --   -7.71434  -1.41746  -1.00475  -0.88445  -0.87962
  Beta  occ. eigenvalues --   -0.73923  -0.49334  -0.47667  -0.46395  -0.44169
  Beta  occ. eigenvalues --   -0.43892  -0.43320  -0.37252  -0.36753  -0.28148
  Beta  occ. eigenvalues --   -0.27367  -0.25815  -0.22425
  Beta virt. eigenvalues --    0.03123   0.04151   0.05928   0.08040   0.08445
  Beta virt. eigenvalues --    0.14580   0.15494   0.15930   0.16982   0.20604
  Beta virt. eigenvalues --    0.21271   0.21886   0.23022   0.24134   0.24703

 Mulliken charges and spin densities:
               1          2
     1  F   -0.027953  -0.092484
     2  F    0.184156   0.010495
     3  F    0.294531   0.037674
     4  F    0.298499  -0.003907
     5  C   -1.576990  -0.005623
     6  B    0.827757   1.053846
 Sum of Mulliken charges =  -0.00000   1.00000

 Dipole moment (field-independent basis, Debye):
    X=              1.5006    Y=             -1.2615    Z=             -2.5297  Tot=              3.2004
                          Isotropic Fermi Contact Couplings
        Atom                 a.u.       MegaHertz       Gauss      10(-4) cm-1
     1  F(19)              0.05903     248.35789      88.62027      82.84328
     2  F(19)             -0.00312     -13.14239      -4.68953      -4.38383
     3  F(19)              0.00969      40.75531      14.54251      13.59451
     4  F(19)             -0.00450     -18.93195      -6.75539      -6.31502
     5  C(13)              0.05584      62.77626      22.40013      20.93991
     6  B(11)              0.21790     312.55154     111.52616     104.25597
 --------------------------------------------------------
       Center         ----  Spin Dipole Couplings  ----

 Normal termination of Gaussian 16 at Wed Apr  9 00:34:51 2025.
