 Gaussian 16, Revision C.01,

 ----------------------------------------------------------------------
 #t hf aug-cc-pvdz symm=none int=(grid=ultrafine) guess=(read,tcheck) s
 table=(opt,rrhf)
 ----------------------------------------------------------------------
 -----
 title
 -----
 Symbolic Z-matrix:
 Charge =  0 Multiplicity = 1

 SCF Done:  E(RHF) =  -938.596761391     A.U. after   13 cycles
 Normal termination of Gaussian 16 at Tue Apr  8 23:44:35 2025.
 Gaussian 16:  ES64L-G16RevC.01  3-Jul-2019

 ----------------------------------------------------------------------
 #t hf aug-cc-pvdz iop(5/13=1,5/36=2,99/5=2) pseudo=read geom=check gue
 ss=(read,tcheck) scf=(maxcycle=1)
 ----------------------------------------------------------------------
 -----
 title
 -----
 Structure from the checkpoint file:  "BDE49_nonexpt_1678_mol1.chk"
 Charge =  0 Multiplicity = 1

                         Standard orientation:
 ---------------------------------------------------------------------
 Center     Atomic      Atomic             Coordinates (Angstroms)
 Number     Number       Type             X           Y           Z
 ---------------------------------------------------------------------
      1         14           0        0.526278    0.219294    0.354896
      2         15           0       -1.735465    0.134996    0.396848
      3          6           0       -2.011094   -1.671185    0.000016
      4          1           0       -1.544438   -1.989924   -0.935423
      5          1           0       -3.085753   -1.857722   -0.067100
      6          1           0       -1.619569   -2.283473    0.815631
      7          8           0        1.122551   -0.413253    1.768503
      8          6           0        1.426327   -0.739010   -0.982553
      9          6           0       -2.138128    0.928949   -1.244809
     10          1           0       -1.802347    1.967225   -1.221428
     11          1           0       -3.221541    0.924292   -1.387503
     12          1           0       -1.672240    0.426177   -2.096349
     13          6           0        2.954856   -0.540061   -0.978626
     14          1           0        1.013033   -0.454608   -1.957039
     15          1           0        1.192760   -1.800993   -0.848173
     16          1           0        3.225508    0.503822   -1.167043
     17          1           0        3.437561   -1.140708   -1.754913
     18          1           0        3.386754   -0.827972   -0.017295
     19          1           0        0.745706   -0.078611    2.586903
     20          8           0        0.813948    1.849586    0.245108
     21          1           0        1.724896    2.154615    0.255418
 ---------------------------------------------------------------------

 SCF Done:  E(RHF) =  -940.404405077     A.U. after    2 cycles

 The electronic state is 1-A.
 Alpha  occ. eigenvalues -- -105.14770 -76.22958 -21.06910 -21.06795 -11.39864
 Alpha  occ. eigenvalues --  -11.36942 -11.36774 -11.34625  -5.57455  -2.72850
 Alpha  occ. eigenvalues --   -2.25163  -2.22150  -2.19709  -1.67510  -1.63408
 Alpha  occ. eigenvalues --   -1.45652  -1.44726  -1.41098  -1.14728  -1.02874
 Alpha  occ. eigenvalues --   -0.96273  -0.89384  -0.71195  -0.63665  -0.61373
 Alpha  occ. eigenvalues --   -0.60020  -0.57243  -0.56850  -0.56142  -0.55341
 Alpha  occ. eigenvalues --   -0.54419  -0.49959  -0.49100  -0.48489  -0.44786
 Alpha  occ. eigenvalues --   -0.42048  -0.36277  -0.34806  -0.19998  -0.12534
 Alpha  occ. eigenvalues --   -0.00701
 Alpha virt. eigenvalues --    0.04157   0.04834   0.05692   0.05872   0.06074
 Alpha virt. eigenvalues --    0.06520   0.06570   0.07092   0.07192   0.07775
 Alpha virt. eigenvalues --    0.08317   0.08647   0.09236   0.09761   0.10010

 Mulliken charges:
               1
     1  Si   7.812542
     2  P    4.640954
     3  C   -6.488956
     4  H    1.396438
     5  H    1.104814
     6  H    1.145206
     7  O   -3.427361
     8  C   -5.023532
     9  C   -6.440383
    10  H    1.213471
    11  H    1.137317
    12  H    1.318482
    13  C   -3.761939
    14  H    1.544133
    15  H    1.632210
    16  H    1.280733
    17  H    1.014235
    18  H    1.231426
    19  H    0.974771
    20  O   -3.285272
    21  H    0.980711
 Sum of Mulliken charges =   0.00000

 Dipole moment (field-independent basis, Debye):
    X=             -1.5221    Y=              0.6255    Z=              0.6868  Tot=              1.7832

 Test job not archived.
 1\1\GINC-SE090\SP\RHF\Aug-CC-pVDZ\C4H13O2P1Si1\OHZDE\08-Apr-2025\0\\#t
  hf aug-cc-pvdz iop(5/13=1,5/36=2,99/5=2) pseudo=read geom=check guess
 =(read,tcheck) scf=(maxcycle=1)\\title\\0,1\Si,0,0.526278,0.219294,0.3
 54896\P,0,-1.735465,0.134996,0.396848\C,0,-2.011094,-1.671185,0.000016
 \H,0,-1.544438,-1.989924,-0.935423\H,0,-3.085753,-1.857722,-0.0671\H,0
 ,-1.619569,-2.283473,0.815631\O,0,1.122551,-0.413253,1.768503\C,0,1.42
 6327,-0.73901,-0.982553\C,0,-2.138128,0.928949,-1.244809\H,0,-1.802347
 ,1.967225,-1.221428\H,0,-3.221541,0.924292,-1.387503\H,0,-1.67224,0.42

 Normal termination of Gaussian 16 at Tue Apr  8 23:44:46 2025.
