 Gaussian 16, Revision C.01,

 ----------------------------------------------------------------------
 #t hf aug-cc-pvdz symm=none int=(grid=ultrafine) guess=(read,tcheck) s
 table=(opt,rrhf)
 ----------------------------------------------------------------------
 -----
 title
 -----
 Symbolic Z-matrix:
 Charge =  0 Multiplicity = 1

 SCF Done:  E(RHF) =  -1280.01181521     A.U. after   12 cycles
 Normal termination of Gaussian 16 at Wed Apr  9 00:21:01 2025.
 Gaussian 16:  ES64L-G16RevC.01  3-Jul-2019

 ----------------------------------------------------------------------
 #t hf aug-cc-pvdz iop(5/13=1,5/36=2,99/5=2) pseudo=read geom=check gue
 ss=(read,tcheck) scf=(maxcycle=1)
 ----------------------------------------------------------------------
 -----
 title
 -----
 Structure from the checkpoint file:  "BDE49_nonexpt_261_mol1.chk"
 Charge =  0 Multiplicity = 1

                         Standard orientation:
 ---------------------------------------------------------------------
 Center     Atomic      Atomic             Coordinates (Angstroms)
 Number     Number       Type             X           Y           Z
 ---------------------------------------------------------------------
      1         17           0       -1.370356    1.519552   -0.009065
      2         17           0       -1.370326   -1.519566   -0.009076
      3          9           0        1.618144   -1.085545   -0.610561
      4          9           0        1.618144    1.085678   -0.610351
      5          9           0        1.508062   -0.000114    1.279050
      6          6           0        1.086990    0.000010   -0.012806
      7          5           0       -0.525898    0.000002   -0.027603
 ---------------------------------------------------------------------

 SCF Done:  E(RHF) =  -1281.77281685     A.U. after    2 cycles

 The electronic state is 1-A.
 Alpha  occ. eigenvalues --  -99.93294 -99.93281 -29.31980 -29.31910 -29.31853
 Alpha  occ. eigenvalues --  -11.57111 -10.50695 -10.50494  -9.70644  -9.70437
 Alpha  occ. eigenvalues --   -9.70072  -9.70065  -9.69937  -9.69835  -7.75152
 Alpha  occ. eigenvalues --   -1.47250  -1.37700  -1.33402  -0.90613  -0.89044
 Alpha  occ. eigenvalues --   -0.88347  -0.73676  -0.65631  -0.60870  -0.56937
 Alpha  occ. eigenvalues --   -0.55705  -0.53666  -0.48526  -0.44272  -0.43986
 Alpha  occ. eigenvalues --   -0.37659  -0.36765  -0.28804  -0.27262  -0.26664
 Alpha  occ. eigenvalues --   -0.22391
 Alpha virt. eigenvalues --    0.03117   0.03978   0.04247   0.04335   0.06864
 Alpha virt. eigenvalues --    0.10253   0.11250   0.12406   0.15416   0.15461
 Alpha virt. eigenvalues --    0.15831   0.15877   0.16765   0.17079   0.17514

 Mulliken charges:
               1
     1  Cl  -1.138415
     2  Cl  -1.138436
     3  F    0.185843
     4  F    0.185870
     5  F    0.218487
     6  C   -1.713997
     7  B    3.400647
 Sum of Mulliken charges =  -0.00000

 Dipole moment (field-independent basis, Debye):
    X=              2.3775    Y=             -0.0000    Z=              0.1956  Tot=              2.3855

 Test job not archived.
 1\1\GINC-SE058\SP\RHF\Aug-CC-pVDZ\C1B1Cl2F3\OHZDE\09-Apr-2025\0\\#t hf
  aug-cc-pvdz iop(5/13=1,5/36=2,99/5=2) pseudo=read geom=check guess=(r
 ead,tcheck) scf=(maxcycle=1)\\title\\0,1\Cl,0,-1.370356,1.519552,-0.00
 9065\Cl,0,-1.370326,-1.519566,-0.009076\F,0,1.618144,-1.085545,-0.6105
 61\F,0,1.618144,1.085678,-0.610351\F,0,1.508062,-0.000114,1.27905\C,0,
 1.08699,0.00001,-0.012806\B,0,-0.525898,0.000002,-0.027603\\Version=ES
 64L-G16RevC.01\State=1-A\HF=-1281.7728169\RMSD=3.995e-02\Dipole=0.9353
 8,-0.0000016,0.0769412\Quadrupole=0.4420075,-0.1317482,-0.3102592,-0.0

 Normal termination of Gaussian 16 at Wed Apr  9 00:21:04 2025.
