 Gaussian 16, Revision C.01,

 ----------------------------------------------------------------------
 #t hf aug-cc-pvdz symm=none int=(grid=ultrafine) guess=(read,tcheck) s
 table=(opt,rrhf)
 ----------------------------------------------------------------------
 -----
 title
 -----
 Symbolic Z-matrix:
 Charge =  0 Multiplicity = 1

 SCF Done:  E(RHF) =  -230.993137126     A.U. after   13 cycles
 Normal termination of Gaussian 16 at Tue Apr  8 22:35:49 2025.
 Gaussian 16:  ES64L-G16RevC.01  3-Jul-2019

 ----------------------------------------------------------------------
 #t hf aug-cc-pvdz iop(5/13=1,5/36=2,99/5=2) pseudo=read geom=check gue
 ss=(read,tcheck) scf=(maxcycle=1)
 ----------------------------------------------------------------------
 -----
 title
 -----
 Structure from the checkpoint file:  "BDE49_expt_1057_mol1.chk"
 Charge =  0 Multiplicity = 1

                         Standard orientation:
 ---------------------------------------------------------------------
 Center     Atomic      Atomic             Coordinates (Angstroms)
 Number     Number       Type             X           Y           Z
 ---------------------------------------------------------------------
      1          6           0       -1.228656    0.491426    0.377279
      2          8           0       -1.837626   -0.697733   -0.124390
      3          1           0       -2.602338   -0.898716    0.421923
      4          6           0        0.066930    0.717113   -0.400007
      5          1           0       -1.004111    0.398348    1.449010
      6          1           0       -1.891256    1.357786    0.240410
      7          6           0        1.077764   -0.375337   -0.191929
      8          1           0        0.490827    1.685574   -0.114863
      9          1           0       -0.197531    0.776695   -1.463352
     10          6           0        2.326816   -0.189597    0.224671
     11          1           0        0.722115   -1.381082   -0.399341
     12          1           0        2.714405    0.801419    0.444222
     13          1           0        3.011774   -1.019780    0.357027
 ---------------------------------------------------------------------

 SCF Done:  E(RHF) =  -232.086351955     A.U. after    2 cycles

 The electronic state is 1-A.
 Alpha  occ. eigenvalues --  -21.06829 -11.44087 -11.41008 -11.38225 -11.35751
 Alpha  occ. eigenvalues --   -1.70777  -1.21138  -1.04684  -0.88427  -0.77911
 Alpha  occ. eigenvalues --   -0.67007  -0.63588  -0.60161  -0.55206  -0.51979
 Alpha  occ. eigenvalues --   -0.47645  -0.45928  -0.41161  -0.33873  -0.32032
 Alpha virt. eigenvalues --    0.03894   0.05301   0.05525   0.05970   0.06217
 Alpha virt. eigenvalues --    0.06744   0.06866   0.08080   0.10947   0.11844
 Alpha virt. eigenvalues --    0.13078   0.14089   0.14541   0.15612   0.15988

 Mulliken charges:
               1
     1  C   -1.012242
     2  O   -2.495693
     3  H    0.807269
     4  C   -3.856975
     5  H    1.496161
     6  H    1.290254
     7  C   -0.261537
     8  H    1.338140
     9  H    1.406756
    10  C   -2.992383
    11  H    1.524059
    12  H    1.420406
    13  H    1.335786
 Sum of Mulliken charges =  -0.00000

 Dipole moment (field-independent basis, Debye):
    X=             -0.6452    Y=              0.3325    Z=              0.4338  Tot=              0.8456

 Test job not archived.
 1\1\GINC-SE029\SP\RHF\Aug-CC-pVDZ\C4H8O1\OHZDE\08-Apr-2025\0\\#t hf au
 g-cc-pvdz iop(5/13=1,5/36=2,99/5=2) pseudo=read geom=check guess=(read
 ,tcheck) scf=(maxcycle=1)\\title\\0,1\C,0,1.228656,0.491426,-0.377279\
 O,0,1.837626,-0.697733,0.12439\H,0,2.602338,-0.898716,-0.421923\C,0,-0
 .06693,0.717113,0.400007\H,0,1.004111,0.398348,-1.44901\H,0,1.891256,1
 .357786,-0.24041\C,0,-1.077764,-0.375337,0.191929\H,0,-0.490827,1.6855
 74,0.114863\H,0,0.197531,0.776695,1.463352\C,0,-2.326816,-0.189597,-0.
 224671\H,0,-0.722115,-1.381082,0.399341\H,0,-2.714405,0.801419,-0.4442

 Normal termination of Gaussian 16 at Tue Apr  8 22:35:52 2025.
