 Gaussian 16, Revision C.01,

 ----------------------------------------------------------------------
 #t hf aug-cc-pvdz symm=none int=(grid=ultrafine) guess=(read,tcheck) s
 table=opt
 ----------------------------------------------------------------------
 -----
 title
 -----
 Symbolic Z-matrix:
 Charge =  0 Multiplicity = 2

 SCF Done:  E(UHF) =  -983.805692233     A.U. after   23 cycles
 Normal termination of Gaussian 16 at Tue Apr  8 23:11:07 2025.
 Gaussian 16:  ES64L-G16RevC.01  3-Jul-2019

 ----------------------------------------------------------------------
 #t hf aug-cc-pvdz iop(5/13=1,5/36=2,99/5=2) pseudo=read geom=check gue
 ss=(read,tcheck) scf=(maxcycle=1)
 ----------------------------------------------------------------------
 -----
 title
 -----
 Structure from the checkpoint file:  "BDE49_expt_625_mol2.chk"
 Charge =  0 Multiplicity = 2

                         Standard orientation:
 ---------------------------------------------------------------------
 Center     Atomic      Atomic             Coordinates (Angstroms)
 Number     Number       Type             X           Y           Z
 ---------------------------------------------------------------------
      1          6           0        0.435477   -0.034324   -0.352092
      2          8           0        1.105693   -1.024400    0.436279
      3          8           0        2.119857   -1.557975   -0.222709
      4          6           0       -1.060872   -0.140802   -0.019770
      5         17           0        1.076927    1.586538    0.012591
      6          1           0        0.607206   -0.250489   -1.403479
      7          9           0       -1.755562    0.751907   -0.736933
      8          9           0       -1.490934   -1.369940   -0.348963
      9          9           0       -1.305391    0.061266    1.276122
 ---------------------------------------------------------------------

 SCF Done:  E(UHF) =  -985.954243375     A.U. after    2 cycles

 The electronic state is 2-A.
 Alpha  occ. eigenvalues --  -99.92630 -29.33690 -29.33556 -29.33491 -21.19613
 Alpha  occ. eigenvalues --  -21.17964 -11.63940 -11.53033 -10.50000  -9.69916
 Alpha  occ. eigenvalues --   -9.69078  -9.68999  -2.10043  -1.50852  -1.40117
 Alpha  occ. eigenvalues --   -1.33721  -1.02688  -0.92482  -0.91471  -0.80212
 Alpha  occ. eigenvalues --   -0.71503  -0.65712  -0.61251  -0.55502  -0.54546
 Alpha  occ. eigenvalues --   -0.52437  -0.49552  -0.45986  -0.45568  -0.40938
 Alpha  occ. eigenvalues --   -0.39078  -0.38067  -0.35133  -0.30900  -0.28377
 Alpha  occ. eigenvalues --   -0.27562  -0.23787
 Alpha virt. eigenvalues --    0.04838   0.05982   0.09706   0.10736   0.11224
 Alpha virt. eigenvalues --    0.11778   0.12387   0.13074   0.14752   0.15585
 Alpha virt. eigenvalues --    0.15844   0.16829   0.19309   0.20980   0.21896

  Beta  occ. eigenvalues --  -99.92621 -29.33692 -29.33555 -29.33491 -21.17367
  Beta  occ. eigenvalues --  -21.15676 -11.63947 -11.53088 -10.49991  -9.69872
  Beta  occ. eigenvalues --   -9.69079  -9.68991  -2.04959  -1.48762  -1.36296
  Beta  occ. eigenvalues --   -1.30699  -1.02065  -0.92436  -0.91258  -0.80085
  Beta  occ. eigenvalues --   -0.70005  -0.64848  -0.55767  -0.54278  -0.51900
  Beta  occ. eigenvalues --   -0.49351  -0.47522  -0.45756  -0.44885  -0.39565
  Beta  occ. eigenvalues --   -0.38733  -0.37575  -0.30297  -0.28362  -0.27864
  Beta  occ. eigenvalues --   -0.23838
  Beta virt. eigenvalues --    0.04788   0.05651   0.08464   0.09818   0.11252
  Beta virt. eigenvalues --    0.11796   0.12145   0.12910   0.13858   0.14822
  Beta virt. eigenvalues --    0.15938   0.16766   0.17168   0.19467   0.21006

 Mulliken charges and spin densities:
               1          2
     1  C   -2.624623  -0.034233
     2  O   -1.183510   0.097136
     3  O   -0.188488   0.917208
     4  C    0.581354   0.008160
     5  Cl   0.192117   0.015515
     6  H    1.846901  -0.006907
     7  F    0.434671  -0.000454
     8  F    0.521667   0.003381
     9  F    0.419911   0.000195
 Sum of Mulliken charges =  -0.00000   1.00000

 Dipole moment (field-independent basis, Debye):
    X=             -2.6353    Y=             -1.5320    Z=             -0.0804  Tot=              3.0493
                          Isotropic Fermi Contact Couplings
        Atom                 a.u.       MegaHertz       Gauss      10(-4) cm-1
     1  C(13)             -0.00726      -8.15767      -2.91086      -2.72111
     2  O(17)              0.05414     -32.82120     -11.71142     -10.94797
     3  O(17)              0.19743    -119.68301     -42.70587     -39.92195
     4  C(13)              0.00004       0.04536       0.01619       0.01513
     5  Cl(35)             0.01198       5.25184       1.87399       1.75183
     6  H(1)               0.00004       0.18897       0.06743       0.06303
     7  F(19)             -0.00040      -1.67260      -0.59683      -0.55792
     8  F(19)              0.00167       7.01178       2.50198       2.33888

 1\1\GINC-SE423\SP\UHF\Aug-CC-pVDZ\C2H1Cl1F3O2(2)\OHZDE\08-Apr-2025\0\\
 #t hf aug-cc-pvdz iop(5/13=1,5/36=2,99/5=2) pseudo=read geom=check gue
 ss=(read,tcheck) scf=(maxcycle=1)\\title\\0,2\C,0,0.435477,-0.034324,-
 0.352092\O,0,1.105693,-1.024399,0.436279\O,0,2.119857,-1.557974,-0.222
 709\C,0,-1.060872,-0.140802,-0.01977\Cl,0,1.076926,1.586538,0.012591\H
 ,0,0.607206,-0.250489,-1.403479\F,0,-1.755562,0.751907,-0.736933\F,0,-
 1.490934,-1.36994,-0.348963\F,0,-1.305391,0.061266,1.276122\\Version=E
 S64L-G16RevC.01\State=2-A\HF=-985.9542434\S2=0.762943\S2-1=0.\S2A=0.75

 Normal termination of Gaussian 16 at Tue Apr  8 23:11:12 2025.
