 Gaussian 16, Revision C.01,

 ----------------------------------------------------------------------
 #t hf aug-cc-pvdz symm=none int=(grid=ultrafine) guess=(read,tcheck) s
 table=opt
 ----------------------------------------------------------------------
 -----
 title
 -----
 Symbolic Z-matrix:
 Charge =  0 Multiplicity = 2

 SCF Done:  E(UHF) =  -78.6069302913     A.U. after   14 cycles
 Normal termination of Gaussian 16 at Tue Apr  8 22:33:19 2025.
 Gaussian 16:  ES64L-G16RevC.01  3-Jul-2019

 ----------------------------------------------------------------------
 #t hf aug-cc-pvdz iop(5/13=1,5/36=2,99/5=2) pseudo=read geom=check gue
 ss=(read,tcheck) scf=(maxcycle=1)
 ----------------------------------------------------------------------
 -----
 title
 -----
 Structure from the checkpoint file:  "BDE49_expt_1035_mol2.chk"
 Charge =  0 Multiplicity = 2

                         Standard orientation:
 ---------------------------------------------------------------------
 Center     Atomic      Atomic             Coordinates (Angstroms)
 Number     Number       Type             X           Y           Z
 ---------------------------------------------------------------------
      1          6           0       -0.693346    0.000001   -0.001730
      2          6           0        0.794048    0.000000   -0.019224
      3          1           0       -1.093474   -0.000034    1.025991
      4          1           0       -1.107136   -0.886160   -0.492777
      5          1           0       -1.107136    0.886192   -0.492720
      6          1           0        1.351767   -0.926241    0.042613
      7          1           0        1.351770    0.926239    0.042614
 ---------------------------------------------------------------------

 SCF Done:  E(UHF) =  -79.0014154948     A.U. after    2 cycles

 The electronic state is 2-A.
 Alpha  occ. eigenvalues --  -11.38923 -11.35414  -1.14295  -0.87328  -0.61513
 Alpha  occ. eigenvalues --   -0.56835  -0.51905  -0.49145  -0.31354
 Alpha virt. eigenvalues --    0.03595   0.05589   0.06205   0.06681   0.07084
 Alpha virt. eigenvalues --    0.12754   0.13722   0.14128   0.15546   0.15682
 Alpha virt. eigenvalues --    0.17668   0.19377   0.20289   0.26668   0.29015

  Beta  occ. eigenvalues --  -11.38135 -11.34262  -1.10566  -0.82154  -0.60516
  Beta  occ. eigenvalues --   -0.53722  -0.50589  -0.48584
  Beta virt. eigenvalues --    0.03725   0.05680   0.06225   0.06703   0.07097
  Beta virt. eigenvalues --    0.09450   0.12820   0.14172   0.15729   0.15746
  Beta virt. eigenvalues --    0.16847   0.19503   0.20521   0.21734   0.27636

 Mulliken charges and spin densities:
               1          2
     1  C   -3.677855  -0.332595
     2  C   -2.717903   1.453351
     3  H    1.303471   0.027333
     4  H    1.217756   0.004614
     5  H    1.217752   0.004612
     6  H    1.328389  -0.078657
     7  H    1.328391  -0.078657
 Sum of Mulliken charges =  -0.00000   1.00000

 Dipole moment (field-independent basis, Debye):
    X=             -0.1482    Y=              0.0000    Z=              0.1019  Tot=              0.1799
                          Isotropic Fermi Contact Couplings
        Atom                 a.u.       MegaHertz       Gauss      10(-4) cm-1
     1  C(13)             -0.03575     -40.19386     -14.34217     -13.40723
     2  C(13)              0.12607     141.72360      50.57050      47.27390
     3  H(1)               0.02263     101.13995      36.08925      33.73665
     4  H(1)               0.00637      28.46144      10.15575       9.49372
     5  H(1)               0.00637      28.45640      10.15395       9.49203
     6  H(1)              -0.01838     -82.15973     -29.31663     -27.40554
     7  H(1)              -0.01838     -82.16005     -29.31675     -27.40564
 --------------------------------------------------------

 Normal termination of Gaussian 16 at Tue Apr  8 22:33:20 2025.
