 Gaussian 16, Revision C.01,

 ----------------------------------------------------------------------
 #t hf aug-cc-pvdz symm=none int=(grid=ultrafine) guess=(read,tcheck) s
 table=(opt,rrhf)
 ----------------------------------------------------------------------
 -----
 title
 -----
 Symbolic Z-matrix:
 Charge =  0 Multiplicity = 1

 SCF Done:  E(RHF) =  -1304.79797053     A.U. after   16 cycles
 Normal termination of Gaussian 16 at Wed Apr  9 00:11:19 2025.
 Gaussian 16:  ES64L-G16RevC.01  3-Jul-2019

 ----------------------------------------------------------------------
 #t hf aug-cc-pvdz iop(5/13=1,5/36=2,99/5=2) pseudo=read geom=check gue
 ss=(read,tcheck) scf=(maxcycle=1)
 ----------------------------------------------------------------------
 -----
 title
 -----
 Structure from the checkpoint file:  "BDE49_nonexpt_2349_mol1.chk"
 Charge =  0 Multiplicity = 1

                         Standard orientation:
 ---------------------------------------------------------------------
 Center     Atomic      Atomic             Coordinates (Angstroms)
 Number     Number       Type             X           Y           Z
 ---------------------------------------------------------------------
      1         14           0        0.894667    1.536906    0.088217
      2         14           0       -1.255111    1.062766   -0.748574
      3          6           0        1.763825   -0.130413    0.496801
      4          8           0        2.333568   -0.509284    1.446160
      5          1           0        0.899013    2.340023    1.328455
      6          1           0        1.765605    2.162297   -0.930937
      7         17           0        1.616118   -1.284765   -1.030029
      8          6           0       -1.925785   -0.329782    0.433111
      9          1           0       -1.254792    0.694220   -2.182864
     10          1           0       -2.126196    2.252546   -0.568359
     11          8           0       -1.425193   -0.376695    1.539209
     12          6           0       -3.022765   -1.273937    0.001710
     13          1           0       -2.672228   -1.873889   -0.845022
     14          1           0       -3.893902   -0.709152   -0.347094
     15          1           0       -3.303948   -1.927817    0.828638
 ---------------------------------------------------------------------

 SCF Done:  E(RHF) =  -1306.49953652     A.U. after    2 cycles

 The electronic state is 1-A.
 Alpha  occ. eigenvalues --  -99.88139 -76.25817 -76.24553 -21.12529 -21.07856
 Alpha  occ. eigenvalues --  -11.53381 -11.48687 -11.39801 -10.45274  -9.65160
 Alpha  occ. eigenvalues --   -9.64703  -9.64560  -5.59335  -5.58156  -2.22650
 Alpha  occ. eigenvalues --   -2.21898  -2.21484  -2.21120  -2.20197  -2.19451
 Alpha  occ. eigenvalues --   -1.76904  -1.72271  -1.28502  -1.12062  -0.90979
 Alpha  occ. eigenvalues --   -0.84600  -0.74907  -0.70514  -0.62281  -0.61167
 Alpha  occ. eigenvalues --   -0.60540  -0.58027  -0.56980  -0.56127  -0.51217
 Alpha  occ. eigenvalues --   -0.49431  -0.48499  -0.48117  -0.46412  -0.44110
 Alpha  occ. eigenvalues --   -0.39036  -0.33747  -0.28399
 Alpha virt. eigenvalues --    0.03118   0.03919   0.04921   0.05593   0.06119
 Alpha virt. eigenvalues --    0.06238   0.06603   0.07402   0.07788   0.08203
 Alpha virt. eigenvalues --    0.08698   0.08825   0.09330   0.10181   0.10737

 Mulliken charges:
               1
     1  Si   4.862305
     2  Si   4.626587
     3  C    0.831974
     4  O   -2.117933
     5  H   -1.768732
     6  H   -1.858936
     7  Cl  -0.107234
     8  C    1.674832
     9  H   -1.638136
    10  H   -2.018934
    11  O   -2.513483
    12  C   -3.940169
    13  H    1.347303
    14  H    1.331451
    15  H    1.289105
 Sum of Mulliken charges =  -0.00000

 Dipole moment (field-independent basis, Debye):
    X=             -1.4520    Y=              2.0506    Z=              2.1393  Tot=              3.3000

 Test job not archived.
 1\1\GINC-SE419\SP\RHF\Aug-CC-pVDZ\C3H7Cl1O2Si2\OHZDE\09-Apr-2025\0\\#t
  hf aug-cc-pvdz iop(5/13=1,5/36=2,99/5=2) pseudo=read geom=check guess
 =(read,tcheck) scf=(maxcycle=1)\\title\\0,1\Si,0,0.894667,1.536906,0.0
 88217\Si,0,-1.255111,1.062766,-0.748574\C,0,1.763825,-0.130413,0.49680
 1\O,0,2.333568,-0.509283,1.44616\H,0,0.899012,2.340023,1.328455\H,0,1.
 765604,2.162297,-0.930937\Cl,0,1.616118,-1.284765,-1.030029\C,0,-1.925
 785,-0.329782,0.433111\H,0,-1.254792,0.69422,-2.182864\H,0,-2.126197,2
 .252546,-0.568359\O,0,-1.425193,-0.376695,1.539209\C,0,-3.022765,-1.27

 Normal termination of Gaussian 16 at Wed Apr  9 00:11:25 2025.
