 Gaussian 16, Revision C.01,

 ----------------------------------------------------------------------
 #t hf aug-cc-pvdz symm=none int=(grid=ultrafine) guess=(read,tcheck) s
 table=opt
 ----------------------------------------------------------------------
 -----
 title
 -----
 Symbolic Z-matrix:
 Charge =  0 Multiplicity = 2

 SCF Done:  E(UHF) =  -51.0223503064     A.U. after   14 cycles
 Normal termination of Gaussian 16 at Tue Apr  8 23:32:59 2025.
 Gaussian 16:  ES64L-G16RevC.01  3-Jul-2019

 ----------------------------------------------------------------------
 #t hf aug-cc-pvdz iop(5/13=1,5/36=2,99/5=2) pseudo=read geom=check gue
 ss=(read,tcheck) scf=(maxcycle=1)
 ----------------------------------------------------------------------
 -----
 title
 -----
 Structure from the checkpoint file:  "BDE49_nonexpt_142_mol2.chk"
 Charge =  0 Multiplicity = 2

                         Standard orientation:
 ---------------------------------------------------------------------
 Center     Atomic      Atomic             Coordinates (Angstroms)
 Number     Number       Type             X           Y           Z
 ---------------------------------------------------------------------
      1          5           0        0.844449   -0.000001    0.000002
      2          5           0       -0.717137   -0.000000   -0.000003
      3          1           0       -1.328764    1.026897    0.000002
      4          1           0       -1.328773   -1.026892   -0.000003
      5          1           0        2.020977    0.000000    0.000006
 ---------------------------------------------------------------------

 SCF Done:  E(UHF) =  -51.2442863582     A.U. after    2 cycles

 The electronic state is 2-A.
 Alpha  occ. eigenvalues --   -7.64532  -7.57673  -0.93964  -0.70693  -0.47662
 Alpha  occ. eigenvalues --   -0.45772  -0.30697
 Alpha virt. eigenvalues --    0.01965   0.02131   0.04263   0.05280   0.06698
 Alpha virt. eigenvalues --    0.08950   0.08962   0.11151   0.11426   0.13380
 Alpha virt. eigenvalues --    0.13695   0.14032   0.16050   0.22567   0.23522

  Beta  occ. eigenvalues --   -7.63602  -7.57462  -0.88707  -0.68869  -0.47546
  Beta  occ. eigenvalues --   -0.44579
  Beta virt. eigenvalues --    0.00786   0.02005   0.02285   0.05408   0.07154
  Beta virt. eigenvalues --    0.09006   0.09051   0.09675   0.11504   0.11921
  Beta virt. eigenvalues --    0.13712   0.13954   0.14230   0.20328   0.24147

 Mulliken charges and spin densities:
               1          2
     1  B   -0.592547   0.796715
     2  B    6.090513   0.427424
     3  H   -2.552100  -0.094919
     4  H   -2.552109  -0.094919
     5  H   -0.393757  -0.034301
 Sum of Mulliken charges =  -0.00000   1.00000

 Dipole moment (field-independent basis, Debye):
    X=              1.2285    Y=             -0.0000    Z=              0.0000  Tot=              1.2285
                          Isotropic Fermi Contact Couplings
        Atom                 a.u.       MegaHertz       Gauss      10(-4) cm-1
     1  B(11)              0.02857      40.98394      14.62409      13.67077
     2  B(11)              0.00076       1.09581       0.39101       0.36552
     3  H(1)              -0.00657     -29.35644     -10.47511      -9.79225
     4  H(1)              -0.00657     -29.35637     -10.47508      -9.79223
     5  H(1)              -0.01373     -61.36480     -21.89649     -20.46909
 --------------------------------------------------------
       Center         ----  Spin Dipole Couplings  ----
                      3XX-RR        3YY-RR        3ZZ-RR

 Normal termination of Gaussian 16 at Tue Apr  8 23:33:01 2025.
