 Gaussian 16, Revision C.01,

 ----------------------------------------------------------------------
 #t hf aug-cc-pvdz symm=none int=(grid=ultrafine) guess=(read,tcheck) s
 table=(opt,rrhf)
 ----------------------------------------------------------------------
 -----
 title
 -----
 Symbolic Z-matrix:
 Charge =  0 Multiplicity = 1

 SCF Done:  E(RHF) =  -974.723842312     A.U. after   14 cycles
 Normal termination of Gaussian 16 at Wed Apr  9 00:17:03 2025.
 Gaussian 16:  ES64L-G16RevC.01  3-Jul-2019

 ----------------------------------------------------------------------
 #t hf aug-cc-pvdz iop(5/13=1,5/36=2,99/5=2) pseudo=read geom=check gue
 ss=(read,tcheck) scf=(maxcycle=1)
 ----------------------------------------------------------------------
 -----
 title
 -----
 Structure from the checkpoint file:  "BDE49_nonexpt_2547_mol1.chk"
 Charge =  0 Multiplicity = 1

                         Standard orientation:
 ---------------------------------------------------------------------
 Center     Atomic      Atomic             Coordinates (Angstroms)
 Number     Number       Type             X           Y           Z
 ---------------------------------------------------------------------
      1         17           0        1.840376   -0.715655    0.005171
      2         16           0        0.632044    0.943354   -0.360743
      3          6           0       -0.712423    0.666549    0.842632
      4          6           0       -1.626556   -0.531452    0.579001
      5          1           0       -0.268304    0.627437    1.838881
      6          6           0       -2.429706   -0.443077   -0.719656
      7          1           0       -2.310443   -0.606899    1.432887
      8          1           0       -1.025001   -1.445251    0.589093
      9          1           0       -3.073118    0.442625   -0.728323
     10          1           0       -3.070390   -1.320073   -0.838287
     11          1           0       -1.268009    1.610954    0.767547
     12          1           0       -1.771736   -0.388456   -1.589679
 ---------------------------------------------------------------------

 SCF Done:  E(RHF) =  -975.809079687     A.U. after    2 cycles

 The electronic state is 1-A.
 Alpha  occ. eigenvalues --  -99.90043 -75.73354 -13.15044 -13.10113 -13.07740
 Alpha  occ. eigenvalues --  -11.44181 -11.40290 -11.36232 -10.47166  -9.66951
 Alpha  occ. eigenvalues --   -9.66366  -9.66212  -8.07084  -1.34314  -1.23261
 Alpha  occ. eigenvalues --   -1.09244  -0.95981  -0.84337  -0.64923  -0.63641
 Alpha  occ. eigenvalues --   -0.59183  -0.55678  -0.54574  -0.52984  -0.50381
 Alpha  occ. eigenvalues --   -0.48198  -0.47736  -0.38515  -0.24901
 Alpha virt. eigenvalues --    0.03141   0.04440   0.05020   0.05714   0.06312
 Alpha virt. eigenvalues --    0.06536   0.06863   0.07663   0.08203   0.12217
 Alpha virt. eigenvalues --    0.13442   0.13964   0.14614   0.15209   0.15450

 Mulliken charges:
               1
     1  Cl  -0.416529
     2  S    0.771878
     3  C   -3.679532
     4  C   -2.418299
     5  H    1.406122
     6  C   -3.748313
     7  H    1.311893
     8  H    1.323202
     9  H    1.233420
    10  H    1.179864
    11  H    1.615284
    12  H    1.421010
 Sum of Mulliken charges =  -0.00000

 Dipole moment (field-independent basis, Debye):
    X=             -2.3478    Y=              2.5840    Z=             -0.3298  Tot=              3.5069

 Test job not archived.
 1\1\GINC-SE109\SP\RHF\Aug-CC-pVDZ\C3H7Cl1S1\OHZDE\09-Apr-2025\0\\#t hf
  aug-cc-pvdz iop(5/13=1,5/36=2,99/5=2) pseudo=read geom=check guess=(r
 ead,tcheck) scf=(maxcycle=1)\\title\\0,1\Cl,0,1.840376,-0.715655,0.005
 171\S,0,0.632044,0.943354,-0.360743\C,0,-0.712423,0.666549,0.842632\C,
 0,-1.626556,-0.531452,0.579001\H,0,-0.268304,0.627437,1.838881\C,0,-2.
 429706,-0.443077,-0.719656\H,0,-2.310443,-0.606899,1.432887\H,0,-1.025
 001,-1.445251,0.589093\H,0,-3.073118,0.442625,-0.728323\H,0,-3.07039,-
 1.320073,-0.838287\H,0,-1.268009,1.610954,0.767547\H,0,-1.771736,-0.38

 Normal termination of Gaussian 16 at Wed Apr  9 00:17:08 2025.
