 Gaussian 16, Revision C.01,

 ----------------------------------------------------------------------
 #t hf aug-cc-pvdz symm=none int=(grid=ultrafine) guess=(read,tcheck) s
 table=(opt,rrhf)
 ----------------------------------------------------------------------
 -----
 title
 -----
 Symbolic Z-matrix:
 Charge =  0 Multiplicity = 1

 SCF Done:  E(RHF) =  -1171.02749767     A.U. after   13 cycles
 Normal termination of Gaussian 16 at Tue Apr  8 23:51:27 2025.
 Gaussian 16:  ES64L-G16RevC.01  3-Jul-2019

 ----------------------------------------------------------------------
 #t hf aug-cc-pvdz iop(5/13=1,5/36=2,99/5=2) pseudo=read geom=check gue
 ss=(read,tcheck) scf=(maxcycle=1)
 ----------------------------------------------------------------------
 -----
 title
 -----
 Structure from the checkpoint file:  "BDE49_nonexpt_188_mol1.chk"
 Charge =  0 Multiplicity = 1

                         Standard orientation:
 ---------------------------------------------------------------------
 Center     Atomic      Atomic             Coordinates (Angstroms)
 Number     Number       Type             X           Y           Z
 ---------------------------------------------------------------------
      1         17           0        1.561880   -1.520351   -0.121082
      2         17           0        1.561796    1.520392   -0.121080
      3          5           0        0.707629   -0.000003    0.014762
      4          6           0       -0.843368   -0.000048    0.351833
      5          8           0       -1.239010   -0.000008    1.493984
      6          8           0       -1.636333   -0.000028   -0.731354
      7          6           0       -3.060216   -0.000014   -0.479381
      8          1           0       -3.526980   -0.000002   -1.460932
      9          1           0       -3.344691    0.889364    0.084069
     10          1           0       -3.344711   -0.889396    0.084056
 ---------------------------------------------------------------------

 SCF Done:  E(RHF) =  -1172.57775418     A.U. after    2 cycles

 The electronic state is 1-A.
 Alpha  occ. eigenvalues --  -99.91968 -99.91949 -21.11056 -21.07018 -11.50120
 Alpha  occ. eigenvalues --  -11.42729 -10.49348 -10.49143  -9.69305  -9.69116
 Alpha  occ. eigenvalues --   -9.68762  -9.68678  -9.68600  -9.68498  -7.74249
 Alpha  occ. eigenvalues --   -1.85572  -1.67697  -1.41852  -1.31727  -1.05169
 Alpha  occ. eigenvalues --   -0.91452  -0.75436  -0.69413  -0.67208  -0.63064
 Alpha  occ. eigenvalues --   -0.60292  -0.59822  -0.57162  -0.54148  -0.52842
 Alpha  occ. eigenvalues --   -0.52116  -0.50542  -0.42303  -0.33573  -0.30906
 Alpha virt. eigenvalues --    0.03105   0.03982   0.04653   0.04723   0.05004
 Alpha virt. eigenvalues --    0.06084   0.06629   0.07380   0.10513   0.11950
 Alpha virt. eigenvalues --    0.12419   0.13378   0.14257   0.15934   0.16232

 Mulliken charges:
               1
     1  Cl  -1.264809
     2  Cl  -1.264785
     3  B    3.338748
     4  C    3.493366
     5  O   -2.665332
     6  O   -2.908267
     7  C   -2.767434
     8  H    1.329543
     9  H    1.354480
    10  H    1.354489
 Sum of Mulliken charges =  -0.00000

 Dipole moment (field-independent basis, Debye):
    X=             -1.6245    Y=              0.0000    Z=             -0.9318  Tot=              1.8728

 Test job not archived.
 1\1\GINC-SE341\SP\RHF\Aug-CC-pVDZ\C2H3B1Cl2O2\OHZDE\08-Apr-2025\0\\#t
 hf aug-cc-pvdz iop(5/13=1,5/36=2,99/5=2) pseudo=read geom=check guess=
 (read,tcheck) scf=(maxcycle=1)\\title\\0,1\Cl,0,-1.56188,1.520351,-0.1
 21082\Cl,0,-1.561796,-1.520392,-0.12108\B,0,-0.707629,0.000003,0.01476
 2\C,0,0.843368,0.000048,0.351833\O,0,1.23901,0.000008,1.493984\O,0,1.6
 36333,0.000028,-0.731354\C,0,3.060216,0.000014,-0.479381\H,0,3.52698,0
 .000001,-1.460932\H,0,3.344691,-0.889365,0.084069\H,0,3.344711,0.88939
 5,0.084056\\Version=ES64L-G16RevC.01\State=1-A\HF=-1172.5777542\RMSD=5

 Normal termination of Gaussian 16 at Tue Apr  8 23:51:31 2025.
