 Gaussian 16, Revision C.01,

 ----------------------------------------------------------------------
 #t hf aug-cc-pvdz symm=none int=(grid=ultrafine) guess=(read,tcheck) s
 table=(opt,rrhf)
 ----------------------------------------------------------------------
 -----
 title
 -----
 Symbolic Z-matrix:
 Charge =  0 Multiplicity = 1

 SCF Done:  E(RHF) =  -1144.83305992     A.U. after   13 cycles
 Normal termination of Gaussian 16 at Tue Apr  8 23:24:15 2025.
 Gaussian 16:  ES64L-G16RevC.01  3-Jul-2019

 ----------------------------------------------------------------------
 #t hf aug-cc-pvdz iop(5/13=1,5/36=2,99/5=2) pseudo=read geom=check gue
 ss=(read,tcheck) scf=(maxcycle=1)
 ----------------------------------------------------------------------
 -----
 title
 -----
 Structure from the checkpoint file:  "BDE49_nonexpt_1216_mol1.chk"
 Charge =  0 Multiplicity = 1

                         Standard orientation:
 ---------------------------------------------------------------------
 Center     Atomic      Atomic             Coordinates (Angstroms)
 Number     Number       Type             X           Y           Z
 ---------------------------------------------------------------------
      1          6           0        1.746441   -0.167304    0.002094
      2         16           0        0.502703    1.171973    0.023125
      3          9           0        2.860436    0.421278   -0.468907
      4          9           0        1.430174   -1.188995   -0.794601
      5          9           0        1.989760   -0.657493    1.217931
      6          8           0       -0.759195    0.335115    0.799740
      7          6           0       -1.795091   -0.106893    0.009222
      8          9           0       -2.678925   -0.665108    0.827686
      9          9           0       -1.403673   -1.010278   -0.893749
     10          9           0       -2.384193    0.902006   -0.647897
 ---------------------------------------------------------------------

 SCF Done:  E(RHF) =  -1147.69474777     A.U. after    2 cycles

 The electronic state is 1-A.
 Alpha  occ. eigenvalues --  -75.79781 -29.34744 -29.34226 -29.34071 -29.33759
 Alpha  occ. eigenvalues --  -29.33665 -29.33554 -21.15052 -13.26623 -13.21009
 Alpha  occ. eigenvalues --  -13.14495 -11.63483 -11.62271  -8.13626  -1.90105
 Alpha  occ. eigenvalues --   -1.46149  -1.36704  -1.11580  -0.95218  -0.94440
 Alpha  occ. eigenvalues --   -0.92755  -0.92064  -0.77327  -0.70005  -0.52770
 Alpha  occ. eigenvalues --   -0.51956  -0.50851  -0.48912  -0.47186  -0.46456
 Alpha  occ. eigenvalues --   -0.45732  -0.44533  -0.40766  -0.40141  -0.37278
 Alpha  occ. eigenvalues --   -0.36223  -0.35576  -0.31872  -0.29372  -0.28907
 Alpha  occ. eigenvalues --   -0.27859  -0.25856  -0.24308  -0.23926  -0.23673
 Alpha virt. eigenvalues --    0.06865   0.09173   0.09791   0.10895   0.12011
 Alpha virt. eigenvalues --    0.12302   0.12966   0.13488   0.14316   0.15293
 Alpha virt. eigenvalues --    0.17617   0.18844   0.19907   0.21261   0.22126

 Mulliken charges:
               1
     1  C   -1.692876
     2  S    0.666422
     3  F    0.615199
     4  F    0.529912
     5  F    0.470198
     6  O   -2.500062
     7  C    0.276677
     8  F    0.596925
     9  F    0.543002
    10  F    0.494604
 Sum of Mulliken charges =   0.00000

 Dipole moment (field-independent basis, Debye):
    X=              0.3108    Y=             -1.6825    Z=             -1.6451  Tot=              2.3736

 Test job not archived.
 1\1\GINC-SE165\SP\RHF\Aug-CC-pVDZ\C2F6O1S1\OHZDE\08-Apr-2025\0\\#t hf
 aug-cc-pvdz iop(5/13=1,5/36=2,99/5=2) pseudo=read geom=check guess=(re
 ad,tcheck) scf=(maxcycle=1)\\title\\0,1\C,0,1.746441,-0.167304,0.00209
 4\S,0,0.502703,1.171973,0.023125\F,0,2.860436,0.421278,-0.468907\F,0,1
 .430174,-1.188995,-0.794601\F,0,1.98976,-0.657493,1.217931\O,0,-0.7591
 95,0.335115,0.79974\C,0,-1.795091,-0.106893,0.009222\F,0,-2.678925,-0.
 665108,0.827686\F,0,-1.403673,-1.010278,-0.893749\F,0,-2.384193,0.9020
 06,-0.647897\\Version=ES64L-G16RevC.01\State=1-A\HF=-1147.6947478\RMSD

 Normal termination of Gaussian 16 at Tue Apr  8 23:24:22 2025.
