 Gaussian 16, Revision C.01,

 ----------------------------------------------------------------------
 #t hf aug-cc-pvdz symm=none int=(grid=ultrafine) guess=(read,tcheck) s
 table=(opt,rrhf)
 ----------------------------------------------------------------------
 -----
 title
 -----
 Symbolic Z-matrix:
 Charge =  0 Multiplicity = 1

 SCF Done:  E(RHF) =  -377.517849896     A.U. after   17 cycles
 Normal termination of Gaussian 16 at Tue Apr  8 23:09:38 2025.
 Gaussian 16:  ES64L-G16RevC.01  3-Jul-2019

 ----------------------------------------------------------------------
 #t hf aug-cc-pvdz iop(5/13=1,5/36=2,99/5=2) pseudo=read geom=check gue
 ss=(read,tcheck) scf=(maxcycle=1)
 ----------------------------------------------------------------------
 -----
 title
 -----
 Structure from the checkpoint file:  "BDE49_expt_461_mol1.chk"
 Charge =  0 Multiplicity = 1

                         Standard orientation:
 ---------------------------------------------------------------------
 Center     Atomic      Atomic             Coordinates (Angstroms)
 Number     Number       Type             X           Y           Z
 ---------------------------------------------------------------------
      1          6           0       -0.387824   -1.207980   -0.002378
      2          6           0        0.995468   -1.208894   -0.004298
      3          6           0        1.715590   -0.000001   -0.004099
      4          6           0       -1.103301    0.000001   -0.000890
      5          6           0       -0.387823    1.207981   -0.002378
      6          6           0        0.995468    1.208894   -0.004298
      7          1           0       -0.928027   -2.146829   -0.000662
      8          1           0        1.532887   -2.151190   -0.009464
      9          7           0        3.095745   -0.000001   -0.057448
     10          1           0        3.566981   -0.844484    0.226518
     11          6           0       -2.529523    0.000002    0.003740
     12          7           0       -3.686034   -0.000002    0.008137
     13          1           0        1.532889    2.151189   -0.009464
     14          1           0       -0.928025    2.146830   -0.000662
     15          1           0        3.566981    0.844482    0.226520
 ---------------------------------------------------------------------

 SCF Done:  E(RHF) =  -379.272719954     A.U. after    2 cycles

 The electronic state is 1-A.
 Alpha  occ. eigenvalues --  -15.78457 -15.74800 -11.54876 -11.47997 -11.46480
 Alpha  occ. eigenvalues --  -11.45962 -11.42540 -11.42494 -11.38863  -1.44174
 Alpha  occ. eigenvalues --   -1.33062  -1.25873  -1.12006  -1.09475  -0.90366
 Alpha  occ. eigenvalues --   -0.89996  -0.76781  -0.71071  -0.70375  -0.62544
 Alpha  occ. eigenvalues --   -0.60347  -0.58371  -0.56416  -0.53836  -0.49980
 Alpha  occ. eigenvalues --   -0.48049  -0.47719  -0.41996  -0.41719  -0.35743
 Alpha  occ. eigenvalues --   -0.28700
 Alpha virt. eigenvalues --    0.02614   0.04143   0.04258   0.06504   0.06544
 Alpha virt. eigenvalues --    0.08209   0.08791   0.09812   0.10530   0.11014
 Alpha virt. eigenvalues --    0.11771   0.12224   0.12249   0.12808   0.13185

 Mulliken charges:
               1
     1  C   -1.777760
     2  C   -1.729517
     3  C    0.759342
     4  C    4.840515
     5  C   -1.777731
     6  C   -1.729527
     7  H    1.783049
     8  H    1.719977
     9  N   -4.117946
    10  H    0.655886
    11  C   -0.557094
    12  N   -2.228106
    13  H    1.719975
    14  H    1.783051
    15  H    0.655886
 Sum of Mulliken charges =   0.00000

 Dipole moment (field-independent basis, Debye):
    X=              6.1540    Y=              0.0000    Z=              0.6408  Tot=              6.1873

 Test job not archived.
 1\1\GINC-SE096\SP\RHF\Aug-CC-pVDZ\C7H6N2\OHZDE\08-Apr-2025\0\\#t hf au
 g-cc-pvdz iop(5/13=1,5/36=2,99/5=2) pseudo=read geom=check guess=(read
 ,tcheck) scf=(maxcycle=1)\\title\\0,1\C,0,0.387824,1.20798,-0.002378\C
 ,0,-0.995468,1.208894,-0.004298\C,0,-1.71559,0.000001,-0.004099\C,0,1.
 103301,-0.000001,-0.00089\C,0,0.387823,-1.207981,-0.002378\C,0,-0.9954
 68,-1.208894,-0.004298\H,0,0.928027,2.146829,-0.000662\H,0,-1.532887,2
 .15119,-0.009464\N,0,-3.095745,0.000001,-0.057448\H,0,-3.566981,0.8444
 84,0.226518\C,0,2.529523,-0.000002,0.00374\N,0,3.686034,0.000002,0.008

 Normal termination of Gaussian 16 at Tue Apr  8 23:09:45 2025.
