 Gaussian 16, Revision C.01,

 ----------------------------------------------------------------------
 #t hf aug-cc-pvdz symm=none int=(grid=ultrafine) guess=(read,tcheck) s
 table=(opt,rrhf)
 ----------------------------------------------------------------------
 -----
 title
 -----
 Symbolic Z-matrix:
 Charge =  0 Multiplicity = 1

 SCF Done:  E(RHF) =  -589.497309456     A.U. after   13 cycles
 Normal termination of Gaussian 16 at Tue Apr  8 23:05:46 2025.
 Gaussian 16:  ES64L-G16RevC.01  3-Jul-2019

 ----------------------------------------------------------------------
 #t hf aug-cc-pvdz iop(5/13=1,5/36=2,99/5=2) pseudo=read geom=check gue
 ss=(read,tcheck) scf=(maxcycle=1)
 ----------------------------------------------------------------------
 -----
 title
 -----
 Structure from the checkpoint file:  "BDE49_expt_384_mol1.chk"
 Charge =  0 Multiplicity = 1

                         Standard orientation:
 ---------------------------------------------------------------------
 Center     Atomic      Atomic             Coordinates (Angstroms)
 Number     Number       Type             X           Y           Z
 ---------------------------------------------------------------------
      1          8           0        1.218675   -0.718831   -0.308614
      2          6           0        1.297701    0.590639    0.238123
      3          6           0        0.001843    1.318050   -0.133930
      4          1           0        2.180640    1.063466   -0.193811
      5          1           0        1.408835    0.546154    1.330434
      6         16           0       -1.302039    0.029570    0.016846
      7          1           0        0.032558    1.686480   -1.159374
      8          1           0       -0.213460    2.141111    0.547679
      9          6           0        0.008624   -1.303804    0.089626
     10          1           0        0.058067   -1.682505    1.116515
     11          1           0       -0.232421   -2.106485   -0.604973
 ---------------------------------------------------------------------

 SCF Done:  E(RHF) =  -590.616157642     A.U. after    2 cycles

 The electronic state is 1-A.
 Alpha  occ. eigenvalues --  -75.67230 -21.06349 -13.10247 -13.09044 -13.00716
 Alpha  occ. eigenvalues --  -11.45988 -11.42789 -11.39383  -8.01265  -1.78252
 Alpha  occ. eigenvalues --   -1.20278  -1.09438  -0.87968  -0.86399  -0.68903
 Alpha  occ. eigenvalues --   -0.65384  -0.62700  -0.54685  -0.52139  -0.46620
 Alpha  occ. eigenvalues --   -0.41402  -0.35998  -0.30085  -0.22467
 Alpha virt. eigenvalues --    0.03439   0.04640   0.05533   0.05913   0.06271
 Alpha virt. eigenvalues --    0.06619   0.07499   0.11275   0.12047   0.12861
 Alpha virt. eigenvalues --    0.13955   0.14899   0.15270   0.16022   0.16516

 Mulliken charges:
               1
     1  O   -2.639076
     2  C   -1.368141
     3  C   -3.461664
     4  H    1.325446
     5  H    1.522349
     6  S    1.052879
     7  H    1.430344
     8  H    1.369696
     9  C   -2.081621
    10  H    1.417748
    11  H    1.432041
 Sum of Mulliken charges =  -0.00000

 Dipole moment (field-independent basis, Debye):
    X=             -0.2411    Y=              0.3623    Z=              0.1303  Tot=              0.4543

 Test job not archived.
 1\1\GINC-SE365\SP\RHF\Aug-CC-pVDZ\C3H6O1S1\OHZDE\08-Apr-2025\0\\#t hf
 aug-cc-pvdz iop(5/13=1,5/36=2,99/5=2) pseudo=read geom=check guess=(re
 ad,tcheck) scf=(maxcycle=1)\\title\\0,1\O,0,1.218674,-0.718832,-0.3086
 14\C,0,1.297701,0.590638,0.238123\C,0,0.001844,1.31805,-0.13393\H,0,2.
 180641,1.063464,-0.193811\H,0,1.408835,0.546153,1.330434\S,0,-1.302039
 ,0.029571,0.016846\H,0,0.03256,1.68648,-1.159374\H,0,-0.213458,2.14111
 1,0.547679\C,0,0.008623,-1.303804,0.089626\H,0,0.058065,-1.682505,1.11
 6515\H,0,-0.232423,-2.106485,-0.604973\\Version=ES64L-G16RevC.01\State

 Normal termination of Gaussian 16 at Tue Apr  8 23:05:49 2025.
