 Gaussian 16, Revision C.01,

 ----------------------------------------------------------------------
 #t hf aug-cc-pvdz symm=none int=(grid=ultrafine) guess=(read,tcheck) s
 table=(opt,rrhf)
 ----------------------------------------------------------------------
 -----
 title
 -----
 Symbolic Z-matrix:
 Charge =  0 Multiplicity = 1

 SCF Done:  E(RHF) =  -458.967948905     A.U. after   13 cycles
 Normal termination of Gaussian 16 at Tue Apr  8 23:58:53 2025.
 Gaussian 16:  ES64L-G16RevC.01  3-Jul-2019

 ----------------------------------------------------------------------
 #t hf aug-cc-pvdz iop(5/13=1,5/36=2,99/5=2) pseudo=read geom=check gue
 ss=(read,tcheck) scf=(maxcycle=1)
 ----------------------------------------------------------------------
 -----
 title
 -----
 Structure from the checkpoint file:  "BDE49_nonexpt_2064_mol1.chk"
 Charge =  0 Multiplicity = 1

                         Standard orientation:
 ---------------------------------------------------------------------
 Center     Atomic      Atomic             Coordinates (Angstroms)
 Number     Number       Type             X           Y           Z
 ---------------------------------------------------------------------
      1         14           0        1.668509    0.067536   -0.000002
      2          6           0       -0.127295   -0.470818    0.000007
      3          7           0       -1.027666    0.433895   -0.000006
      4          1           0       -0.426597   -1.524597    0.000024
      5          8           0       -2.316664   -0.110230    0.000004
      6          1           0       -2.879507    0.671712   -0.000008
      7          1           0        1.744268    1.541564   -0.000039
      8          1           0        2.346730   -0.482381   -1.197592
      9          1           0        2.346726   -0.482320    1.197618
 ---------------------------------------------------------------------

 SCF Done:  E(RHF) =  -459.863491489     A.U. after    2 cycles

 The electronic state is 1-A.
 Alpha  occ. eigenvalues --  -76.22646 -21.10386 -15.80012 -11.39567  -5.56198
 Alpha  occ. eigenvalues --   -2.20191  -2.18566  -2.18169  -1.79317  -1.25419
 Alpha  occ. eigenvalues --   -0.86372  -0.75752  -0.65375  -0.58060  -0.53440
 Alpha  occ. eigenvalues --   -0.47821  -0.47625  -0.46306  -0.35850  -0.31667
 Alpha virt. eigenvalues --    0.03972   0.05025   0.05601   0.06555   0.06771
 Alpha virt. eigenvalues --    0.07915   0.09486   0.09494   0.10696   0.14220
 Alpha virt. eigenvalues --    0.14880   0.15801   0.16642   0.17135   0.18287

 Mulliken charges:
               1
     1  Si   6.126076
     2  C   -1.273172
     3  N   -0.042339
     4  H    1.545254
     5  O   -2.353851
     6  H    0.896825
     7  H   -1.612634
     8  H   -1.643078
     9  H   -1.643081
 Sum of Mulliken charges =  -0.00000

 Dipole moment (field-independent basis, Debye):
    X=             -0.9877    Y=             -0.3525    Z=              0.0000  Tot=              1.0487

 Test job not archived.
 1\1\GINC-SE095\SP\RHF\Aug-CC-pVDZ\C1H5N1O1Si1\OHZDE\08-Apr-2025\0\\#t
 hf aug-cc-pvdz iop(5/13=1,5/36=2,99/5=2) pseudo=read geom=check guess=
 (read,tcheck) scf=(maxcycle=1)\\title\\0,1\Si,0,1.668509,0.067536,-0.0
 00002\C,0,-0.127295,-0.470818,0.000007\N,0,-1.027666,0.433895,-0.00000
 6\H,0,-0.426597,-1.524597,0.000024\O,0,-2.316664,-0.11023,0.000004\H,0
 ,-2.879507,0.671712,-0.000008\H,0,1.744268,1.541564,-0.000039\H,0,2.34
 673,-0.482381,-1.197592\H,0,2.346726,-0.48232,1.197618\\Version=ES64L-
 G16RevC.01\State=1-A\HF=-459.8634915\RMSD=8.378e-02\Dipole=-0.3885718,

 Normal termination of Gaussian 16 at Tue Apr  8 23:58:55 2025.
