 Gaussian 16, Revision C.01,

 ----------------------------------------------------------------------
 #t hf aug-cc-pvdz symm=none int=(grid=ultrafine) guess=(read,tcheck) s
 table=(opt,rrhf)
 ----------------------------------------------------------------------
 -----
 title
 -----
 Symbolic Z-matrix:
 Charge =  0 Multiplicity = 1

 SCF Done:  E(RHF) =  -914.688326065     A.U. after   12 cycles
 Normal termination of Gaussian 16 at Wed Apr  9 00:12:23 2025.
 Gaussian 16:  ES64L-G16RevC.01  3-Jul-2019

 ----------------------------------------------------------------------
 #t hf aug-cc-pvdz iop(5/13=1,5/36=2,99/5=2) pseudo=read geom=check gue
 ss=(read,tcheck) scf=(maxcycle=1)
 ----------------------------------------------------------------------
 -----
 title
 -----
 Structure from the checkpoint file:  "BDE49_nonexpt_2398_mol1.chk"
 Charge =  0 Multiplicity = 1

                         Standard orientation:
 ---------------------------------------------------------------------
 Center     Atomic      Atomic             Coordinates (Angstroms)
 Number     Number       Type             X           Y           Z
 ---------------------------------------------------------------------
      1         14           0        0.713821   -0.942113    0.000600
      2         14           0       -0.713831    0.942138    0.000614
      3          7           0       -2.345160    0.407504    0.000453
      4          1           0       -0.488843    1.771454   -1.204082
      5          1           0       -0.489086    1.771250    1.205486
      6          6           0       -3.454531   -0.038962   -0.000607
      7          8           0       -4.541614   -0.468736   -0.001210
      8          7           0        2.345149   -0.407477    0.000771
      9          1           0        0.489001   -1.771289   -1.204225
     10          1           0        0.488909   -1.771365    1.205344
     11          6           0        3.454528    0.038971   -0.000319
     12          8           0        4.541645    0.468656   -0.001606
 ---------------------------------------------------------------------

 SCF Done:  E(RHF) =  -916.381263905     A.U. after    2 cycles

 The electronic state is 1-A.
 Alpha  occ. eigenvalues --  -76.26877 -76.26872 -21.12329 -21.12328 -15.77180
 Alpha  occ. eigenvalues --  -15.77179 -11.60305 -11.60137  -5.60419  -5.60408
 Alpha  occ. eigenvalues --   -2.26099  -2.25754  -2.22245  -2.22016  -2.21594
 Alpha  occ. eigenvalues --   -2.20783  -1.77228  -1.77152  -1.36559  -1.36366
 Alpha  occ. eigenvalues --   -0.89412  -0.84520  -0.66393  -0.64792  -0.61395
 Alpha  occ. eigenvalues --   -0.61152  -0.61111  -0.61029  -0.59043  -0.58478
 Alpha  occ. eigenvalues --   -0.51346  -0.49292  -0.42654  -0.37802  -0.36932
 Alpha  occ. eigenvalues --   -0.36523  -0.32819
 Alpha virt. eigenvalues --    0.03710   0.03996   0.04564   0.06177   0.06674
 Alpha virt. eigenvalues --    0.07626   0.07714   0.08304   0.09028   0.09068
 Alpha virt. eigenvalues --    0.09308   0.09633   0.11858   0.12007   0.12081

 Mulliken charges:
               1
     1  Si   3.913899
     2  Si   3.913901
     3  N   -1.931861
     4  H   -1.559631
     5  H   -1.559547
     6  C    3.714696
     7  O   -2.577567
     8  N   -1.931825
     9  H   -1.559677
    10  H   -1.559494
    11  C    3.714690
    12  O   -2.577583
 Sum of Mulliken charges =  -0.00000

 Dipole moment (field-independent basis, Debye):
    X=              0.0000    Y=             -0.0000    Z=             -0.0017  Tot=              0.0017

 Test job not archived.
 1\1\GINC-SE186\SP\RHF\Aug-CC-pVDZ\C2H4N2O2Si2\OHZDE\09-Apr-2025\0\\#t
 hf aug-cc-pvdz iop(5/13=1,5/36=2,99/5=2) pseudo=read geom=check guess=
 (read,tcheck) scf=(maxcycle=1)\\title\\0,1\Si,0,-0.713821,0.942113,0.0
 006\Si,0,0.713831,-0.942138,0.000614\N,0,2.34516,-0.407504,0.000453\H,
 0,0.488843,-1.771454,-1.204082\H,0,0.489086,-1.77125,1.205486\C,0,3.45
 4531,0.038962,-0.000607\O,0,4.541614,0.468736,-0.00121\N,0,-2.345149,0
 .407477,0.000771\H,0,-0.489001,1.771289,-1.204225\H,0,-0.488909,1.7713
 65,1.205344\C,0,-3.454528,-0.038971,-0.000319\O,0,-4.541645,-0.468656,

 Normal termination of Gaussian 16 at Wed Apr  9 00:12:29 2025.
