 Gaussian 16, Revision C.01,

 ----------------------------------------------------------------------
 #t hf aug-cc-pvdz symm=none int=(grid=ultrafine) guess=(read,tcheck) s
 table=(opt,rrhf)
 ----------------------------------------------------------------------
 -----
 title
 -----
 Symbolic Z-matrix:
 Charge =  0 Multiplicity = 1

 SCF Done:  E(RHF) =  -2247.19693594     A.U. after   16 cycles
 Normal termination of Gaussian 16 at Wed Apr  9 00:14:29 2025.
 Gaussian 16:  ES64L-G16RevC.01  3-Jul-2019

 ----------------------------------------------------------------------
 #t hf aug-cc-pvdz iop(5/13=1,5/36=2,99/5=2) pseudo=read geom=check gue
 ss=(read,tcheck) scf=(maxcycle=1)
 ----------------------------------------------------------------------
 -----
 title
 -----
 Structure from the checkpoint file:  "BDE49_nonexpt_2442_mol1.chk"
 Charge =  0 Multiplicity = 1

                         Standard orientation:
 ---------------------------------------------------------------------
 Center     Atomic      Atomic             Coordinates (Angstroms)
 Number     Number       Type             X           Y           Z
 ---------------------------------------------------------------------
      1         14           0        1.096338    1.101221   -1.177684
      2         14           0       -0.974149    1.650431   -0.175006
      3          6           0       -1.974137    0.047475    0.091542
      4          1           0       -1.764638    2.519688   -1.072912
      5          1           0       -0.757688    2.332199    1.123410
      6         16           0       -2.441964   -0.830614   -1.213733
      7         16           0       -2.292972   -0.355685    1.757496
      8          6           0        1.998590   -0.142205   -0.058304
      9          1           0        1.934877    2.311211   -1.298845
     10          1           0        0.861439    0.505824   -2.515216
     11         16           0        2.807421    0.399977    1.261178
     12         16           0        1.904332   -1.858261   -0.398243
     13          1           0       -2.949141   -1.514257    1.533065
     14          1           0        1.188726   -1.796079   -1.538452
 ---------------------------------------------------------------------

 SCF Done:  E(RHF) =  -2248.75616226     A.U. after    2 cycles

 The electronic state is 1-A.
 Alpha  occ. eigenvalues --  -76.24817 -76.24758 -75.73873 -75.73331 -75.68688
 Alpha  occ. eigenvalues --  -75.68252 -13.19362 -13.17791 -13.16186 -13.15164
 Alpha  occ. eigenvalues --  -13.13795 -13.13075 -13.07231 -13.05688 -13.03898
 Alpha  occ. eigenvalues --  -13.02843 -13.01642 -13.00536 -11.47601 -11.46988
 Alpha  occ. eigenvalues --   -8.07922  -8.07332  -8.02731  -8.02302  -5.58362
 Alpha  occ. eigenvalues --   -5.58314  -2.22182  -2.21999  -2.20678  -2.20588
 Alpha  occ. eigenvalues --   -2.20194  -2.19055  -1.27854  -1.27048  -1.09890
 Alpha  occ. eigenvalues --   -1.09537  -0.87717  -0.83293  -0.73892  -0.69131
 Alpha  occ. eigenvalues --   -0.56861  -0.55786  -0.52674  -0.50665  -0.49661
 Alpha  occ. eigenvalues --   -0.46022  -0.44882  -0.43456  -0.41723  -0.40783
 Alpha  occ. eigenvalues --   -0.35709  -0.25220  -0.23861  -0.22279  -0.21625
 Alpha virt. eigenvalues --    0.02310   0.03086   0.03297   0.04464   0.05120
 Alpha virt. eigenvalues --    0.05293   0.05879   0.06697   0.07326   0.07428
 Alpha virt. eigenvalues --    0.07559   0.08103   0.08757   0.09038   0.09615

 Mulliken charges:
               1
     1  Si   4.609632
     2  Si   5.143231
     3  C   -2.187656
     4  H   -2.017446
     5  H   -1.721805
     6  S    0.497500
     7  S   -0.710399
     8  C   -2.318769
     9  H   -2.066746
    10  H   -1.646466
    11  S    0.760275
    12  S   -0.504009
    13  H    1.145407
    14  H    1.017250
 Sum of Mulliken charges =  -0.00000

 Dipole moment (field-independent basis, Debye):
    X=              0.7503    Y=             -1.4828    Z=              2.3554  Tot=              2.8826

 Test job not archived.
 1\1\GINC-SE424\SP\RHF\Aug-CC-pVDZ\C2H6S4Si2\OHZDE\09-Apr-2025\0\\#t hf
  aug-cc-pvdz iop(5/13=1,5/36=2,99/5=2) pseudo=read geom=check guess=(r
 ead,tcheck) scf=(maxcycle=1)\\title\\0,1\Si,0,1.096338,1.101221,-1.177
 684\Si,0,-0.974149,1.650431,-0.175006\C,0,-1.974137,0.047475,0.091542\
 H,0,-1.764638,2.519688,-1.072912\H,0,-0.757688,2.332199,1.12341\S,0,-2
 .441964,-0.830614,-1.213733\S,0,-2.292972,-0.355685,1.757496\C,0,1.998
 59,-0.142205,-0.058304\H,0,1.934877,2.311211,-1.298845\H,0,0.861439,0.
 505824,-2.515216\S,0,2.807421,0.399977,1.261178\S,0,1.904332,-1.858261

 Normal termination of Gaussian 16 at Wed Apr  9 00:14:36 2025.
