 Gaussian 16, Revision C.01,

 ----------------------------------------------------------------------
 #t hf aug-cc-pvdz symm=none int=(grid=ultrafine) guess=(read,tcheck) s
 table=(opt,rrhf)
 ----------------------------------------------------------------------
 -----
 title
 -----
 Symbolic Z-matrix:
 Charge =  0 Multiplicity = 1

 SCF Done:  E(RHF) =  -1466.17088403     A.U. after   13 cycles

 1\1\GINC-SE221\Stability\RHF\Aug-CC-pVDZ\Cl2O2S1\OHZDE\08-Apr-2025\0\\
 #t hf aug-cc-pvdz symm=none int=(grid=ultrafine) guess=(read,tcheck) s
 table=(opt,rrhf)\\title\\0,1\S,0,-0.000001,0.52507,0.\Cl,0,-0.000001,-
 0.809411,1.591676\Cl,0,-0.000001,-0.809411,-1.591676\O,0,-1.258337,1.1
 94936,0.\O,0,1.25834,1.194921,0.\\Version=ES64L-G16RevC.01\HF=-1466.17
 0884\RMSD=3.337e-09\Dipole=-0.0000018,-0.7876412,0.\Quadrupole=-3.0695
 785,-0.332729,3.4023074,0.0000099,0.,0.\PG=Unknown\\@
 The archive entry for this job was punched.

 Normal termination of Gaussian 16 at Tue Apr  8 23:01:38 2025.
 Gaussian 16:  ES64L-G16RevC.01  3-Jul-2019

 ----------------------------------------------------------------------
 #t hf aug-cc-pvdz iop(5/13=1,5/36=2,99/5=2) pseudo=read geom=check gue
 ss=(read,tcheck) scf=(maxcycle=1)
 ----------------------------------------------------------------------
 -----
 title
 -----
 Structure from the checkpoint file:  "BDE49_expt_1977_mol1.chk"
 Charge =  0 Multiplicity = 1

                         Standard orientation:
 ---------------------------------------------------------------------
 Center     Atomic      Atomic             Coordinates (Angstroms)
 Number     Number       Type             X           Y           Z
 ---------------------------------------------------------------------
      1         16           0       -0.000001    0.525070   -0.000000
      2         17           0       -0.000001   -0.809411    1.591676
      3         17           0       -0.000001   -0.809411   -1.591676
      4          8           0       -1.258337    1.194936   -0.000000
      5          8           0        1.258340    1.194921   -0.000000
 ---------------------------------------------------------------------

 SCF Done:  E(RHF) =  -1467.53861056     A.U. after    2 cycles

 The electronic state is 1-A'.
 Alpha  occ. eigenvalues --  -99.95999 -99.95982 -75.99664 -21.12820 -21.12818
 Alpha  occ. eigenvalues --  -13.63401 -13.45873 -13.35365 -10.53311 -10.53255
 Alpha  occ. eigenvalues --   -9.72988  -9.72930  -9.72281  -9.72231  -9.72222
 Alpha  occ. eigenvalues --   -9.72162  -8.34577  -1.90869  -1.72126  -1.38875
 Alpha  occ. eigenvalues --   -1.35036  -0.99776  -0.74443  -0.68110  -0.63412
 Alpha  occ. eigenvalues --   -0.60323  -0.60007  -0.56131  -0.49605  -0.48366
 Alpha  occ. eigenvalues --   -0.47914  -0.44784  -0.42152
 Alpha virt. eigenvalues --   -0.00971   0.05227   0.06637   0.08362   0.09809
 Alpha virt. eigenvalues --    0.10681   0.11257   0.12348   0.14762   0.15034
 Alpha virt. eigenvalues --    0.15982   0.16036   0.16784   0.18741   0.19957

 Mulliken charges:
               1
     1  S    3.886543
     2  Cl  -0.011842
     3  Cl  -0.011842
     4  O   -1.931429
     5  O   -1.931431
 Sum of Mulliken charges =  -0.00000

 Dipole moment (field-independent basis, Debye):
    X=             -0.0000    Y=              1.0818    Z=              0.0000  Tot=              1.0818

 Test job not archived.
 1\1\GINC-SE221\SP\RHF\Aug-CC-pVDZ\Cl2O2S1\OHZDE\08-Apr-2025\0\\#t hf a
 ug-cc-pvdz iop(5/13=1,5/36=2,99/5=2) pseudo=read geom=check guess=(rea
 d,tcheck) scf=(maxcycle=1)\\title\\0,1\S,0,-0.000001,0.52507,0.\Cl,0,-
 0.000001,-0.809411,1.591676\Cl,0,-0.000001,-0.809411,-1.591676\O,0,-1.
 258337,1.194936,0.\O,0,1.25834,1.194921,0.\\Version=ES64L-G16RevC.01\S
 tate=1-A'\HF=-1467.5386106\RMSD=4.873e-02\Dipole=-0.000003,0.4256286,0
 .\Quadrupole=-1.1572064,0.6275471,0.5296593,-0.0000169,0.,0.\PG=CS [SG
 (O2S1),X(Cl2)]\\@

 Normal termination of Gaussian 16 at Tue Apr  8 23:01:40 2025.
