 Gaussian 16, Revision C.01,

 ----------------------------------------------------------------------
 #t hf aug-cc-pvdz symm=none int=(grid=ultrafine) guess=(read,tcheck) s
 table=(opt,rrhf)
 ----------------------------------------------------------------------
 -----
 title
 -----
 Symbolic Z-matrix:
 Charge =  0 Multiplicity = 1

 SCF Done:  E(RHF) =  -1261.33866781     A.U. after   13 cycles
 Normal termination of Gaussian 16 at Wed Apr  9 00:14:21 2025.
 Gaussian 16:  ES64L-G16RevC.01  3-Jul-2019

 ----------------------------------------------------------------------
 #t hf aug-cc-pvdz iop(5/13=1,5/36=2,99/5=2) pseudo=read geom=check gue
 ss=(read,tcheck) scf=(maxcycle=1)
 ----------------------------------------------------------------------
 -----
 title
 -----
 Structure from the checkpoint file:  "BDE49_nonexpt_2449_mol1.chk"
 Charge =  0 Multiplicity = 1

                         Standard orientation:
 ---------------------------------------------------------------------
 Center     Atomic      Atomic             Coordinates (Angstroms)
 Number     Number       Type             X           Y           Z
 ---------------------------------------------------------------------
      1         14           0        2.737773    0.980256    0.126672
      2         14           0        1.731225   -1.043237   -0.551975
      3         15           0       -0.961921   -0.099299    0.346034
      4          8           0       -1.797828    0.033876   -0.992866
      5          8           0       -1.965134   -0.897466    1.305452
      6          1           0       -1.811258   -0.677824    2.231630
      7          8           0       -0.433118    1.137743    0.934911
      8          8           0        0.115015   -1.163087   -0.075169
      9          1           0        2.395543   -2.212957    0.062551
     10          1           0        1.763423   -1.199304   -2.023754
     11          1           0        2.155950    2.147669   -0.567436
     12          1           0        4.164305    0.857984   -0.278611
     13          6           0       -2.892399    0.971790   -1.059820
     14          1           0       -3.199413    1.005124   -2.102923
     15          1           0       -2.565490    1.959945   -0.731525
     16          1           0       -3.720784    0.622784   -0.439989
     17          1           0        2.683486    1.148538    1.594079
 ---------------------------------------------------------------------

 SCF Done:  E(RHF) =  -1263.29963440     A.U. after    2 cycles

 The electronic state is 1-A.
 Alpha  occ. eigenvalues -- -105.32517 -76.25266 -76.21454 -21.11764 -21.08504
 Alpha  occ. eigenvalues --  -21.08359 -21.02431 -11.42822  -5.58689  -5.54803
 Alpha  occ. eigenvalues --   -2.96135  -2.24729  -2.20344  -2.19897  -2.16976
 Alpha  occ. eigenvalues --   -2.16870  -2.16040  -2.00562  -1.93202  -1.92517
 Alpha  occ. eigenvalues --   -1.74954  -1.42772  -1.39805  -1.26126  -0.98278
 Alpha  occ. eigenvalues --   -0.80475  -0.72788  -0.66647  -0.63286  -0.61692
 Alpha  occ. eigenvalues --   -0.57848  -0.52466  -0.51646  -0.49724  -0.46979
 Alpha  occ. eigenvalues --   -0.46383  -0.44455  -0.42020  -0.38521  -0.36320
 Alpha  occ. eigenvalues --   -0.34425  -0.33692  -0.30012  -0.27535  -0.16927
 Alpha virt. eigenvalues --    0.03499   0.04940   0.05258   0.05553   0.06270
 Alpha virt. eigenvalues --    0.06708   0.06819   0.07818   0.08146   0.08432
 Alpha virt. eigenvalues --    0.09483   0.10006   0.10069   0.10565   0.11051

 Mulliken charges:
               1
     1  Si   4.496943
     2  Si   4.987158
     3  P    9.760853
     4  O   -3.321526
     5  O   -2.714767
     6  H    0.835274
     7  O   -2.773172
     8  O   -4.144911
     9  H   -1.765467
    10  H   -1.764879
    11  H   -1.496264
    12  H   -1.554287
    13  C   -2.995053
    14  H    1.305408
    15  H    1.317052
    16  H    1.388432
    17  H   -1.560795
 Sum of Mulliken charges =  -0.00000

 Dipole moment (field-independent basis, Debye):
    X=             -2.4798    Y=             -1.5742    Z=             -0.5254  Tot=              2.9838

 Test job not archived.
 1\1\GINC-SE331\SP\RHF\Aug-CC-pVDZ\C1H9O4P1Si2\OHZDE\09-Apr-2025\0\\#t
 hf aug-cc-pvdz iop(5/13=1,5/36=2,99/5=2) pseudo=read geom=check guess=
 (read,tcheck) scf=(maxcycle=1)\\title\\0,1\Si,0,2.737773,0.980256,0.12
 6672\Si,0,1.731225,-1.043237,-0.551975\P,0,-0.961921,-0.099299,0.34603
 4\O,0,-1.797828,0.033876,-0.992866\O,0,-1.965134,-0.897466,1.305452\H,
 0,-1.811258,-0.677824,2.23163\O,0,-0.433118,1.137743,0.934911\O,0,0.11
 5015,-1.163087,-0.075169\H,0,2.395543,-2.212957,0.062551\H,0,1.763423,
 -1.199304,-2.023754\H,0,2.15595,2.147669,-0.567436\H,0,4.164305,0.8579

 Normal termination of Gaussian 16 at Wed Apr  9 00:14:28 2025.
