 Gaussian 16, Revision C.01,

 ----------------------------------------------------------------------
 #t hf aug-cc-pvdz symm=none int=(grid=ultrafine) guess=(read,tcheck) s
 table=(opt,rrhf)
 ----------------------------------------------------------------------
 -----
 title
 -----
 Symbolic Z-matrix:
 Charge =  0 Multiplicity = 1

 SCF Done:  E(RHF) =  -411.927197965     A.U. after   13 cycles
 Normal termination of Gaussian 16 at Wed Apr  9 00:32:14 2025.
 Gaussian 16:  ES64L-G16RevC.01  3-Jul-2019

 ----------------------------------------------------------------------
 #t hf aug-cc-pvdz iop(5/13=1,5/36=2,99/5=2) pseudo=read geom=check gue
 ss=(read,tcheck) scf=(maxcycle=1)
 ----------------------------------------------------------------------
 -----
 title
 -----
 Structure from the checkpoint file:  "BDE49_nonexpt_377_mol1.chk"
 Charge =  0 Multiplicity = 1

                         Standard orientation:
 ---------------------------------------------------------------------
 Center     Atomic      Atomic             Coordinates (Angstroms)
 Number     Number       Type             X           Y           Z
 ---------------------------------------------------------------------
      1          9           0       -1.536244   -1.055271    0.000088
      2          9           0       -1.358676    1.201269    0.000032
      3          5           0       -0.782718    0.019426   -0.000104
      4          6           0        0.811374   -0.145235   -0.000131
      5          8           0        1.372934   -1.211522    0.000002
      6          8           0        1.462776    1.038849    0.000013
      7          1           0        2.413946    0.841688    0.000101
 ---------------------------------------------------------------------

 SCF Done:  E(RHF) =  -413.462975581     A.U. after    2 cycles

 The electronic state is 1-A.
 Alpha  occ. eigenvalues --  -29.28552 -29.28170 -21.14452 -21.08794 -11.50788
 Alpha  occ. eigenvalues --   -7.74174  -1.84896  -1.67666  -1.19317  -0.87415
 Alpha  occ. eigenvalues --   -0.78736  -0.67254  -0.62285  -0.59439  -0.51314
 Alpha  occ. eigenvalues --   -0.51031  -0.49405  -0.46374  -0.36897  -0.35859
 Alpha  occ. eigenvalues --   -0.35674  -0.35567  -0.26039
 Alpha virt. eigenvalues --    0.03369   0.03790   0.05134   0.05967   0.06779
 Alpha virt. eigenvalues --    0.09903   0.11090   0.14033   0.14138   0.15126
 Alpha virt. eigenvalues --    0.17465   0.19042   0.21073   0.21500   0.21831

 Mulliken charges:
               1
     1  F    0.215244
     2  F    0.042990
     3  B    1.599285
     4  C    1.784616
     5  O   -2.241732
     6  O   -2.172036
     7  H    0.771633
 Sum of Mulliken charges =  -0.00000

 Dipole moment (field-independent basis, Debye):
    X=             -2.3815    Y=              1.1150    Z=              0.0005  Tot=              2.6296

 Test job not archived.
 1\1\GINC-SE073\SP\RHF\Aug-CC-pVDZ\C1H1B1F2O2\OHZDE\09-Apr-2025\0\\#t h
 f aug-cc-pvdz iop(5/13=1,5/36=2,99/5=2) pseudo=read geom=check guess=(
 read,tcheck) scf=(maxcycle=1)\\title\\0,1\F,0,1.536244,-1.055271,-0.00
 0088\F,0,1.358676,1.201269,-0.000032\B,0,0.782718,0.019426,0.000104\C,
 0,-0.811374,-0.145235,0.000131\O,0,-1.372934,-1.211522,-0.000002\O,0,-
 1.462776,1.038849,-0.000013\H,0,-2.413946,0.841688,-0.000101\\Version=
 ES64L-G16RevC.01\State=1-A\HF=-413.4629756\RMSD=2.671e-01\Dipole=0.936
 9416,0.4386939,-0.0001928\Quadrupole=2.0442585,0.4733748,-2.5176333,-1

 Normal termination of Gaussian 16 at Wed Apr  9 00:32:16 2025.
