 Gaussian 16, Revision C.01,

 ----------------------------------------------------------------------
 #t hf aug-cc-pvdz symm=none int=(grid=ultrafine) guess=(read,tcheck) s
 table=(opt,rrhf)
 ----------------------------------------------------------------------
 -----
 title
 -----
 Symbolic Z-matrix:
 Charge =  0 Multiplicity = 1

 SCF Done:  E(RHF) =  -671.625992427     A.U. after   11 cycles
 Normal termination of Gaussian 16 at Tue Apr  8 23:42:13 2025.
 Gaussian 16:  ES64L-G16RevC.01  3-Jul-2019

 ----------------------------------------------------------------------
 #t hf aug-cc-pvdz iop(5/13=1,5/36=2,99/5=2) pseudo=read geom=check gue
 ss=(read,tcheck) scf=(maxcycle=1)
 ----------------------------------------------------------------------
 -----
 title
 -----
 Structure from the checkpoint file:  "BDE49_nonexpt_1665_mol1.chk"
 Charge =  0 Multiplicity = 1

                         Standard orientation:
 ---------------------------------------------------------------------
 Center     Atomic      Atomic             Coordinates (Angstroms)
 Number     Number       Type             X           Y           Z
 ---------------------------------------------------------------------
      1         15           0       -1.600893   -0.153498    0.000001
      2         14           0        0.546161    0.620802   -0.000001
      3          6           0        1.881397   -0.704071    0.000000
      4          1           0        1.800965   -1.340700    0.884842
      5          1           0        2.875123   -0.246064   -0.000002
      6          1           0        1.800964   -1.340702   -0.884842
      7          1           0       -1.379673   -1.099948    1.036346
      8          1           0       -1.379674   -1.099950   -1.036343
      9          1           0        0.680531    1.481517    1.201238
     10          1           0        0.680530    1.481516   -1.201240
 ---------------------------------------------------------------------

 SCF Done:  E(RHF) =  -672.206498266     A.U. after    2 cycles

 The electronic state is 1-A.
 Alpha  occ. eigenvalues -- -105.16899 -76.22030 -11.35606  -5.55600  -2.73780
 Alpha  occ. eigenvalues --   -2.18857  -2.17546  -2.17078  -1.43058  -1.42731
 Alpha  occ. eigenvalues --   -1.41250  -1.04405  -0.76960  -0.66230  -0.56802
 Alpha  occ. eigenvalues --   -0.56131  -0.46780  -0.42809  -0.25747  -0.15307
 Alpha  occ. eigenvalues --   -0.03714
 Alpha virt. eigenvalues --    0.03786   0.05653   0.06216   0.06329   0.07302
 Alpha virt. eigenvalues --    0.08044   0.08267   0.08419   0.09427   0.11034
 Alpha virt. eigenvalues --    0.11893   0.12046   0.13257   0.16026   0.16724

 Mulliken charges:
               1
     1  P    1.139170
     2  Si   5.176162
     3  C   -4.724658
     4  H    1.145826
     5  H    1.306027
     6  H    1.145825
     7  H   -0.744828
     8  H   -0.744827
     9  H   -1.849348
    10  H   -1.849350
 Sum of Mulliken charges =  -0.00000

 Dipole moment (field-independent basis, Debye):
    X=             -5.9766    Y=              1.7993    Z=              0.0000  Tot=              6.2416

 Test job not archived.
 1\1\GINC-SE453\SP\RHF\Aug-CC-pVDZ\C1H7P1Si1\OHZDE\08-Apr-2025\0\\#t hf
  aug-cc-pvdz iop(5/13=1,5/36=2,99/5=2) pseudo=read geom=check guess=(r
 ead,tcheck) scf=(maxcycle=1)\\title\\0,1\P,0,1.600893,-0.153498,-0.000
 001\Si,0,-0.546161,0.620802,0.000001\C,0,-1.881397,-0.704071,0.\H,0,-1
 .800965,-1.3407,-0.884842\H,0,-2.875123,-0.246064,0.000002\H,0,-1.8009
 64,-1.340702,0.884842\H,0,1.379673,-1.099948,-1.036346\H,0,1.379674,-1
 .09995,1.036343\H,0,-0.680531,1.481517,-1.201238\H,0,-0.68053,1.481516
 ,1.20124\\Version=ES64L-G16RevC.01\State=1-A\HF=-672.2064983\RMSD=2.54

 Normal termination of Gaussian 16 at Tue Apr  8 23:42:15 2025.
