 Gaussian 16, Revision C.01,

 ----------------------------------------------------------------------
 #t hf aug-cc-pvdz symm=none int=(grid=ultrafine) guess=(read,tcheck) s
 table=opt
 ----------------------------------------------------------------------
 -----
 title
 -----
 Symbolic Z-matrix:
 Charge =  0 Multiplicity = 2

 SCF Done:  E(UHF) =  -1254.55313062     A.U. after   23 cycles
 Normal termination of Gaussian 16 at Tue Apr  8 23:01:38 2025.
 Gaussian 16:  ES64L-G16RevC.01  3-Jul-2019

 ----------------------------------------------------------------------
 #t hf aug-cc-pvdz iop(5/13=1,5/36=2,99/5=2) pseudo=read geom=check gue
 ss=(read,tcheck) scf=(maxcycle=1)
 ----------------------------------------------------------------------
 -----
 title
 -----
 Structure from the checkpoint file:  "BDE49_expt_1976_mol2.chk"
 Charge =  0 Multiplicity = 2

                         Standard orientation:
 ---------------------------------------------------------------------
 Center     Atomic      Atomic             Coordinates (Angstroms)
 Number     Number       Type             X           Y           Z
 ---------------------------------------------------------------------
      1         16           0        0.000000    0.781671    0.000000
      2         16           0        1.709416   -0.109200    0.000000
      3         17           0       -1.608862   -0.632914   -0.000000
 ---------------------------------------------------------------------

 SCF Done:  E(UHF) =  -1255.21170595     A.U. after    2 cycles

 The electronic state is 2-A".
 Alpha  occ. eigenvalues --  -99.91519 -75.80278 -75.75260 -13.17669 -13.13903
 Alpha  occ. eigenvalues --  -13.11983 -13.09352 -13.07504 -13.06156 -10.48536
 Alpha  occ. eigenvalues --   -9.68147  -9.67650  -9.67639  -8.14026  -8.09262
 Alpha  occ. eigenvalues --   -1.35678  -1.23284  -0.97952  -0.58002  -0.55933
 Alpha  occ. eigenvalues --   -0.55815  -0.42217  -0.39295  -0.31797  -0.23369
 Alpha virt. eigenvalues --    0.02623   0.04587   0.06608   0.09631   0.10978
 Alpha virt. eigenvalues --    0.13206   0.14310   0.15979   0.16324   0.16878
 Alpha virt. eigenvalues --    0.17535   0.20706   0.23304   0.23848   0.24921

  Beta  occ. eigenvalues --  -99.91549 -75.79934 -75.74390 -13.17506 -13.13657
  Beta  occ. eigenvalues --  -13.09792 -13.08994 -13.05525 -13.02579 -10.48568
  Beta  occ. eigenvalues --   -9.68352  -9.67666  -9.67589  -8.13638  -8.08288
  Beta  occ. eigenvalues --   -1.34746  -1.20762  -0.91255  -0.58104  -0.55689
  Beta  occ. eigenvalues --   -0.55207  -0.38090  -0.35287  -0.30744
  Beta virt. eigenvalues --    0.02991   0.04302   0.04817   0.06715   0.09629
  Beta virt. eigenvalues --    0.11517   0.13473   0.14357   0.16431   0.16592
  Beta virt. eigenvalues --    0.17892   0.18521   0.21194   0.24116   0.24942

 Mulliken charges and spin densities:
               1          2
     1  S    0.109740   0.203343
     2  S    0.230506   0.820965
     3  Cl  -0.340246  -0.024308
 Sum of Mulliken charges =  -0.00000   1.00000

 Dipole moment (field-independent basis, Debye):
    X=              3.6578    Y=              2.0462    Z=              0.0000  Tot=              4.1913
                          Isotropic Fermi Contact Couplings
        Atom                 a.u.       MegaHertz       Gauss      10(-4) cm-1
     1  S(33)              0.16718      57.42210      20.48963      19.15395
     2  S(33)              0.30175     103.64282      36.98234      34.57153
     3  Cl(35)            -0.01048      -4.59310      -1.63893      -1.53209
 --------------------------------------------------------
       Center         ----  Spin Dipole Couplings  ----
                      3XX-RR        3YY-RR        3ZZ-RR
 --------------------------------------------------------
     1   Atom       -0.083805     -0.106467      0.190272

 Normal termination of Gaussian 16 at Tue Apr  8 23:01:40 2025.
