 Gaussian 16, Revision C.01,

 ----------------------------------------------------------------------
 #t hf aug-cc-pvdz symm=none int=(grid=ultrafine) guess=(read,tcheck) s
 table=(opt,rrhf)
 ----------------------------------------------------------------------
 -----
 title
 -----
 Symbolic Z-matrix:
 Charge =  0 Multiplicity = 1

 SCF Done:  E(RHF) =  -454.534485390     A.U. after   13 cycles
 Normal termination of Gaussian 16 at Tue Apr  8 23:04:10 2025.
 Gaussian 16:  ES64L-G16RevC.01  3-Jul-2019

 ----------------------------------------------------------------------
 #t hf aug-cc-pvdz iop(5/13=1,5/36=2,99/5=2) pseudo=read geom=check gue
 ss=(read,tcheck) scf=(maxcycle=1)
 ----------------------------------------------------------------------
 -----
 title
 -----
 Structure from the checkpoint file:  "BDE49_expt_256_mol1.chk"
 Charge =  0 Multiplicity = 1

                         Standard orientation:
 ---------------------------------------------------------------------
 Center     Atomic      Atomic             Coordinates (Angstroms)
 Number     Number       Type             X           Y           Z
 ---------------------------------------------------------------------
      1          6           0       -1.596873   -0.038890    0.042501
      2          6           0        1.597042   -0.038712   -0.042675
      3          8           0        2.578781   -0.361098    0.571664
      4          8           0       -2.578837   -0.360944   -0.571653
      5          8           0        1.196777   -0.676921   -1.170445
      6          1           0        1.832665   -1.391641   -1.324073
      7          6           0        0.695767    1.124966    0.318139
      8          8           0       -1.196856   -0.676978    1.170428
      9          1           0       -1.832877   -1.391573    1.324090
     10          6           0       -0.695722    1.124972   -0.318032
     11          1           0       -1.230666    2.031997   -0.016092
     12          1           0       -0.639649    1.146440   -1.406555
     13          1           0        1.230631    2.032103    0.016401
     14          1           0        0.639691    1.146186    1.406668
 ---------------------------------------------------------------------

 SCF Done:  E(RHF) =  -456.460103284     A.U. after    2 cycles

 The electronic state is 1-A.
 Alpha  occ. eigenvalues --  -21.13190 -21.13167 -21.06015 -21.06005 -11.53697
 Alpha  occ. eigenvalues --  -11.53690 -11.45062 -11.40834  -1.84197  -1.83153
 Alpha  occ. eigenvalues --   -1.66157  -1.66087  -1.22277  -1.02195  -0.83143
 Alpha  occ. eigenvalues --   -0.79626  -0.66496  -0.65992  -0.63967  -0.59904
 Alpha  occ. eigenvalues --   -0.59666  -0.57610  -0.53678  -0.51579  -0.50360
 Alpha  occ. eigenvalues --   -0.46645  -0.45577  -0.34727  -0.34701  -0.30345
 Alpha  occ. eigenvalues --   -0.30128
 Alpha virt. eigenvalues --    0.03181   0.04656   0.05564   0.05766   0.06555
 Alpha virt. eigenvalues --    0.06688   0.09792   0.09851   0.10915   0.13012
 Alpha virt. eigenvalues --    0.13179   0.13751   0.14421   0.15152   0.15220

 Mulliken charges:
               1
     1  C    5.758799
     2  C    5.758314
     3  O   -3.091536
     4  O   -3.091527
     5  O   -2.917404
     6  H    0.945708
     7  C   -3.359911
     8  O   -2.917591
     9  H    0.945728
    10  C   -3.360101
    11  H    1.302145
    12  H    1.362598
    13  H    1.302207
    14  H    1.362571
 Sum of Mulliken charges =  -0.00000

 Dipole moment (field-independent basis, Debye):
    X=             -0.0001    Y=              0.3797    Z=              0.0002  Tot=              0.3797

 Test job not archived.
 1\1\GINC-SE044\SP\RHF\Aug-CC-pVDZ\C4H6O4\OHZDE\08-Apr-2025\0\\#t hf au
 g-cc-pvdz iop(5/13=1,5/36=2,99/5=2) pseudo=read geom=check guess=(read
 ,tcheck) scf=(maxcycle=1)\\title\\0,1\C,0,-1.596873,-0.03889,0.042501\
 C,0,1.597042,-0.038712,-0.042675\O,0,2.578781,-0.361098,0.571664\O,0,-
 2.578837,-0.360944,-0.571653\O,0,1.196777,-0.676921,-1.170445\H,0,1.83
 2665,-1.391641,-1.324073\C,0,0.695767,1.124966,0.318139\O,0,-1.196856,
 -0.676978,1.170428\H,0,-1.832877,-1.391573,1.32409\C,0,-0.695722,1.124
 972,-0.318032\H,0,-1.230666,2.031997,-0.016092\H,0,-0.639649,1.14644,-

 Normal termination of Gaussian 16 at Tue Apr  8 23:04:15 2025.
