 Gaussian 16, Revision C.01,

 ----------------------------------------------------------------------
 #t hf aug-cc-pvdz symm=none int=(grid=ultrafine) guess=(read,tcheck) s
 table=(opt,rrhf)
 ----------------------------------------------------------------------
 -----
 title
 -----
 Symbolic Z-matrix:
 Charge =  0 Multiplicity = 1

 SCF Done:  E(RHF) =  -483.289501451     A.U. after   12 cycles
 Normal termination of Gaussian 16 at Wed Apr  9 00:03:43 2025.
 Gaussian 16:  ES64L-G16RevC.01  3-Jul-2019

 ----------------------------------------------------------------------
 #t hf aug-cc-pvdz iop(5/13=1,5/36=2,99/5=2) pseudo=read geom=check gue
 ss=(read,tcheck) scf=(maxcycle=1)
 ----------------------------------------------------------------------
 -----
 title
 -----
 Structure from the checkpoint file:  "BDE49_nonexpt_2173_mol1.chk"
 Charge =  0 Multiplicity = 1

                         Standard orientation:
 ---------------------------------------------------------------------
 Center     Atomic      Atomic             Coordinates (Angstroms)
 Number     Number       Type             X           Y           Z
 ---------------------------------------------------------------------
      1         14           0       -0.868068   -0.594277    0.189491
      2          6           0        0.784173    0.097356   -0.379104
      3          6           0        1.045063    1.499793    0.200311
      4          1           0        0.241290    2.194605   -0.053834
      5          1           0        1.984060    1.912891   -0.184154
      6          1           0        1.124874    1.467184    1.292244
      7          6           0        1.932515   -0.876536   -0.053824
      8          1           0        0.709399    0.185967   -1.471372
      9          1           0        2.886851   -0.490577   -0.427409
     10          1           0        1.777056   -1.861307   -0.504451
     11          1           0        2.041277   -1.018584    1.026637
     12          8           0       -2.030853    0.497159   -0.267412
     13          1           0       -2.945082    0.331608   -0.029105
     14          1           0       -0.873635   -0.780694    1.666193
     15          1           0       -1.116821   -1.922162   -0.432614
 ---------------------------------------------------------------------

 SCF Done:  E(RHF) =  -484.390557539     A.U. after    2 cycles

 The electronic state is 1-A.
 Alpha  occ. eigenvalues --  -76.21765 -21.06981 -11.39790 -11.38120 -11.33947
 Alpha  occ. eigenvalues --   -5.55687  -2.22666  -2.19154  -2.17354  -1.65332
 Alpha  occ. eigenvalues --   -1.20267  -0.99681  -0.84438  -0.72661  -0.62121
 Alpha  occ. eigenvalues --   -0.58890  -0.58253  -0.54548  -0.53029  -0.49140
 Alpha  occ. eigenvalues --   -0.45923  -0.44968  -0.40416  -0.37136  -0.36747
 Alpha virt. eigenvalues --    0.03871   0.04822   0.05955   0.06043   0.06407
 Alpha virt. eigenvalues --    0.06471   0.07003   0.07194   0.07349   0.08548
 Alpha virt. eigenvalues --    0.09735   0.10372   0.11244   0.13883   0.14116

 Mulliken charges:
               1
     1  Si   6.387986
     2  C   -3.340759
     3  C   -3.499749
     4  H    1.290807
     5  H    1.209620
     6  H    1.326483
     7  C   -3.551152
     8  H    1.759068
     9  H    1.267254
    10  H    1.286038
    11  H    1.293458
    12  O   -2.629393
    13  H    1.112152
    14  H   -1.989303
    15  H   -1.922511
 Sum of Mulliken charges =  -0.00000

 Dipole moment (field-independent basis, Debye):
    X=             -0.2481    Y=              0.5120    Z=             -0.3719  Tot=              0.6797

 Test job not archived.
 1\1\GINC-SE454\SP\RHF\Aug-CC-pVDZ\C3H10O1Si1\OHZDE\09-Apr-2025\0\\#t h
 f aug-cc-pvdz iop(5/13=1,5/36=2,99/5=2) pseudo=read geom=check guess=(
 read,tcheck) scf=(maxcycle=1)\\title\\0,1\Si,0,-0.868068,-0.594277,0.1
 89491\C,0,0.784173,0.097356,-0.379104\C,0,1.045063,1.499793,0.200311\H
 ,0,0.24129,2.194605,-0.053834\H,0,1.98406,1.912891,-0.184154\H,0,1.124
 874,1.467184,1.292244\C,0,1.932515,-0.876536,-0.053824\H,0,0.709399,0.
 185967,-1.471372\H,0,2.886851,-0.490577,-0.427409\H,0,1.777056,-1.8613
 07,-0.504451\H,0,2.041277,-1.018584,1.026637\O,0,-2.030853,0.497159,-0

 Normal termination of Gaussian 16 at Wed Apr  9 00:03:48 2025.
