 Gaussian 16, Revision C.01,

 ----------------------------------------------------------------------
 #t hf aug-cc-pvdz symm=none int=(grid=ultrafine) guess=(read,tcheck) s
 table=(opt,rrhf)
 ----------------------------------------------------------------------
 -----
 title
 -----
 Symbolic Z-matrix:
 Charge =  0 Multiplicity = 1

 SCF Done:  E(RHF) =  -1151.13307641     A.U. after   14 cycles
 Normal termination of Gaussian 16 at Wed Apr  9 00:05:39 2025.
 Gaussian 16:  ES64L-G16RevC.01  3-Jul-2019

 ----------------------------------------------------------------------
 #t hf aug-cc-pvdz iop(5/13=1,5/36=2,99/5=2) pseudo=read geom=check gue
 ss=(read,tcheck) scf=(maxcycle=1)
 ----------------------------------------------------------------------
 -----
 title
 -----
 Structure from the checkpoint file:  "BDE49_nonexpt_221_mol1.chk"
 Charge =  0 Multiplicity = 1

                         Standard orientation:
 ---------------------------------------------------------------------
 Center     Atomic      Atomic             Coordinates (Angstroms)
 Number     Number       Type             X           Y           Z
 ---------------------------------------------------------------------
      1         17           0        1.253986    1.716147   -0.000244
      2          5           0        0.666342    0.058631    0.000872
      3         17           0        1.874880   -1.234102   -0.000412
      4          6           0       -0.848963   -0.294614    0.000453
      5          7           0       -1.620723    0.741995    0.000352
      6          8           0       -2.960252    0.398580    0.000015
      7          1           0       -3.402152    1.255380   -0.000001
      8          6           0       -1.392056   -1.700615    0.000189
      9          1           0       -0.593653   -2.439137    0.000324
     10          1           0       -2.026504   -1.857619   -0.876711
     11          1           0       -2.026942   -1.857776    0.876744
 ---------------------------------------------------------------------

 SCF Done:  E(RHF) =  -1152.65049201     A.U. after    2 cycles

 The electronic state is 1-A.
 Alpha  occ. eigenvalues --  -99.90309 -99.89612 -21.12179 -15.81177 -11.43631
 Alpha  occ. eigenvalues --  -11.37927 -10.47649 -10.46906  -9.67601  -9.67183
 Alpha  occ. eigenvalues --   -9.66922  -9.66861  -9.66431  -9.66202  -7.72659
 Alpha  occ. eigenvalues --   -1.82155  -1.40998  -1.29851  -1.28336  -1.07130
 Alpha  occ. eigenvalues --   -0.88610  -0.73876  -0.69016  -0.65350  -0.61254
 Alpha  occ. eigenvalues --   -0.59718  -0.57322  -0.56601  -0.53610  -0.52586
 Alpha  occ. eigenvalues --   -0.50700  -0.49997  -0.46296  -0.36787  -0.32986
 Alpha virt. eigenvalues --    0.03130   0.04383   0.04458   0.04499   0.04731
 Alpha virt. eigenvalues --    0.06365   0.07381   0.07718   0.08204   0.11678
 Alpha virt. eigenvalues --    0.12518   0.14217   0.14482   0.15504   0.15919

 Mulliken charges:
               1
     1  Cl  -1.236608
     2  B    2.932732
     3  Cl  -1.221651
     4  C    1.386918
     5  N   -0.681387
     6  O   -2.270953
     7  H    0.900580
     8  C   -3.630513
     9  H    1.357106
    10  H    1.231878
    11  H    1.231898
 Sum of Mulliken charges =  -0.00000

 Dipole moment (field-independent basis, Debye):
    X=             -3.0534    Y=             -0.5455    Z=              0.0010  Tot=              3.1018

 Test job not archived.
 1\1\GINC-SE071\SP\RHF\Aug-CC-pVDZ\C2H4B1Cl2N1O1\OHZDE\09-Apr-2025\0\\#
 t hf aug-cc-pvdz iop(5/13=1,5/36=2,99/5=2) pseudo=read geom=check gues
 s=(read,tcheck) scf=(maxcycle=1)\\title\\0,1\Cl,0,1.253986,1.716147,-0
 .000244\B,0,0.666342,0.058631,0.000872\Cl,0,1.87488,-1.234102,-0.00041
 2\C,0,-0.848963,-0.294614,0.000453\N,0,-1.620723,0.741995,0.000352\O,0
 ,-2.960252,0.39858,0.000015\H,0,-3.402152,1.25538,-0.000001\C,0,-1.392
 056,-1.700615,0.000189\H,0,-0.593653,-2.439137,0.000324\H,0,-2.026504,
 -1.857619,-0.876711\H,0,-2.026942,-1.857776,0.876744\\Version=ES64L-G1

 Normal termination of Gaussian 16 at Wed Apr  9 00:05:43 2025.
