 Gaussian 16, Revision C.01,

 ----------------------------------------------------------------------
 #t hf aug-cc-pvdz symm=none int=(grid=ultrafine) guess=(read,tcheck) s
 table=(opt,rrhf)
 ----------------------------------------------------------------------
 -----
 title
 -----
 Symbolic Z-matrix:
 Charge =  0 Multiplicity = 1

 SCF Done:  E(RHF) =  -650.120008260     A.U. after   15 cycles

 1\1\GINC-SE082\Stability\RHF\Aug-CC-pVDZ\C8H11P1\OHZDE\08-Apr-2025\0\\
 #t hf aug-cc-pvdz symm=none int=(grid=ultrafine) guess=(read,tcheck) s
 table=(opt,rrhf)\\title\\0,1\C,0,-0.644635,-1.616123,0.000014\C,0,0.72
 7623,-1.395548,0.00002\C,0,1.228472,-0.089955,0.000025\C,0,-1.558998,-
 0.557691,0.000009\C,0,-1.068298,0.760826,0.00001\C,0,0.314473,0.968299
 ,0.000023\H,0,-1.019252,-2.635011,0.00002\H,0,1.40601,-2.241364,0.0000
 25\P,0,3.029503,0.327817,-0.000003\C,0,-3.041899,-0.835644,-0.000031\H
 ,0,-3.240223,-1.908694,0.000399\H,0,-3.532257,-0.404552,-0.879192\H,0,

 Normal termination of Gaussian 16 at Tue Apr  8 23:34:35 2025.
 Gaussian 16:  ES64L-G16RevC.01  3-Jul-2019

 ----------------------------------------------------------------------
 #t hf aug-cc-pvdz iop(5/13=1,5/36=2,99/5=2) pseudo=read geom=check gue
 ss=(read,tcheck) scf=(maxcycle=1)
 ----------------------------------------------------------------------
 -----
 title
 -----
 Structure from the checkpoint file:  "BDE49_nonexpt_1433_mol1.chk"
 Charge =  0 Multiplicity = 1

                         Standard orientation:
 ---------------------------------------------------------------------
 Center     Atomic      Atomic             Coordinates (Angstroms)
 Number     Number       Type             X           Y           Z
 ---------------------------------------------------------------------
      1          6           0        0.644635   -1.616123   -0.000014
      2          6           0       -0.727623   -1.395548   -0.000020
      3          6           0       -1.228472   -0.089955   -0.000025
      4          6           0        1.558998   -0.557691   -0.000009
      5          6           0        1.068298    0.760826   -0.000010
      6          6           0       -0.314473    0.968299   -0.000023
      7          1           0        1.019252   -2.635011   -0.000020
      8          1           0       -1.406010   -2.241364   -0.000025
      9         15           0       -3.029503    0.327817    0.000003
     10          6           0        3.041899   -0.835644    0.000031
     11          1           0        3.240223   -1.908694   -0.000399
     12          1           0        3.532257   -0.404552    0.879192
     13          1           0        3.532469   -0.403794   -0.878632
     14          6           0        2.009384    1.940963   -0.000003
     15          1           0        2.662426    1.935870    0.879054
     16          1           0        1.457345    2.882193    0.000251
     17          1           0        2.662077    1.936150   -0.879326
     18          1           0       -0.688296    1.987694   -0.000028
     19          1           0       -3.442475   -0.558102    1.030267
     20          1           0       -3.442599   -0.558411   -1.029945
 ---------------------------------------------------------------------

 SCF Done:  E(RHF) =  -651.840798898     A.U. after    2 cycles

 The electronic state is 1-A.
 Alpha  occ. eigenvalues -- -105.17834 -11.50854 -11.45334 -11.42926 -11.41870
 Alpha  occ. eigenvalues --  -11.41231 -11.39892 -11.38257 -11.35663  -2.74661
 Alpha  occ. eigenvalues --   -1.49653  -1.44402  -1.43023  -1.35032  -1.14461
 Alpha  occ. eigenvalues --   -1.12834  -1.01490  -0.96942  -0.85139  -0.81349
 Alpha  occ. eigenvalues --   -0.72882  -0.64934  -0.62548  -0.60473  -0.59617
 Alpha  occ. eigenvalues --   -0.55292  -0.55241  -0.53607  -0.50885  -0.48471
 Alpha  occ. eigenvalues --   -0.46058  -0.42713  -0.32844  -0.31825  -0.24732
 Alpha  occ. eigenvalues --   -0.22480  -0.02446
 Alpha virt. eigenvalues --    0.03465   0.04687   0.05380   0.06202   0.06221
 Alpha virt. eigenvalues --    0.06828   0.06864   0.07110   0.07675   0.08692
 Alpha virt. eigenvalues --    0.09310   0.10089   0.10396   0.10705   0.11962

 Mulliken charges:
               1
     1  C   -1.052499
     2  C   -6.205451
     3  C    4.368072
     4  C    3.649402
     5  C    4.034108
     6  C   -5.308301
     7  H    1.865029
     8  H    1.896267
     9  P    0.835453
    10  C   -5.825720
    11  H    1.304037
    12  H    1.010736
    13  H    1.010656
    14  C   -5.691317
    15  H    1.016773
    16  H    1.291441
    17  H    1.016761
    18  H    2.270786
    19  H   -0.743077
    20  H   -0.743157
 Sum of Mulliken charges =  -0.00000

 Dipole moment (field-independent basis, Debye):
    X=              2.0946    Y=              1.8979    Z=             -0.0004  Tot=              2.8266

 Test job not archived.
 1\1\GINC-SE082\SP\RHF\Aug-CC-pVDZ\C8H11P1\OHZDE\08-Apr-2025\0\\#t hf a
 ug-cc-pvdz iop(5/13=1,5/36=2,99/5=2) pseudo=read geom=check guess=(rea
 d,tcheck) scf=(maxcycle=1)\\title\\0,1\C,0,-0.644635,-1.616123,0.00001
 4\C,0,0.727623,-1.395548,0.00002\C,0,1.228472,-0.089955,0.000025\C,0,-
 1.558998,-0.557691,0.000009\C,0,-1.068298,0.760826,0.00001\C,0,0.31447
 3,0.968299,0.000023\H,0,-1.019252,-2.635011,0.00002\H,0,1.40601,-2.241
 364,0.000025\P,0,3.029503,0.327817,-0.000003\C,0,-3.041899,-0.835644,-
 0.000031\H,0,-3.240223,-1.908694,0.000399\H,0,-3.532257,-0.404552,-0.8

 Normal termination of Gaussian 16 at Tue Apr  8 23:34:46 2025.
