 Gaussian 16, Revision C.01,

 ----------------------------------------------------------------------
 #t hf aug-cc-pvdz symm=none int=(grid=ultrafine) guess=(read,tcheck) s
 table=(opt,rrhf)
 ----------------------------------------------------------------------
 -----
 title
 -----
 Symbolic Z-matrix:
 Charge =  0 Multiplicity = 1

 SCF Done:  E(RHF) =  -993.900951329     A.U. after   13 cycles
 Normal termination of Gaussian 16 at Tue Apr  8 23:00:37 2025.
 Gaussian 16:  ES64L-G16RevC.01  3-Jul-2019

 ----------------------------------------------------------------------
 #t hf aug-cc-pvdz iop(5/13=1,5/36=2,99/5=2) pseudo=read geom=check gue
 ss=(read,tcheck) scf=(maxcycle=1)
 ----------------------------------------------------------------------
 -----
 title
 -----
 Structure from the checkpoint file:  "BDE49_expt_1952_mol1.chk"
 Charge =  0 Multiplicity = 1

                         Standard orientation:
 ---------------------------------------------------------------------
 Center     Atomic      Atomic             Coordinates (Angstroms)
 Number     Number       Type             X           Y           Z
 ---------------------------------------------------------------------
      1         16           0        0.398043    0.871821   -0.411399
      2         16           0       -0.398043   -0.871821   -0.411399
      3          9           0       -0.398043    1.831015    0.731376
      4          9           0        0.398043   -1.831015    0.731376
 ---------------------------------------------------------------------

 SCF Done:  E(RHF) =  -995.024711360     A.U. after    2 cycles

 The electronic state is 1-A.
 Alpha  occ. eigenvalues --  -75.82330 -75.81735 -29.28967 -29.28967 -13.26168
 Alpha  occ. eigenvalues --  -13.23043 -13.18200 -13.14438 -13.12306 -13.12281
 Alpha  occ. eigenvalues --   -8.16382  -8.15944  -1.35895  -1.11765  -0.75401
 Alpha  occ. eigenvalues --   -0.64585  -0.51059  -0.46031  -0.43453  -0.37466
 Alpha  occ. eigenvalues --   -0.36223  -0.32721  -0.25139  -0.21800  -0.21735
 Alpha virt. eigenvalues --    0.04892   0.07113   0.10833   0.11028   0.12233
 Alpha virt. eigenvalues --    0.12861   0.15167   0.18024   0.21177   0.22682
 Alpha virt. eigenvalues --    0.23952   0.24839   0.26692   0.28944   0.31205

 Mulliken charges:
               1
     1  S    0.060351
     2  S    0.060351
     3  F   -0.060351
     4  F   -0.060351
 Sum of Mulliken charges =   0.00000

 Dipole moment (field-independent basis, Debye):
    X=              0.0000    Y=              0.0000    Z=              3.3472  Tot=              3.3472

 Test job not archived.
 1\1\GINC-SE222\SP\RHF\Aug-CC-pVDZ\F2S2\OHZDE\08-Apr-2025\0\\#t hf aug-
 cc-pvdz iop(5/13=1,5/36=2,99/5=2) pseudo=read geom=check guess=(read,t
 check) scf=(maxcycle=1)\\title\\0,1\S,0,0.861086,-0.411399,0.420762\S,
 0,-0.861086,-0.411399,-0.420762\F,0,1.840821,0.731376,-0.349904\F,0,-1
 .840821,0.731376,0.349904\\Version=ES64L-G16RevC.01\State=1-A\HF=-995.
 0247114\RMSD=5.126e-02\Dipole=0.,1.3169002,0.\Quadrupole=4.6775148,-2.
 4778135,-2.1997012,0.,-0.3860231,0.\PG=C02 [X(F2S2)]\\@

 Normal termination of Gaussian 16 at Tue Apr  8 23:00:38 2025.
