 Gaussian 16, Revision C.01,

 ----------------------------------------------------------------------
 #t hf aug-cc-pvdz symm=none int=(grid=ultrafine) guess=(read,tcheck) s
 table=(opt,rrhf)
 ----------------------------------------------------------------------
 -----
 title
 -----
 Symbolic Z-matrix:
 Charge =  0 Multiplicity = 1

 SCF Done:  E(RHF) =  -479.951684434     A.U. after   14 cycles
 Normal termination of Gaussian 16 at Tue Apr  8 23:58:23 2025.
 Gaussian 16:  ES64L-G16RevC.01  3-Jul-2019

 ----------------------------------------------------------------------
 #t hf aug-cc-pvdz iop(5/13=1,5/36=2,99/5=2) pseudo=read geom=check gue
 ss=(read,tcheck) scf=(maxcycle=1)
 ----------------------------------------------------------------------
 -----
 title
 -----
 Structure from the checkpoint file:  "BDE49_nonexpt_2043_mol1.chk"
 Charge =  0 Multiplicity = 1

                         Standard orientation:
 ---------------------------------------------------------------------
 Center     Atomic      Atomic             Coordinates (Angstroms)
 Number     Number       Type             X           Y           Z
 ---------------------------------------------------------------------
      1         14           0        1.494487   -0.127067    0.107798
      2          8           0        0.056214    0.699998   -0.175360
      3          8           0       -0.940694   -0.332543   -0.495330
      4          6           0       -2.075272   -0.039795    0.302222
      5          1           0       -2.813306   -0.789985    0.008216
      6          1           0       -2.453707    0.962438    0.082801
      7          1           0       -1.851720   -0.133752    1.369652
      8          1           0        2.441999    0.971114    0.387670
      9          1           0        1.915026   -0.901936   -1.077629
     10          1           0        1.366363   -1.029814    1.272305
 ---------------------------------------------------------------------

 SCF Done:  E(RHF) =  -480.930974272     A.U. after    2 cycles

 The electronic state is 1-A.
 Alpha  occ. eigenvalues --  -76.24294 -21.10363 -21.08254 -11.41070  -5.57818
 Alpha  occ. eigenvalues --   -2.23956  -2.19698  -2.19380  -1.92027  -1.43759
 Alpha  occ. eigenvalues --   -0.96903  -0.76237  -0.63146  -0.62399  -0.56676
 Alpha  occ. eigenvalues --   -0.51120  -0.47813  -0.46457  -0.42356  -0.35669
 Alpha  occ. eigenvalues --   -0.28905
 Alpha virt. eigenvalues --    0.03849   0.05080   0.06051   0.06311   0.06750
 Alpha virt. eigenvalues --    0.06928   0.07777   0.09306   0.10443   0.12579
 Alpha virt. eigenvalues --    0.15307   0.15411   0.15665   0.16928   0.17583

 Mulliken charges:
               1
     1  Si   6.399335
     2  O   -1.316906
     3  O   -1.553744
     4  C   -2.493673
     5  H    1.261881
     6  H    1.320367
     7  H    1.349720
     8  H   -1.616810
     9  H   -1.678757
    10  H   -1.671414
 Sum of Mulliken charges =  -0.00000

 Dipole moment (field-independent basis, Debye):
    X=             -1.0296    Y=             -0.0972    Z=              0.3108  Tot=              1.0799

 Test job not archived.
 1\1\GINC-SE095\SP\RHF\Aug-CC-pVDZ\C1H6O2Si1\OHZDE\08-Apr-2025\0\\#t hf
  aug-cc-pvdz iop(5/13=1,5/36=2,99/5=2) pseudo=read geom=check guess=(r
 ead,tcheck) scf=(maxcycle=1)\\title\\0,1\Si,0,-1.494487,-0.127067,-0.1
 07798\O,0,-0.056214,0.699998,0.17536\O,0,0.940694,-0.332543,0.49533\C,
 0,2.075272,-0.039795,-0.302222\H,0,2.813306,-0.789985,-0.008216\H,0,2.
 453707,0.962438,-0.082801\H,0,1.85172,-0.133752,-1.369652\H,0,-2.44199
 9,0.971114,-0.38767\H,0,-1.915026,-0.901936,1.077629\H,0,-1.366363,-1.
 029814,-1.272305\\Version=ES64L-G16RevC.01\State=1-A\HF=-480.9309743\R

 Normal termination of Gaussian 16 at Tue Apr  8 23:58:26 2025.
