 Gaussian 16, Revision C.01,

 ----------------------------------------------------------------------
 #t hf aug-cc-pvdz symm=none int=(grid=ultrafine) guess=(read,tcheck) s
 table=(opt,rrhf)
 ----------------------------------------------------------------------
 -----
 title
 -----
 Symbolic Z-matrix:
 Charge =  0 Multiplicity = 1

 SCF Done:  E(RHF) =  -1046.31227458     A.U. after   13 cycles
 Normal termination of Gaussian 16 at Tue Apr  8 23:01:40 2025.
 Gaussian 16:  ES64L-G16RevC.01  3-Jul-2019

 ----------------------------------------------------------------------
 #t hf aug-cc-pvdz iop(5/13=1,5/36=2,99/5=2) pseudo=read geom=check gue
 ss=(read,tcheck) scf=(maxcycle=1)
 ----------------------------------------------------------------------
 -----
 title
 -----
 Structure from the checkpoint file:  "BDE49_expt_1980_mol1.chk"
 Charge =  0 Multiplicity = 1

                         Standard orientation:
 ---------------------------------------------------------------------
 Center     Atomic      Atomic             Coordinates (Angstroms)
 Number     Number       Type             X           Y           Z
 ---------------------------------------------------------------------
      1         16           0       -0.436050   -0.202452    0.000000
      2          8           0       -0.762350   -0.811733   -1.257081
      3          8           0       -0.762348   -0.811733    1.257081
      4          6           0       -0.980326    1.504612    0.000001
      5          1           0       -0.604606    1.980707    0.902675
      6          1           0       -2.070696    1.462330    0.000001
      7          1           0       -0.604607    1.980707   -0.902674
      8         17           0        1.666838    0.104444   -0.000001
 ---------------------------------------------------------------------

 SCF Done:  E(RHF) =  -1047.65319277     A.U. after    2 cycles

 The electronic state is 1-A.
 Alpha  occ. eigenvalues --  -99.92025 -75.94447 -21.09140 -21.09135 -13.57648
 Alpha  occ. eigenvalues --  -13.44663 -13.33440 -11.45523 -10.49278  -9.69081
 Alpha  occ. eigenvalues --   -9.68373  -9.68320  -8.29452  -1.87310  -1.68829
 Alpha  occ. eigenvalues --   -1.33145  -1.17137  -0.92658  -0.70347  -0.66222
 Alpha  occ. eigenvalues --   -0.64327  -0.60209  -0.57573  -0.53959  -0.46368
 Alpha  occ. eigenvalues --   -0.45958  -0.42045  -0.41018  -0.39078
 Alpha virt. eigenvalues --    0.01915   0.05149   0.05460   0.06915   0.08300
 Alpha virt. eigenvalues --    0.10003   0.12269   0.12409   0.13280   0.13926
 Alpha virt. eigenvalues --    0.14459   0.15824   0.16104   0.17547   0.19477

 Mulliken charges:
               1
     1  S    5.099051
     2  O   -2.331650
     3  O   -2.331651
     4  C   -4.284953
     5  H    1.337197
     6  H    1.342397
     7  H    1.337196
     8  Cl  -0.167586
 Sum of Mulliken charges =  -0.00000

 Dipole moment (field-independent basis, Debye):
    X=             -2.0810    Y=              1.8604    Z=              0.0000  Tot=              2.7913

 Test job not archived.
 1\1\GINC-SE403\SP\RHF\Aug-CC-pVDZ\C1H3Cl1O2S1\OHZDE\08-Apr-2025\0\\#t
 hf aug-cc-pvdz iop(5/13=1,5/36=2,99/5=2) pseudo=read geom=check guess=
 (read,tcheck) scf=(maxcycle=1)\\title\\0,1\S,0,-0.43605,-0.202452,0.\O
 ,0,-0.76235,-0.811733,-1.257081\O,0,-0.762348,-0.811733,1.257081\C,0,-
 0.980326,1.504612,0.000001\H,0,-0.604606,1.980707,0.902675\H,0,-2.0706
 96,1.46233,0.000001\H,0,-0.604607,1.980707,-0.902674\Cl,0,1.666838,0.1
 04444,-0.000001\\Version=ES64L-G16RevC.01\State=1-A\HF=-1047.6531928\R
 MSD=7.829e-02\Dipole=-0.8187097,0.7319323,0.0000003\Quadrupole=0.62434

 Normal termination of Gaussian 16 at Tue Apr  8 23:01:42 2025.
