 Gaussian 16, Revision C.01,

 ----------------------------------------------------------------------
 #t hf aug-cc-pvdz symm=none int=(grid=ultrafine) guess=(read,tcheck) s
 table=(opt,rrhf)
 ----------------------------------------------------------------------
 -----
 title
 -----
 Symbolic Z-matrix:
 Charge =  0 Multiplicity = 1

 SCF Done:  E(RHF) =  -247.051561758     A.U. after   13 cycles
 Normal termination of Gaussian 16 at Tue Apr  8 22:38:29 2025.
 Gaussian 16:  ES64L-G16RevC.01  3-Jul-2019

 ----------------------------------------------------------------------
 #t hf aug-cc-pvdz iop(5/13=1,5/36=2,99/5=2) pseudo=read geom=check gue
 ss=(read,tcheck) scf=(maxcycle=1)
 ----------------------------------------------------------------------
 -----
 title
 -----
 Structure from the checkpoint file:  "BDE49_expt_1205_mol1.chk"
 Charge =  0 Multiplicity = 1

                         Standard orientation:
 ---------------------------------------------------------------------
 Center     Atomic      Atomic             Coordinates (Angstroms)
 Number     Number       Type             X           Y           Z
 ---------------------------------------------------------------------
      1          6           0       -0.563431    0.138687    0.034691
      2          8           0       -0.535373    1.353985    0.068805
      3          7           0       -1.729807   -0.558519   -0.123110
      4          6           0        0.687847   -0.728208    0.178350
      5          1           0       -2.594578   -0.041452   -0.134093
      6          1           0       -1.764364   -1.562870   -0.089646
      7          6           0        1.970524    0.037097   -0.139799
      8          1           0        0.594192   -1.617980   -0.453688
      9          1           0        0.710153   -1.088909    1.214312
     10          1           0        2.002737    0.329206   -1.191945
     11          1           0        2.849964   -0.575503    0.072531
     12          1           0        2.023891    0.949807    0.454406
 ---------------------------------------------------------------------

 SCF Done:  E(RHF) =  -248.195027859     A.U. after    2 cycles

 The electronic state is 1-A.
 Alpha  occ. eigenvalues --  -21.01979 -15.77551 -11.49902 -11.41070 -11.36257
 Alpha  occ. eigenvalues --   -1.69974  -1.34377  -1.16634  -0.94200  -0.78516
 Alpha  occ. eigenvalues --   -0.70753  -0.64667  -0.63011  -0.53104  -0.52833
 Alpha  occ. eigenvalues --   -0.48994  -0.46990  -0.46237  -0.32332  -0.28377
 Alpha virt. eigenvalues --    0.03328   0.04728   0.05485   0.05919   0.06551
 Alpha virt. eigenvalues --    0.06938   0.07807   0.11462   0.12210   0.12752
 Alpha virt. eigenvalues --    0.13607   0.14456   0.15457   0.16709   0.17543

 Mulliken charges:
               1
     1  C    4.956628
     2  O   -3.103285
     3  N   -2.990858
     4  C   -3.395662
     5  H    0.729029
     6  H    0.776159
     7  C   -3.438681
     8  H    1.430879
     9  H    1.419454
    10  H    1.226728
    11  H    1.103909
    12  H    1.285700
 Sum of Mulliken charges =   0.00000

 Dipole moment (field-independent basis, Debye):
    X=             -0.6709    Y=             -2.2943    Z=              0.0599  Tot=              2.3911

 Test job not archived.
 1\1\GINC-SE072\SP\RHF\Aug-CC-pVDZ\C3H7N1O1\OHZDE\08-Apr-2025\0\\#t hf
 aug-cc-pvdz iop(5/13=1,5/36=2,99/5=2) pseudo=read geom=check guess=(re
 ad,tcheck) scf=(maxcycle=1)\\title\\0,1\C,0,-0.563431,0.138687,0.03469
 1\O,0,-0.535373,1.353985,0.068805\N,0,-1.729807,-0.558519,-0.12311\C,0
 ,0.687847,-0.728208,0.17835\H,0,-2.594578,-0.041451,-0.134093\H,0,-1.7
 64364,-1.56287,-0.089646\C,0,1.970524,0.037097,-0.139799\H,0,0.594192,
 -1.61798,-0.453688\H,0,0.710153,-1.088909,1.214312\H,0,2.002737,0.3292
 06,-1.191945\H,0,2.849964,-0.575504,0.072531\H,0,2.023891,0.949807,0.4

 Normal termination of Gaussian 16 at Tue Apr  8 22:38:32 2025.
