 Gaussian 16, Revision C.01,

 ----------------------------------------------------------------------
 #t hf aug-cc-pvdz symm=none int=(grid=ultrafine) guess=(read,tcheck) s
 table=(opt,rrhf)
 ----------------------------------------------------------------------
 -----
 title
 -----
 Symbolic Z-matrix:
 Charge =  0 Multiplicity = 1

 SCF Done:  E(RHF) =  -445.818259628     A.U. after   13 cycles
 Normal termination of Gaussian 16 at Wed Apr  9 00:43:26 2025.
 Gaussian 16:  ES64L-G16RevC.01  3-Jul-2019

 ----------------------------------------------------------------------
 #t hf aug-cc-pvdz iop(5/13=1,5/36=2,99/5=2) pseudo=read geom=check gue
 ss=(read,tcheck) scf=(maxcycle=1)
 ----------------------------------------------------------------------
 -----
 title
 -----
 Structure from the checkpoint file:  "BDE49_nonexpt_726_mol1.chk"
 Charge =  0 Multiplicity = 1

                         Standard orientation:
 ---------------------------------------------------------------------
 Center     Atomic      Atomic             Coordinates (Angstroms)
 Number     Number       Type             X           Y           Z
 ---------------------------------------------------------------------
      1          6           0       -1.360913    0.666686    0.000786
      2          5           0        0.169424    0.989721    0.048201
      3         15           0        1.570536   -0.274863   -0.114859
      4          6           0       -1.832574   -0.793382    0.004339
      5          1           0       -1.759213    1.192881   -0.881956
      6          1           0       -1.817295    1.217880    0.838340
      7          1           0       -1.431401   -1.345143   -0.851143
      8          1           0       -2.922606   -0.865069   -0.043869
      9          1           0       -1.510383   -1.315203    0.909906
     10          1           0        0.512247    2.134832    0.038453
     11          1           0        1.141643   -1.352982    0.689409
     12          1           0        2.542774    0.267317    0.751981
 ---------------------------------------------------------------------

 SCF Done:  E(RHF) =  -446.555490304     A.U. after    2 cycles

 The electronic state is 1-A.
 Alpha  occ. eigenvalues -- -105.16202 -11.38999 -11.33823  -7.61246  -2.73553
 Alpha  occ. eigenvalues --   -1.49206  -1.44140  -1.40613  -1.16553  -0.92721
 Alpha  occ. eigenvalues --   -0.78715  -0.63240  -0.60445  -0.58198  -0.48841
 Alpha  occ. eigenvalues --   -0.48401  -0.42541  -0.25486  -0.15022  -0.03640
 Alpha virt. eigenvalues --    0.03578   0.04221   0.04934   0.05507   0.06758
 Alpha virt. eigenvalues --    0.07524   0.07722   0.08589   0.09125   0.10239
 Alpha virt. eigenvalues --    0.10341   0.11986   0.12404   0.13159   0.13955

 Mulliken charges:
               1
     1  C   -4.191185
     2  B    2.659957
     3  P    1.899190
     4  C   -3.330814
     5  H    1.634068
     6  H    1.856382
     7  H    1.352033
     8  H    1.156710
     9  H    1.233728
    10  H   -2.566640
    11  H   -0.963536
    12  H   -0.739892
 Sum of Mulliken charges =   0.00000

 Dipole moment (field-independent basis, Debye):
    X=              3.2772    Y=             -3.5372    Z=             -4.8177  Tot=              6.8163

 Test job not archived.
 1\1\GINC-SE219\SP\RHF\Aug-CC-pVDZ\C2H8B1P1\OHZDE\09-Apr-2025\0\\#t hf
 aug-cc-pvdz iop(5/13=1,5/36=2,99/5=2) pseudo=read geom=check guess=(re
 ad,tcheck) scf=(maxcycle=1)\\title\\0,1\C,0,-1.360913,0.666686,0.00078
 6\B,0,0.169424,0.989721,0.048201\P,0,1.570536,-0.274863,-0.114859\C,0,
 -1.832574,-0.793382,0.004339\H,0,-1.759213,1.192881,-0.881956\H,0,-1.8
 17295,1.21788,0.83834\H,0,-1.431401,-1.345143,-0.851143\H,0,-2.922606,
 -0.865069,-0.043869\H,0,-1.510383,-1.315203,0.909906\H,0,0.512247,2.13
 4832,0.038453\H,0,1.141643,-1.352982,0.689409\H,0,2.542774,0.267317,0.

 Normal termination of Gaussian 16 at Wed Apr  9 00:43:30 2025.
