 Gaussian 16, Revision C.01,

 ----------------------------------------------------------------------
 #t hf aug-cc-pvdz symm=none int=(grid=ultrafine) guess=(read,tcheck) s
 table=opt
 ----------------------------------------------------------------------
 -----
 title
 -----
 Symbolic Z-matrix:
 Charge =  0 Multiplicity = 2

 SCF Done:  E(UHF) =  -474.979861732     A.U. after   17 cycles
 Normal termination of Gaussian 16 at Tue Apr  8 23:32:09 2025.
 Gaussian 16:  ES64L-G16RevC.01  3-Jul-2019

 ----------------------------------------------------------------------
 #t hf aug-cc-pvdz iop(5/13=1,5/36=2,99/5=2) pseudo=read geom=check gue
 ss=(read,tcheck) scf=(maxcycle=1)
 ----------------------------------------------------------------------
 -----
 title
 -----
 Structure from the checkpoint file:  "BDE49_nonexpt_1397_mol2.chk"
 Charge =  0 Multiplicity = 2

                         Standard orientation:
 ---------------------------------------------------------------------
 Center     Atomic      Atomic             Coordinates (Angstroms)
 Number     Number       Type             X           Y           Z
 ---------------------------------------------------------------------
      1          6           0        1.093322    1.220245    0.010848
      2          7           0        0.294868    0.007895   -0.046617
      3          1           0        1.623265    1.302430    0.970256
      4          1           0        0.458610    2.096521   -0.108873
      5          1           0        1.843899    1.222810   -0.789664
      6         15           0       -1.407998   -0.086584    0.008707
      7          6           0        1.064214   -1.225871    0.006280
      8          1           0        1.773410   -1.275550   -0.829136
      9          1           0        0.397866   -2.086970   -0.058880
     10          1           0        1.633560   -1.300442    0.942551
     11          1           0       -1.619930    1.318446   -0.033316
 ---------------------------------------------------------------------

 SCF Done:  E(UHF) =  -475.823378149     A.U. after    2 cycles

 The electronic state is 2-A.
 Alpha  occ. eigenvalues -- -105.18057 -15.73064 -11.39709 -11.39080  -2.75669
 Alpha  occ. eigenvalues --   -1.56752  -1.44660  -1.43254  -1.30759  -1.04322
 Alpha  occ. eigenvalues --   -0.88129  -0.70419  -0.64148  -0.60128  -0.56800
 Alpha  occ. eigenvalues --   -0.55103  -0.51040  -0.35376  -0.28842  -0.08658
 Alpha  occ. eigenvalues --    0.02766
 Alpha virt. eigenvalues --    0.03566   0.05679   0.06179   0.06586   0.07091
 Alpha virt. eigenvalues --    0.07314   0.07563   0.10538   0.12381   0.12902
 Alpha virt. eigenvalues --    0.14207   0.15412   0.16487   0.17082   0.17403

  Beta  occ. eigenvalues -- -105.17557 -15.72031 -11.39790 -11.39162  -2.74190
  Beta  occ. eigenvalues --   -1.55734  -1.43539  -1.29292  -1.24012  -1.04325
  Beta  occ. eigenvalues --   -0.87003  -0.68432  -0.62340  -0.59893  -0.55393
  Beta  occ. eigenvalues --   -0.54972  -0.50842  -0.29063  -0.27165  -0.05513
  Beta virt. eigenvalues --    0.03577   0.05717   0.06102   0.06648   0.07109
  Beta virt. eigenvalues --    0.07343   0.07683   0.09252   0.10644   0.12652
  Beta virt. eigenvalues --    0.13192   0.14281   0.15456   0.16897   0.17404

 Mulliken charges and spin densities:
               1          2
     1  C   -3.356042  -0.025644
     2  N   -1.232007  -0.280075
     3  H    1.245154   0.051059
     4  H    1.443198  -0.005391
     5  H    1.363307   0.013712
     6  P    1.666408   1.402730
     7  C   -3.526840  -0.040963
     8  H    1.369332   0.006936
     9  H    1.276924  -0.034125
    10  H    1.305392   0.034137
    11  H   -1.554828  -0.122377
 Sum of Mulliken charges =  -0.00000   1.00000

 Dipole moment (field-independent basis, Debye):
    X=              0.3111    Y=             -1.9729    Z=             -1.2506  Tot=              2.3565
                          Isotropic Fermi Contact Couplings
        Atom                 a.u.       MegaHertz       Gauss      10(-4) cm-1
     1  C(13)             -0.00801      -9.00307      -3.21252      -3.00310
     2  N(14)              0.09891      31.95917      11.40383      10.66043
     3  H(1)               0.00148       6.61043       2.35876       2.20500
     4  H(1)               0.00032       1.44908       0.51707       0.48336
     5  H(1)               0.00087       3.89281       1.38905       1.29850
     6  P(31)              0.24697     447.28218     159.60141     149.19728
     7  C(13)             -0.00871      -9.79256      -3.49423      -3.26645
     8  H(1)               0.00076       3.38143       1.20658       1.12792

 Normal termination of Gaussian 16 at Tue Apr  8 23:32:13 2025.
