 Gaussian 16, Revision C.01,

 ----------------------------------------------------------------------
 #t hf aug-cc-pvdz symm=none int=(grid=ultrafine) guess=(read,tcheck) s
 table=opt
 ----------------------------------------------------------------------
 -----
 title
 -----
 Symbolic Z-matrix:
 Charge =  0 Multiplicity = 2

 SCF Done:  E(UHF) =  -305.276769930     a.u. after   13 cycles
 Normal termination of Gaussian 16 at Tue Apr  8 22:59:34 2025.
 Gaussian 16:  ES64L-G16RevC.01  3-Jul-2019

 ----------------------------------------------------------------------
 #t hf aug-cc-pvdz iop(5/13=1,5/36=2,99/5=2) pseudo=read geom=check gue
 ss=(read,tcheck) scf=(maxcycle=1)
 ----------------------------------------------------------------------
 -----
 title
 -----
 Structure from the checkpoint file:  "BDE49_expt_1877_mol2.chk"
 Charge =  0 Multiplicity = 2

                         Standard orientation:
 ---------------------------------------------------------------------
 Center     Atomic      Atomic             Coordinates (Angstroms)
 Number     Number       Type             X           Y           Z
 ---------------------------------------------------------------------
      1          8           0       -2.075090    0.267687    0.625417
      2          6           0       -1.032627    0.019006   -0.036662
      3          8           0       -1.081577   -1.120552   -0.561542
      4          6           0        1.446415    0.313273   -0.529738
      5          6           0        0.104665    0.984165   -0.197940
      6          1           0        0.163975    1.583872    0.715959
      7          1           0       -0.190997    1.670812   -1.000272
      8          6           0        2.027218   -0.496574    0.632867
      9          1           0        2.150587    1.096676   -0.824883
     10          1           0        1.316434   -0.331255   -1.403786
     11          1           0        2.188953    0.133719    1.512686
     12          1           0        2.989016   -0.935992    0.357969
     13          1           0        1.361343   -1.314132    0.920161
 ---------------------------------------------------------------------

 SCF Done:  E(UHF) =  -306.600870069     A.U. after    2 cycles

 The electronic state is 2-A.
 Alpha  occ. eigenvalues --  -21.19250 -21.04385 -11.53289 -11.44642 -11.41014
 Alpha  occ. eigenvalues --  -11.36766  -1.87922  -1.62439  -1.24163  -1.06116
 Alpha  occ. eigenvalues --   -0.89285  -0.76162  -0.67791  -0.66488  -0.62347
 Alpha  occ. eigenvalues --   -0.58905  -0.56187  -0.53958  -0.49302  -0.47743
 Alpha  occ. eigenvalues --   -0.46673  -0.42038  -0.33613  -0.30690
 Alpha virt. eigenvalues --    0.03449   0.05015   0.05259   0.05437   0.06207
 Alpha virt. eigenvalues --    0.06808   0.07985   0.09888   0.11352   0.12480
 Alpha virt. eigenvalues --    0.13446   0.13718   0.14006   0.14548   0.15076

  Beta  occ. eigenvalues --  -21.15405 -21.03915 -11.53544 -11.44604 -11.40994
  Beta  occ. eigenvalues --  -11.36760  -1.80410  -1.56694  -1.23868  -1.05680
  Beta  occ. eigenvalues --   -0.88861  -0.74969  -0.66371  -0.65368  -0.58990
  Beta  occ. eigenvalues --   -0.57180  -0.54744  -0.50872  -0.48717  -0.47418
  Beta  occ. eigenvalues --   -0.46019  -0.31664  -0.29996
  Beta virt. eigenvalues --    0.03459   0.04965   0.05109   0.05439   0.06125
  Beta virt. eigenvalues --    0.06690   0.07917   0.09818   0.10045   0.11874
  Beta virt. eigenvalues --    0.12772   0.13546   0.13993   0.14329   0.15077

 Mulliken charges and spin densities:
               1          2
     1  O   -2.404709   1.162993
     2  C    5.542929  -0.386150
     3  O   -2.674833   0.051517
     4  C   -2.838675   0.011991
     5  C   -3.407135   0.138129
     6  H    1.476780   0.027139
     7  H    1.418934  -0.000852
     8  C   -3.620664  -0.005865
     9  H    1.279137   0.001811
    10  H    1.439694  -0.003801
    11  H    1.273562   0.001226
    12  H    1.145374  -0.000498
    13  H    1.369607   0.002360
 Sum of Mulliken charges =   0.00000   1.00000

 Dipole moment (field-independent basis, Debye):
    X=              1.2881    Y=              1.6565    Z=              0.2059  Tot=              2.1085
                          Isotropic Fermi Contact Couplings
        Atom                 a.u.       MegaHertz       Gauss      10(-4) cm-1
     1  O(17)              0.19834    -120.23366     -42.90236     -40.10563
     2  C(13)             -0.03186     -35.82094     -12.78180     -11.94858
     3  O(17)              0.03531     -21.40495      -7.63782      -7.13992
     4  C(13)              0.00321       3.60786       1.28737       1.20345
     5  C(13)              0.00673       7.56830       2.70056       2.52451
     6  H(1)              -0.00010      -0.44456      -0.15863      -0.14829
     7  H(1)              -0.00072      -3.20632      -1.14409      -1.06951
     8  C(13)             -0.00009      -0.09563      -0.03412      -0.03190

 Normal termination of Gaussian 16 at Tue Apr  8 22:59:38 2025.
