 Gaussian 16, Revision C.01,

 ----------------------------------------------------------------------
 #t hf aug-cc-pvdz symm=none int=(grid=ultrafine) guess=(read,tcheck) s
 table=(opt,rrhf)
 ----------------------------------------------------------------------
 -----
 title
 -----
 Symbolic Z-matrix:
 Charge =  0 Multiplicity = 1

 SCF Done:  E(RHF) =  -750.651548117     A.U. after   17 cycles
 Normal termination of Gaussian 16 at Tue Apr  8 23:38:17 2025.
 Gaussian 16:  ES64L-G16RevC.01  3-Jul-2019

 ----------------------------------------------------------------------
 #t hf aug-cc-pvdz iop(5/13=1,5/36=2,99/5=2) pseudo=read geom=check gue
 ss=(read,tcheck) scf=(maxcycle=1)
 ----------------------------------------------------------------------
 -----
 title
 -----
 Structure from the checkpoint file:  "BDE49_nonexpt_1537_mol1.chk"
 Charge =  0 Multiplicity = 1

                         Standard orientation:
 ---------------------------------------------------------------------
 Center     Atomic      Atomic             Coordinates (Angstroms)
 Number     Number       Type             X           Y           Z
 ---------------------------------------------------------------------
      1         15           0        0.072568   -1.134500    0.130713
      2          7           0        1.401128    0.212884   -0.136612
      3          7           0       -1.371701   -0.234167    0.248236
      4          8           0        2.555153   -0.150167   -0.035691
      5          8           0        1.024816    1.350669   -0.402802
      6          8           0       -1.403444    0.946077    0.993993
      7          8           0       -1.926996   -0.027301   -1.040821
      8          1           0       -2.862633   -0.234815   -0.916197
      9          1           0       -0.775515    1.542067    0.542608
     10          1           0        0.347401   -1.094998    1.514093
 ---------------------------------------------------------------------

 SCF Done:  E(RHF) =  -752.537658722     A.U. after    2 cycles

 The electronic state is 1-A.
 Alpha  occ. eigenvalues -- -105.28764 -21.13629 -21.12658 -21.11650 -21.10684
 Alpha  occ. eigenvalues --  -15.98983 -15.83781  -2.86175  -1.99932  -1.90098
 Alpha  occ. eigenvalues --   -1.71623  -1.70543  -1.61104  -1.54399  -1.52547
 Alpha  occ. eigenvalues --   -1.07677  -0.93217  -0.77869  -0.70474  -0.66432
 Alpha  occ. eigenvalues --   -0.62565  -0.62000  -0.59048  -0.55445  -0.48450
 Alpha  occ. eigenvalues --   -0.37396  -0.35041  -0.34163  -0.32813  -0.29404
 Alpha  occ. eigenvalues --   -0.26443  -0.07114
 Alpha virt. eigenvalues --    0.04010   0.05666   0.07025   0.08328   0.09384
 Alpha virt. eigenvalues --    0.09910   0.13031   0.14234   0.15079   0.16237
 Alpha virt. eigenvalues --    0.16802   0.17768   0.19239   0.19778   0.20888

 Mulliken charges:
               1
     1  P    3.016288
     2  N    4.197797
     3  N    2.163309
     4  O   -2.721473
     5  O   -2.454857
     6  O   -2.289145
     7  O   -2.307486
     8  H    0.851728
     9  H    0.885639
    10  H   -1.341799
 Sum of Mulliken charges =  -0.00000

 Dipole moment (field-independent basis, Debye):
    X=             -2.3270    Y=             -2.1880    Z=             -1.4979  Tot=              3.5279

 Test job not archived.
 1\1\GINC-SE212\SP\RHF\Aug-CC-pVDZ\H3N2O4P1\OHZDE\08-Apr-2025\0\\#t hf
 aug-cc-pvdz iop(5/13=1,5/36=2,99/5=2) pseudo=read geom=check guess=(re
 ad,tcheck) scf=(maxcycle=1)\\title\\0,1\P,0,0.072568,-1.1345,0.130713\
 N,0,1.401128,0.212884,-0.136612\N,0,-1.371701,-0.234167,0.248236\O,0,2
 .555153,-0.150168,-0.035691\O,0,1.024816,1.350669,-0.402802\O,0,-1.403
 444,0.946077,0.993993\O,0,-1.926996,-0.027301,-1.040821\H,0,-2.862633,
 -0.234815,-0.916197\H,0,-0.775515,1.542067,0.542608\H,0,0.347401,-1.09
 4998,1.514093\\Version=ES64L-G16RevC.01\State=1-A\HF=-752.5376587\RMSD

 Normal termination of Gaussian 16 at Tue Apr  8 23:38:21 2025.
