 Gaussian 16, Revision C.01,

 ----------------------------------------------------------------------
 #t hf aug-cc-pvdz symm=none int=(grid=ultrafine) guess=(read,tcheck) s
 table=(opt,rrhf)
 ----------------------------------------------------------------------
 -----
 title
 -----
 Symbolic Z-matrix:
 Charge =  0 Multiplicity = 1

 SCF Done:  E(RHF) =  -1119.57859789     A.U. after   15 cycles
 Normal termination of Gaussian 16 at Wed Apr  9 00:21:40 2025.
 Gaussian 16:  ES64L-G16RevC.01  3-Jul-2019

 ----------------------------------------------------------------------
 #t hf aug-cc-pvdz iop(5/13=1,5/36=2,99/5=2) pseudo=read geom=check gue
 ss=(read,tcheck) scf=(maxcycle=1)
 ----------------------------------------------------------------------
 -----
 title
 -----
 Structure from the checkpoint file:  "BDE49_nonexpt_2643_mol1.chk"
 Charge =  0 Multiplicity = 1

                         Standard orientation:
 ---------------------------------------------------------------------
 Center     Atomic      Atomic             Coordinates (Angstroms)
 Number     Number       Type             X           Y           Z
 ---------------------------------------------------------------------
      1          9           0        2.070842   -0.727656   -0.038171
      2         16           0        1.257359    0.711810    0.090125
      3         16           0       -0.720783    0.024042   -0.127570
      4          8           0       -1.440521    1.258711   -0.048922
      5          8           0       -0.825988   -0.915723   -1.205007
      6          8           0       -1.020016   -0.780020    1.239665
      7          1           0       -0.930597   -1.728477    1.056779
 ---------------------------------------------------------------------

 SCF Done:  E(RHF) =  -1121.32950106     A.U. after    2 cycles

 The electronic state is 1-A.
 Alpha  occ. eigenvalues --  -75.96867 -75.82023 -29.32130 -21.17009 -21.10604
 Alpha  occ. eigenvalues --  -21.10457 -13.60437 -13.48996 -13.39211 -13.25360
 Alpha  occ. eigenvalues --  -13.18561 -13.12841  -8.31993  -8.15993  -1.94474
 Alpha  occ. eigenvalues --   -1.75625  -1.70847  -1.26867  -0.97714  -0.74628
 Alpha  occ. eigenvalues --   -0.68848  -0.63532  -0.60824  -0.50389  -0.49886
 Alpha  occ. eigenvalues --   -0.46014  -0.44113  -0.43623  -0.41210  -0.40381
 Alpha  occ. eigenvalues --   -0.36890  -0.29649  -0.23205
 Alpha virt. eigenvalues --    0.03364   0.05536   0.08383   0.09592   0.11273
 Alpha virt. eigenvalues --    0.12190   0.13292   0.13933   0.15754   0.17687
 Alpha virt. eigenvalues --    0.18362   0.20307   0.21556   0.22631   0.22768

 Mulliken charges:
               1
     1  F   -0.174331
     2  S    0.703845
     3  S    5.726208
     4  O   -2.363268
     5  O   -2.385141
     6  O   -2.310420
     7  H    0.803107
 Sum of Mulliken charges =  -0.00000

 Dipole moment (field-independent basis, Debye):
    X=              3.5885    Y=             -2.5799    Z=              1.1457  Tot=              4.5657

 Test job not archived.
 1\1\GINC-SE460\SP\RHF\Aug-CC-pVDZ\F1H1O3S2\OHZDE\09-Apr-2025\0\\#t hf
 aug-cc-pvdz iop(5/13=1,5/36=2,99/5=2) pseudo=read geom=check guess=(re
 ad,tcheck) scf=(maxcycle=1)\\title\\0,1\F,0,2.070842,-0.727656,-0.0381
 71\S,0,1.257359,0.71181,0.090125\S,0,-0.720783,0.024042,-0.12757\O,0,-
 1.440521,1.258711,-0.048922\O,0,-0.825988,-0.915723,-1.205007\O,0,-1.0
 20016,-0.78002,1.239665\H,0,-0.930597,-1.728477,1.056779\\Version=ES64
 L-G16RevC.01\State=1-A\HF=-1121.3295011\RMSD=6.140e-02\Dipole=1.411835
 2,-1.0150024,0.4507656\Quadrupole=3.1390376,0.4609423,-3.5999799,0.451

 Normal termination of Gaussian 16 at Wed Apr  9 00:21:43 2025.
