 Gaussian 16, Revision C.01,

 ----------------------------------------------------------------------
 #t hf aug-cc-pvdz symm=none int=(grid=ultrafine) guess=(read,tcheck) s
 table=(opt,rrhf)
 ----------------------------------------------------------------------
 -----
 title
 -----
 Symbolic Z-matrix:
 Charge =  0 Multiplicity = 1

 SCF Done:  E(RHF) =  -399.667552758     A.U. after   15 cycles
 Normal termination of Gaussian 16 at Tue Apr  8 22:44:35 2025.
 Gaussian 16:  ES64L-G16RevC.01  3-Jul-2019

 ----------------------------------------------------------------------
 #t hf aug-cc-pvdz iop(5/13=1,5/36=2,99/5=2) pseudo=read geom=check gue
 ss=(read,tcheck) scf=(maxcycle=1)
 ----------------------------------------------------------------------
 -----
 title
 -----
 Structure from the checkpoint file:  "BDE49_expt_1404_mol1.chk"
 Charge =  0 Multiplicity = 1

                         Standard orientation:
 ---------------------------------------------------------------------
 Center     Atomic      Atomic             Coordinates (Angstroms)
 Number     Number       Type             X           Y           Z
 ---------------------------------------------------------------------
      1          6           0       -1.709553    1.066150   -0.002872
      2          6           0       -1.650372   -0.339721   -0.007384
      3          6           0       -0.401235   -0.963656   -0.006611
      4          6           0       -0.536044    1.803216    0.003446
      5          6           0        0.718090    1.188970    0.004394
      6          6           0        0.773511   -0.207701   -0.001071
      7          1           0       -2.672443    1.565525   -0.010928
      8          1           0       -0.315934   -2.044497   -0.015445
      9          1           0       -0.590778    2.886515    0.008456
     10          1           0        1.614888    1.791741    0.009928
     11          8           0        1.930158   -0.934787    0.001122
     12          6           0        3.166191   -0.236638    0.003446
     13          1           0        3.940253   -1.002708    0.002889
     14          1           0        3.275578    0.386521    0.898210
     15          1           0        3.277067    0.389408   -0.889029
     16          7           0       -2.821140   -1.096264   -0.074067
     17          1           0       -3.646230   -0.639076    0.284837
     18          1           0       -2.739210   -2.045008    0.260478
 ---------------------------------------------------------------------

 SCF Done:  E(RHF) =  -401.538391687     A.U. after    2 cycles

 The electronic state is 1-A.
 Alpha  occ. eigenvalues --  -21.06904 -15.75588 -11.52396 -11.46869 -11.43568
 Alpha  occ. eigenvalues --  -11.41201 -11.39568 -11.39293 -11.35645  -1.78234
 Alpha  occ. eigenvalues --   -1.39843  -1.24685  -1.08993  -1.04801  -0.98379
 Alpha  occ. eigenvalues --   -0.86450  -0.82238  -0.70168  -0.67671  -0.65691
 Alpha  occ. eigenvalues --   -0.61939  -0.61677  -0.58061  -0.57252  -0.53388
 Alpha  occ. eigenvalues --   -0.52252  -0.46722  -0.46169  -0.44610  -0.38604
 Alpha  occ. eigenvalues --   -0.38352  -0.28296  -0.25541
 Alpha virt. eigenvalues --    0.03484   0.04733   0.05075   0.05644   0.06303
 Alpha virt. eigenvalues --    0.06563   0.06995   0.08088   0.09441   0.10384
 Alpha virt. eigenvalues --    0.11845   0.12232   0.13306   0.13639   0.14050

 Mulliken charges:
               1
     1  C   -3.252301
     2  C    3.317200
     3  C   -3.670436
     4  C    0.808858
     5  C   -3.847248
     6  C    6.658605
     7  H    1.694783
     8  H    1.933770
     9  H    1.500436
    10  H    1.894769
    11  O   -4.776212
    12  C   -3.678489
    13  H    1.446715
    14  H    1.352479
    15  H    1.357961
    16  N   -4.005254
    17  H    0.629739
    18  H    0.634624
 Sum of Mulliken charges =  -0.00000

 Dipole moment (field-independent basis, Debye):
    X=             -0.0281    Y=             -0.4841    Z=              0.7662  Tot=              0.9067

 Test job not archived.
 1\1\GINC-SE016\SP\RHF\Aug-CC-pVDZ\C7H9N1O1\OHZDE\08-Apr-2025\0\\#t hf
 aug-cc-pvdz iop(5/13=1,5/36=2,99/5=2) pseudo=read geom=check guess=(re
 ad,tcheck) scf=(maxcycle=1)\\title\\0,1\C,0,-1.709553,1.06615,-0.00287
 2\C,0,-1.650372,-0.339721,-0.007384\C,0,-0.401235,-0.963656,-0.006611\
 C,0,-0.536044,1.803216,0.003446\C,0,0.71809,1.18897,0.004394\C,0,0.773
 511,-0.207701,-0.001071\H,0,-2.672443,1.565525,-0.010928\H,0,-0.315934
 ,-2.044497,-0.015445\H,0,-0.590778,2.886515,0.008456\H,0,1.614888,1.79
 1741,0.009928\O,0,1.930158,-0.934787,0.001122\C,0,3.166191,-0.236638,0

 Normal termination of Gaussian 16 at Tue Apr  8 22:44:43 2025.
