 Gaussian 16, Revision C.01,

 ----------------------------------------------------------------------
 #t hf aug-cc-pvdz symm=none int=(grid=ultrafine) guess=(read,tcheck) s
 table=(opt,rrhf)
 ----------------------------------------------------------------------
 -----
 title
 -----
 Symbolic Z-matrix:
 Charge =  0 Multiplicity = 1

 SCF Done:  E(RHF) =  -1191.16499422     A.U. after   19 cycles
 Normal termination of Gaussian 16 at Tue Apr  8 23:10:34 2025.
 Gaussian 16:  ES64L-G16RevC.01  3-Jul-2019

 ----------------------------------------------------------------------
 #t hf aug-cc-pvdz iop(5/13=1,5/36=2,99/5=2) pseudo=read geom=check gue
 ss=(read,tcheck) scf=(maxcycle=1)
 ----------------------------------------------------------------------
 -----
 title
 -----
 Structure from the checkpoint file:  "BDE49_expt_1764_mol1.chk"
 Charge =  0 Multiplicity = 1

                         Standard orientation:
 ---------------------------------------------------------------------
 Center     Atomic      Atomic             Coordinates (Angstroms)
 Number     Number       Type             X           Y           Z
 ---------------------------------------------------------------------
      1          7           0        0.667145   -1.022312    0.325791
      2          7           0        0.468029   -1.753844    1.499039
      3          8           0        1.307238   -1.584745    2.337077
      4         16           0       -0.597253   -1.197919   -0.847873
      5          8           0       -1.145765   -2.508596   -0.651845
      6          6           0       -1.799953    0.014081   -0.340121
      7          6           0        1.717739   -0.055797    0.170231
      8          6           0        1.686932    1.121628    0.918439
      9          6           0        2.719371    2.044528    0.785241
     10          6           0        3.771536    1.793755   -0.093862
     11          6           0        3.795546    0.615441   -0.837729
     12          6           0        2.771239   -0.316781   -0.704432
     13          1           0        2.701629    2.958358    1.367545
     14          1           0        4.612945    0.419776   -1.521724
     15          1           0        2.775147   -1.236167   -1.274883
     16          6           0       -2.731689   -0.329387    0.639906
     17          6           0       -1.796299    1.271134   -0.942067
     18          1           0        0.865504    1.303952    1.599919
     19          8           0       -0.008403   -0.771573   -2.088259
     20          6           0       -2.746010    2.208144   -0.542094
     21          6           0       -3.672157    0.618258    1.030011
     22          6           0       -3.678137    1.883551    0.441778
     23          1           0       -2.759966    3.188168   -1.004150
     24          1           0       -4.416472    2.615923    0.747463
     25          1           0       -1.073165    1.496270   -1.714714
     26          1           0       -2.717927   -1.320449    1.074796
     27          1           0       -4.404755    0.366450    1.787609
     28          1           0        4.573631    2.515507   -0.197308
 ---------------------------------------------------------------------

 SCF Done:  E(RHF) =  -1195.04679844     A.U. after    2 cycles

 The electronic state is 1-A.
 Alpha  occ. eigenvalues --  -75.92496 -21.12202 -21.06676 -21.06580 -15.91146
 Alpha  occ. eigenvalues --  -15.79567 -13.56715 -13.46477 -13.43158 -11.55620
 Alpha  occ. eigenvalues --  -11.54828 -11.47383 -11.47007 -11.46772 -11.44897
 Alpha  occ. eigenvalues --  -11.44634 -11.43760 -11.43081 -11.42170 -11.39938
 Alpha  occ. eigenvalues --  -11.38150  -8.27614  -1.89515  -1.85990  -1.67668
 Alpha  occ. eigenvalues --   -1.47920  -1.37527  -1.32822  -1.15648  -1.12503
 Alpha  occ. eigenvalues --   -1.11854  -1.10979  -1.02744  -0.94963  -0.89951
 Alpha  occ. eigenvalues --   -0.88797  -0.87838  -0.81311  -0.75681  -0.72230
 Alpha  occ. eigenvalues --   -0.71078  -0.67846  -0.66395  -0.65550  -0.62043
 Alpha  occ. eigenvalues --   -0.61495  -0.60885  -0.60578  -0.59739  -0.56123
 Alpha  occ. eigenvalues --   -0.55544  -0.53101  -0.51668  -0.49915  -0.49481
 Alpha  occ. eigenvalues --   -0.48662  -0.46917  -0.45266  -0.42996  -0.41658
 Alpha  occ. eigenvalues --   -0.40158  -0.38232  -0.37408  -0.35948  -0.35603
 Alpha  occ. eigenvalues --   -0.34154  -0.32768  -0.29738
 Alpha virt. eigenvalues --    0.02731   0.04193   0.04578   0.04672   0.05205
 Alpha virt. eigenvalues --    0.05319   0.06652   0.06744   0.07200   0.07680
 Alpha virt. eigenvalues --    0.07856   0.08682   0.09773   0.10270   0.10937

 Mulliken charges:
               1
     1  N   -2.786718
     2  N    0.576636
     3  O   -2.039314
     4  S    6.717489
     5  O   -3.044529
     6  C    3.250548
     7  C    4.407161
     8  C   -2.467312
     9  C   -0.393515
    10  C   -2.700267
    11  C   -0.494041
    12  C   -3.301899
    13  H    1.583537
    14  H    1.586766
    15  H    1.860507
    16  C   -3.669156
    17  C   -3.957392
    18  H    2.023059
    19  O   -3.094918
    20  C   -0.749940
    21  C   -0.797610
    22  C   -2.780716
    23  H    1.523923
    24  H    1.587642
    25  H    2.040461
    26  H    1.986055
    27  H    1.544174
    28  H    1.589366
 Sum of Mulliken charges =   0.00000

 Dipole moment (field-independent basis, Debye):
    X=             -0.1897    Y=              3.8047    Z=              0.5992  Tot=              3.8563

 Test job not archived.
 1\1\GINC-SE132\SP\RHF\Aug-CC-pVDZ\C12H10N2O3S1\OHZDE\08-Apr-2025\0\\#t
  hf aug-cc-pvdz iop(5/13=1,5/36=2,99/5=2) pseudo=read geom=check guess
 =(read,tcheck) scf=(maxcycle=1)\\title\\0,1\N,0,0.667145,-1.022312,0.3
 25791\N,0,0.468029,-1.753844,1.499039\O,0,1.307238,-1.584745,2.337077\
 S,0,-0.597253,-1.197919,-0.847873\O,0,-1.145765,-2.508596,-0.651845\C,
 0,-1.799953,0.014081,-0.340121\C,0,1.717739,-0.055797,0.170231\C,0,1.6
 86932,1.121628,0.918439\C,0,2.719371,2.044528,0.785241\C,0,3.771536,1.
 793755,-0.093862\C,0,3.795546,0.615441,-0.837729\C,0,2.771239,-0.31678

 Normal termination of Gaussian 16 at Tue Apr  8 23:11:16 2025.
