 Gaussian 16, Revision C.01,

 ----------------------------------------------------------------------
 #t hf aug-cc-pvdz symm=none int=(grid=ultrafine) guess=(read,tcheck) s
 table=(opt,rrhf)
 ----------------------------------------------------------------------
 -----
 title
 -----
 Symbolic Z-matrix:
 Charge =  0 Multiplicity = 1

 SCF Done:  E(RHF) =  -198.613199811     A.U. after   12 cycles
 Normal termination of Gaussian 16 at Wed Apr  9 00:37:01 2025.
 Gaussian 16:  ES64L-G16RevC.01  3-Jul-2019

 ----------------------------------------------------------------------
 #t hf aug-cc-pvdz iop(5/13=1,5/36=2,99/5=2) pseudo=read geom=check gue
 ss=(read,tcheck) scf=(maxcycle=1)
 ----------------------------------------------------------------------
 -----
 title
 -----
 Structure from the checkpoint file:  "BDE49_nonexpt_549_mol1.chk"
 Charge =  0 Multiplicity = 1

                         Standard orientation:
 ---------------------------------------------------------------------
 Center     Atomic      Atomic             Coordinates (Angstroms)
 Number     Number       Type             X           Y           Z
 ---------------------------------------------------------------------
      1          5           0        2.518739    0.268136   -0.349932
      2          7           0        1.412677   -0.317037    0.249284
      3          6           0       -2.393873    0.197075   -0.073333
      4          6           0        0.097177    0.280875    0.460996
      5          6           0       -1.016590   -0.423618   -0.321923
      6          1           0        0.161544    1.329307    0.160009
      7          1           0       -0.146191    0.267886    1.531419
      8          1           0       -1.034703   -1.484749   -0.044254
      9          1           0       -0.771447   -0.387059   -1.388418
     10          1           0       -2.414063    1.249295   -0.372994
     11          1           0       -2.667800    0.148722    0.985159
     12          1           0       -3.169853   -0.323003   -0.640129
     13          1           0        3.521735   -0.369263   -0.456725
     14          1           0        2.440060    1.393384   -0.741540
     15          1           0        1.477996   -1.271928    0.577702
 ---------------------------------------------------------------------

 SCF Done:  E(RHF) =  -199.623454650     A.U. after    2 cycles

 The electronic state is 1-A.
 Alpha  occ. eigenvalues --  -15.70889 -11.43048 -11.39184 -11.35323  -7.58868
 Alpha  occ. eigenvalues --   -1.38666  -1.17190  -0.98769  -0.85366  -0.80481
 Alpha  occ. eigenvalues --   -0.66015  -0.61930  -0.57439  -0.54945  -0.52711
 Alpha  occ. eigenvalues --   -0.48001  -0.47412  -0.46473  -0.43426  -0.36326
 Alpha virt. eigenvalues --    0.03513   0.03665   0.04247   0.04874   0.05782
 Alpha virt. eigenvalues --    0.06073   0.06467   0.06788   0.08940   0.09281
 Alpha virt. eigenvalues --    0.09771   0.10934   0.12097   0.12356   0.13274

 Mulliken charges:
               1
     1  B    7.146698
     2  N   -2.790715
     3  C   -3.551866
     4  C   -1.668883
     5  C   -3.116387
     6  H    1.655817
     7  H    1.376400
     8  H    1.471477
     9  H    1.488138
    10  H    1.269606
    11  H    1.259000
    12  H    1.150600
    13  H   -3.639902
    14  H   -3.156390
    15  H    1.106408
 Sum of Mulliken charges =   0.00000

 Dipole moment (field-independent basis, Debye):
    X=             -1.5530    Y=             -0.8245    Z=              0.7024  Tot=              1.8934

 Test job not archived.
 1\1\GINC-SE462\SP\RHF\Aug-CC-pVDZ\C3H10B1N1\OHZDE\09-Apr-2025\0\\#t hf
  aug-cc-pvdz iop(5/13=1,5/36=2,99/5=2) pseudo=read geom=check guess=(r
 ead,tcheck) scf=(maxcycle=1)\\title\\0,1\B,0,2.518739,0.268136,-0.3499
 32\N,0,1.412677,-0.317037,0.249284\C,0,-2.393873,0.197075,-0.073333\C,
 0,0.097177,0.280875,0.460996\C,0,-1.01659,-0.423618,-0.321923\H,0,0.16
 1544,1.329307,0.160009\H,0,-0.146191,0.267886,1.531419\H,0,-1.034703,-
 1.484749,-0.044254\H,0,-0.771447,-0.387059,-1.388418\H,0,-2.414063,1.2
 49295,-0.372994\H,0,-2.6678,0.148722,0.985159\H,0,-3.169853,-0.323003,

 Normal termination of Gaussian 16 at Wed Apr  9 00:37:04 2025.
