 Gaussian 16, Revision C.01,

 ----------------------------------------------------------------------
 #t hf aug-cc-pvdz symm=none int=(grid=ultrafine) guess=(read,tcheck) s
 table=opt
 ----------------------------------------------------------------------
 -----
 title
 -----
 Symbolic Z-matrix:
 Charge =  0 Multiplicity = 2

 SCF Done:  E(UHF) =  -175.646911763     A.U. after   14 cycles
 Normal termination of Gaussian 16 at Wed Apr  9 00:27:39 2025.
 Gaussian 16:  ES64L-G16RevC.01  3-Jul-2019

 ----------------------------------------------------------------------
 #t hf aug-cc-pvdz iop(5/13=1,5/36=2,99/5=2) pseudo=read geom=check gue
 ss=(read,tcheck) scf=(maxcycle=1)
 ----------------------------------------------------------------------
 -----
 title
 -----
 Structure from the checkpoint file:  "BDE49_nonexpt_291_mol3.chk"
 Charge =  0 Multiplicity = 2

                         Standard orientation:
 ---------------------------------------------------------------------
 Center     Atomic      Atomic             Coordinates (Angstroms)
 Number     Number       Type             X           Y           Z
 ---------------------------------------------------------------------
      1          5           0       -0.000779   -0.521477   -0.000010
      2          8           0        1.229050    0.020232    0.000001
      3          8           0       -1.138680    0.220768    0.000004
      4          1           0       -1.938599   -0.310807   -0.000006
      5          1           0        1.219540    0.990193    0.000019
 ---------------------------------------------------------------------

 SCF Done:  E(UHF) =  -176.337690776     A.U. after    2 cycles

 The electronic state is 2-A.
 Alpha  occ. eigenvalues --  -21.07767 -21.06610  -7.66839  -1.81252  -1.67022
 Alpha  occ. eigenvalues --   -0.75564  -0.64587  -0.56077  -0.49756  -0.43732
 Alpha  occ. eigenvalues --   -0.37014  -0.29842
 Alpha virt. eigenvalues --    0.03722   0.04418   0.04902   0.05658   0.08953
 Alpha virt. eigenvalues --    0.11082   0.16482   0.17790   0.20756   0.21817
 Alpha virt. eigenvalues --    0.22936   0.24004   0.24196   0.24763   0.25735

  Beta  occ. eigenvalues --  -21.07513 -21.06481  -7.64841  -1.80332  -1.66498
  Beta  occ. eigenvalues --   -0.73478  -0.62955  -0.50757  -0.49027  -0.42552
  Beta  occ. eigenvalues --   -0.37456
  Beta virt. eigenvalues --    0.02629   0.04364   0.05025   0.05130   0.08190
  Beta virt. eigenvalues --    0.09068   0.15322   0.18496   0.20158   0.21403
  Beta virt. eigenvalues --    0.22103   0.23024   0.24317   0.24543   0.25035

 Mulliken charges and spin densities:
               1          2
     1  B    3.293106   1.262582
     2  O   -2.979124  -0.161760
     3  O   -2.755361  -0.111984
     4  H    1.415296   0.000596
     5  H    1.026082   0.010566
 Sum of Mulliken charges =   0.00000   1.00000

 Dipole moment (field-independent basis, Debye):
    X=             -1.0146    Y=              0.7360    Z=              0.0000  Tot=              1.2534
                          Isotropic Fermi Contact Couplings
        Atom                 a.u.       MegaHertz       Gauss      10(-4) cm-1
     1  B(11)              0.29994     430.22018     153.51326     143.50600
     2  O(17)              0.16807    -101.88164     -36.35390     -33.98406
     3  O(17)              0.03594     -21.78741      -7.77429      -7.26750
     4  H(1)               0.00337      15.08106       5.38130       5.03050
     5  H(1)               0.01403      62.70867      22.37601      20.91736
 --------------------------------------------------------
       Center         ----  Spin Dipole Couplings  ----
                      3XX-RR        3YY-RR        3ZZ-RR

 Normal termination of Gaussian 16 at Wed Apr  9 00:27:41 2025.
