 Gaussian 16, Revision C.01,

 ----------------------------------------------------------------------
 #t hf aug-cc-pvdz symm=none int=(grid=ultrafine) guess=(read,tcheck) s
 table=(opt,rrhf)
 ----------------------------------------------------------------------
 -----
 title
 -----
 Symbolic Z-matrix:
 Charge =  0 Multiplicity = 1

 SCF Done:  E(RHF) =  -934.165395295     A.U. after   13 cycles
 Normal termination of Gaussian 16 at Tue Apr  8 23:41:38 2025.
 Gaussian 16:  ES64L-G16RevC.01  3-Jul-2019

 ----------------------------------------------------------------------
 #t hf aug-cc-pvdz iop(5/13=1,5/36=2,99/5=2) pseudo=read geom=check gue
 ss=(read,tcheck) scf=(maxcycle=1)
 ----------------------------------------------------------------------
 -----
 title
 -----
 Structure from the checkpoint file:  "BDE49_nonexpt_1640_mol1.chk"
 Charge =  0 Multiplicity = 1

                         Standard orientation:
 ---------------------------------------------------------------------
 Center     Atomic      Atomic             Coordinates (Angstroms)
 Number     Number       Type             X           Y           Z
 ---------------------------------------------------------------------
      1         14           0       -0.896888    0.991236    0.013513
      2         15           0        1.080147   -0.131092    0.106885
      3          8           0        1.387110   -0.792202    1.389445
      4          6           0       -2.251769   -0.191716    0.492638
      5          6           0       -3.240185   -0.543850   -0.333843
      6          1           0       -2.235365   -0.613447    1.496249
      7          1           0       -3.309965   -0.156381   -1.346378
      8          1           0       -4.024685   -1.233467   -0.034028
      9          8           0        2.106768    0.996780   -0.405948
     10          1           0        3.033662    0.723334   -0.366917
     11          8           0        1.100744   -1.172476   -1.143323
     12          1           0        0.975534   -2.077248   -0.830607
     13          1           0       -1.118949    1.493992   -1.359426
     14          1           0       -0.771250    2.108869    0.974491
 ---------------------------------------------------------------------

 SCF Done:  E(RHF) =  -935.836816393     A.U. after    2 cycles

 The electronic state is 1-A.
 Alpha  occ. eigenvalues -- -105.29130 -76.23704 -21.11248 -21.10728 -21.01611
 Alpha  occ. eigenvalues --  -11.42964 -11.38138  -5.57470  -2.90922  -2.21655
 Alpha  occ. eigenvalues --   -2.19842  -2.19223  -1.95585  -1.87485  -1.78404
 Alpha  occ. eigenvalues --   -1.49371  -1.39311  -1.25112  -1.15545  -0.84942
 Alpha  occ. eigenvalues --   -0.75177  -0.68041  -0.63096  -0.60005  -0.55874
 Alpha  occ. eigenvalues --   -0.52810  -0.49390  -0.44625  -0.43941  -0.40203
 Alpha  occ. eigenvalues --   -0.39253  -0.33788  -0.33510  -0.29206  -0.21309
 Alpha  occ. eigenvalues --   -0.13101
 Alpha virt. eigenvalues --    0.03286   0.05101   0.05599   0.06112   0.06126
 Alpha virt. eigenvalues --    0.06589   0.07503   0.07857   0.09003   0.09894
 Alpha virt. eigenvalues --    0.10778   0.11858   0.12548   0.13383   0.14373

 Mulliken charges:
               1
     1  Si   5.069762
     2  P    6.366342
     3  O   -2.904789
     4  C   -2.578152
     5  C   -2.455783
     6  H    1.203327
     7  H    1.390971
     8  H    1.368263
     9  O   -2.820830
    10  H    0.870240
    11  O   -2.739702
    12  H    0.780550
    13  H   -1.684481
    14  H   -1.865720
 Sum of Mulliken charges =   0.00000

 Dipole moment (field-independent basis, Debye):
    X=              0.2748    Y=             -0.5063    Z=             -2.4168  Tot=              2.4845

 Test job not archived.
 1\1\GINC-SE396\SP\RHF\Aug-CC-pVDZ\C2H7O3P1Si1\OHZDE\08-Apr-2025\0\\#t
 hf aug-cc-pvdz iop(5/13=1,5/36=2,99/5=2) pseudo=read geom=check guess=
 (read,tcheck) scf=(maxcycle=1)\\title\\0,1\Si,0,-0.896888,0.991236,0.0
 13513\P,0,1.080147,-0.131092,0.106885\O,0,1.38711,-0.792202,1.389445\C
 ,0,-2.251769,-0.191716,0.492638\C,0,-3.240185,-0.54385,-0.333843\H,0,-
 2.235365,-0.613447,1.496249\H,0,-3.309965,-0.156381,-1.346378\H,0,-4.0
 24685,-1.233467,-0.034028\O,0,2.106768,0.99678,-0.405948\H,0,3.033662,
 0.723334,-0.366917\O,0,1.100744,-1.172476,-1.143323\H,0,0.975534,-2.07

 Normal termination of Gaussian 16 at Tue Apr  8 23:41:43 2025.
