 Gaussian 16, Revision C.01,

 ----------------------------------------------------------------------
 #t hf aug-cc-pvdz symm=none int=(grid=ultrafine) guess=(read,tcheck) s
 table=opt
 ----------------------------------------------------------------------
 -----
 title
 -----
 Symbolic Z-matrix:
 Charge =  0 Multiplicity = 2

 SCF Done:  E(UHF) =  -839.943766518     A.U. after   22 cycles
 Normal termination of Gaussian 16 at Tue Apr  8 23:54:29 2025.
 Gaussian 16:  ES64L-G16RevC.01  3-Jul-2019

 ----------------------------------------------------------------------
 #t hf aug-cc-pvdz iop(5/13=1,5/36=2,99/5=2) pseudo=read geom=check gue
 ss=(read,tcheck) scf=(maxcycle=1)
 ----------------------------------------------------------------------
 -----
 title
 -----
 Structure from the checkpoint file:  "BDE49_nonexpt_1945_mol2.chk"
 Charge =  0 Multiplicity = 2

                         Standard orientation:
 ---------------------------------------------------------------------
 Center     Atomic      Atomic             Coordinates (Angstroms)
 Number     Number       Type             X           Y           Z
 ---------------------------------------------------------------------
      1         14           0        2.123028   -0.264313   -0.091164
      2          6           0        0.346642    0.432270    0.006733
      3          1           0        3.067629    0.670933    0.558475
      4          1           0        2.220779   -1.645983    0.435051
      5          8           0        0.118927    1.618979    0.013987
      6         16           0       -0.950671   -0.835791    0.013767
      7          6           0       -2.443743    0.208848   -0.008455
      8          1           0       -3.036248   -0.029520   -0.890564
      9          1           0       -2.108504    1.246636   -0.044284
     10          1           0       -3.024125    0.032422    0.895781
 ---------------------------------------------------------------------

 SCF Done:  E(UHF) =  -840.980391492     A.U. after    2 cycles

 The electronic state is 2-A.
 Alpha  occ. eigenvalues --  -76.25189 -75.69722 -21.07979 -13.12654 -13.09719
 Alpha  occ. eigenvalues --  -13.02493 -11.48075 -11.40063  -8.03928  -5.58651
 Alpha  occ. eigenvalues --   -2.22334  -2.20986  -2.19346  -1.72973  -1.20972
 Alpha  occ. eigenvalues --   -0.99101  -0.84983  -0.69718  -0.62200  -0.59487
 Alpha  occ. eigenvalues --   -0.53467  -0.52276  -0.50327  -0.48369  -0.39519
 Alpha  occ. eigenvalues --   -0.30106  -0.25562  -0.24174
 Alpha virt. eigenvalues --    0.03274   0.04331   0.05578   0.05847   0.06266
 Alpha virt. eigenvalues --    0.07110   0.07569   0.09650   0.09826   0.10341
 Alpha virt. eigenvalues --    0.12522   0.12795   0.14252   0.14273   0.14604

  Beta  occ. eigenvalues --  -76.24620 -75.69713 -21.07504 -13.12639 -13.09691
  Beta  occ. eigenvalues --  -13.02473 -11.48272 -11.40065  -8.03917  -5.57765
  Beta  occ. eigenvalues --   -2.21623  -2.20309  -2.15671  -1.72085  -1.20873
  Beta  occ. eigenvalues --   -0.98929  -0.82379  -0.68116  -0.61970  -0.59467
  Beta  occ. eigenvalues --   -0.53134  -0.52187  -0.49348  -0.47946  -0.39404
  Beta  occ. eigenvalues --   -0.25654  -0.24373
  Beta virt. eigenvalues --    0.02676   0.03325   0.04740   0.05692   0.06109
  Beta virt. eigenvalues --    0.06479   0.07594   0.08456   0.10021   0.10319
  Beta virt. eigenvalues --    0.11288   0.12678   0.13819   0.14474   0.14946

 Mulliken charges and spin densities:
               1          2
     1  Si   3.948573   1.068767
     2  C    0.521825  -0.181022
     3  H   -1.417616  -0.009480
     4  H   -1.421120  -0.011931
     5  O   -2.433463   0.132667
     6  S    1.252087  -0.006479
     7  C   -4.631635   0.008630
     8  H    1.422677   0.000211
     9  H    1.345124  -0.001952
    10  H    1.413549   0.000589
 Sum of Mulliken charges =   0.00000   1.00000

 Dipole moment (field-independent basis, Debye):
    X=             -0.7907    Y=             -1.2928    Z=             -0.1826  Tot=              1.5264
                          Isotropic Fermi Contact Couplings
        Atom                 a.u.       MegaHertz       Gauss      10(-4) cm-1
     1  Si(29)             0.45630    -405.52296    -144.70068    -135.26790
     2  C(13)             -0.00465      -5.22393      -1.86403      -1.74252
     3  H(1)               0.00159       7.12215       2.54136       2.37569
     4  H(1)               0.00164       7.31400       2.60982       2.43969
     5  O(17)              0.02661     -16.12995      -5.75557      -5.38037
     6  S(33)              0.00770       2.64601       0.94416       0.88261
     7  C(13)             -0.00015      -0.16377      -0.05844      -0.05463
     8  H(1)               0.00072       3.22189       1.14965       1.07471

 1\1\GINC-SE396\SP\UHF\Aug-CC-pVDZ\C2H5O1S1Si1(2)\OHZDE\08-Apr-2025\0\\
 #t hf aug-cc-pvdz iop(5/13=1,5/36=2,99/5=2) pseudo=read geom=check gue
 ss=(read,tcheck) scf=(maxcycle=1)\\title\\0,2\Si,0,2.123028,-0.264313,
 -0.091164\C,0,0.346642,0.43227,0.006733\H,0,3.067629,0.670933,0.558475
 \H,0,2.220779,-1.645983,0.435051\O,0,0.118927,1.618979,0.013987\S,0,-0
 .950671,-0.835791,0.013767\C,0,-2.443743,0.208848,-0.008455\H,0,-3.036
 248,-0.02952,-0.890564\H,0,-2.108504,1.246636,-0.044284\H,0,-3.024125,
 0.032422,0.895781\\Version=ES64L-G16RevC.01\State=2-A\HF=-840.9803915\

 Normal termination of Gaussian 16 at Tue Apr  8 23:54:33 2025.
