 Gaussian 16, Revision C.01,

 ----------------------------------------------------------------------
 #t hf aug-cc-pvdz symm=none int=(grid=ultrafine) guess=(read,tcheck) s
 table=opt
 ----------------------------------------------------------------------
 -----
 title
 -----
 Symbolic Z-matrix:
 Charge =  0 Multiplicity = 2

 SCF Done:  E(UHF) =  -647.903680419     A.U. after   20 cycles
 Normal termination of Gaussian 16 at Tue Apr  8 23:20:58 2025.
 Gaussian 16:  ES64L-G16RevC.01  3-Jul-2019

 ----------------------------------------------------------------------
 #t hf aug-cc-pvdz iop(5/13=1,5/36=2,99/5=2) pseudo=read geom=check gue
 ss=(read,tcheck) scf=(maxcycle=1)
 ----------------------------------------------------------------------
 -----
 title
 -----
 Structure from the checkpoint file:  "BDE49_nonexpt_111_mol2.chk"
 Charge =  0 Multiplicity = 2

                         Standard orientation:
 ---------------------------------------------------------------------
 Center     Atomic      Atomic             Coordinates (Angstroms)
 Number     Number       Type             X           Y           Z
 ---------------------------------------------------------------------
      1          5           0        2.276797    0.084206   -0.158387
      2         16           0       -0.401865    0.175960   -0.417945
      3          8           0        1.126004   -0.412653    0.291257
      4          8           0       -1.241295   -1.129641    0.076389
      5          8           0       -0.762044    1.312378    0.398353
      6          1           0       -1.266370   -1.158615    1.048681
      7          1           0        3.330903   -0.238453    0.302376
 ---------------------------------------------------------------------

 SCF Done:  E(UHF) =  -649.175207552     A.U. after    2 cycles

 The electronic state is 2-A.
 Alpha  occ. eigenvalues --  -75.90801 -21.14693 -21.08463 -21.07575 -13.47278
 Alpha  occ. eigenvalues --  -13.35400 -13.29147  -8.24501  -7.66698  -1.88272
 Alpha  occ. eigenvalues --   -1.75630  -1.71148  -1.02221  -0.77367  -0.66287
 Alpha  occ. eigenvalues --   -0.61186  -0.57573  -0.53465  -0.51607  -0.43221
 Alpha  occ. eigenvalues --   -0.41249  -0.38642  -0.34215  -0.29197
 Alpha virt. eigenvalues --    0.03365   0.03757   0.04668   0.05524   0.07700
 Alpha virt. eigenvalues --    0.10053   0.10429   0.12328   0.12848   0.13488
 Alpha virt. eigenvalues --    0.15906   0.18062   0.18293   0.20192   0.21353

  Beta  occ. eigenvalues --  -75.90757 -21.14693 -21.08453 -21.07528 -13.47225
  Beta  occ. eigenvalues --  -13.35314 -13.29013  -8.24443  -7.64932  -1.88091
  Beta  occ. eigenvalues --   -1.75282  -1.71099  -1.01731  -0.74550  -0.64895
  Beta  occ. eigenvalues --   -0.60233  -0.56231  -0.52887  -0.49750  -0.42795
  Beta  occ. eigenvalues --   -0.40877  -0.38316  -0.33136
  Beta virt. eigenvalues --    0.02901   0.03724   0.04391   0.04855   0.07314
  Beta virt. eigenvalues --    0.08321   0.10711   0.10926   0.12508   0.14930
  Beta virt. eigenvalues --    0.15266   0.16527   0.18532   0.19784   0.20525

 Mulliken charges and spin densities:
               1          2
     1  B    2.693959   1.037427
     2  S    4.771712   0.002052
     3  O   -2.193793  -0.078836
     4  O   -2.203154   0.009343
     5  O   -2.264076   0.002650
     6  H    0.840446   0.006660
     7  H   -1.645094   0.020704
 Sum of Mulliken charges =  -0.00000   1.00000

 Dipole moment (field-independent basis, Debye):
    X=             -0.8573    Y=             -1.5853    Z=             -0.1534  Tot=              1.8088
                          Isotropic Fermi Contact Couplings
        Atom                 a.u.       MegaHertz       Gauss      10(-4) cm-1
     1  B(11)              0.21255     304.87788     108.78801     101.69631
     2  S(33)              0.08225      28.25046      10.08047       9.42334
     3  O(17)              0.00291      -1.76255      -0.62892      -0.58792
     4  O(17)             -0.00188       1.14091       0.40711       0.38057
     5  O(17)              0.00111      -0.67499      -0.24085      -0.22515
     6  H(1)              -0.00009      -0.38497      -0.13737      -0.12841
     7  H(1)               0.02499     111.71923      39.86420      37.26552
 --------------------------------------------------------

 Normal termination of Gaussian 16 at Tue Apr  8 23:21:00 2025.
