 Gaussian 16, Revision C.01,

 ----------------------------------------------------------------------
 #t hf aug-cc-pvdz symm=none int=(grid=ultrafine) guess=(read,tcheck) s
 table=(opt,rrhf)
 ----------------------------------------------------------------------
 -----
 title
 -----
 Symbolic Z-matrix:
 Charge =  0 Multiplicity = 1

 SCF Done:  E(RHF) =  -1060.78363255     A.U. after   15 cycles
 Normal termination of Gaussian 16 at Tue Apr  8 23:42:29 2025.
 Gaussian 16:  ES64L-G16RevC.01  3-Jul-2019

 ----------------------------------------------------------------------
 #t hf aug-cc-pvdz iop(5/13=1,5/36=2,99/5=2) pseudo=read geom=check gue
 ss=(read,tcheck) scf=(maxcycle=1)
 ----------------------------------------------------------------------
 -----
 title
 -----
 Structure from the checkpoint file:  "BDE49_nonexpt_1663_mol1.chk"
 Charge =  0 Multiplicity = 1

                         Standard orientation:
 ---------------------------------------------------------------------
 Center     Atomic      Atomic             Coordinates (Angstroms)
 Number     Number       Type             X           Y           Z
 ---------------------------------------------------------------------
      1         14           0       -0.614783   -1.142135   -0.194386
      2          7           0       -1.968231    0.161035    0.014205
      3         15           0        1.348898   -0.010222   -0.039225
      4          8           0       -1.679281    1.353346   -0.147157
      5          8           0       -3.089688   -0.240817    0.272770
      6          8           0        2.533379   -0.763129   -0.463513
      7          8           0        1.085706    1.332371   -0.853668
      8          1           0        0.211007    1.716230   -0.646930
      9          8           0        1.332113    0.414835    1.516846
     10          1           0        2.195643    0.315362    1.939901
     11          1           0       -0.863250   -1.656372   -1.550542
     12          1           0       -0.850137   -2.132074    0.865704
 ---------------------------------------------------------------------

 SCF Done:  E(RHF) =  -1062.90552963     A.U. after    2 cycles

 The electronic state is 1-A.
 Alpha  occ. eigenvalues -- -105.32570 -76.31393 -21.13538 -21.13139 -21.12460
 Alpha  occ. eigenvalues --  -21.11939 -21.04441 -15.99360  -5.64968  -2.94681
 Alpha  occ. eigenvalues --   -2.28535  -2.27158  -2.26875  -2.00357  -1.99518
 Alpha  occ. eigenvalues --   -1.92524  -1.80016  -1.71224  -1.52612  -1.41488
 Alpha  occ. eigenvalues --   -1.27130  -1.03408  -0.79639  -0.72939  -0.68352
 Alpha  occ. eigenvalues --   -0.66786  -0.63313  -0.60651  -0.55857  -0.53863
 Alpha  occ. eigenvalues --   -0.47448  -0.41724  -0.37837  -0.37204  -0.35257
 Alpha  occ. eigenvalues --   -0.34620  -0.34050  -0.30222  -0.24792  -0.16821
 Alpha virt. eigenvalues --    0.03451   0.04814   0.05594   0.05956   0.06826
 Alpha virt. eigenvalues --    0.07476   0.08806   0.09527   0.09905   0.10606
 Alpha virt. eigenvalues --    0.11892   0.12698   0.14030   0.15090   0.15576

 Mulliken charges:
               1
     1  Si   4.775402
     2  N    3.572916
     3  P    6.464305
     4  O   -2.206325
     5  O   -2.446985
     6  O   -2.919472
     7  O   -3.356735
     8  H    1.346662
     9  O   -2.696610
    10  H    0.901761
    11  H   -1.791741
    12  H   -1.643179
 Sum of Mulliken charges =  -0.00000

 Dipole moment (field-independent basis, Debye):
    X=              0.4459    Y=              1.2041    Z=              1.5519  Tot=              2.0142

 Test job not archived.
 1\1\GINC-SE402\SP\RHF\Aug-CC-pVDZ\H4N1O5P1Si1\OHZDE\08-Apr-2025\0\\#t
 hf aug-cc-pvdz iop(5/13=1,5/36=2,99/5=2) pseudo=read geom=check guess=
 (read,tcheck) scf=(maxcycle=1)\\title\\0,1\Si,0,-0.614783,-1.142135,-0
 .194386\N,0,-1.968231,0.161035,0.014205\P,0,1.348898,-0.010222,-0.0392
 25\O,0,-1.679281,1.353346,-0.147157\O,0,-3.089688,-0.240817,0.27277\O,
 0,2.533379,-0.763129,-0.463513\O,0,1.085706,1.332371,-0.853668\H,0,0.2
 11007,1.71623,-0.64693\O,0,1.332113,0.414835,1.516846\H,0,2.195643,0.3
 15362,1.939901\H,0,-0.86325,-1.656372,-1.550542\H,0,-0.850137,-2.13207

 Normal termination of Gaussian 16 at Tue Apr  8 23:42:35 2025.
