 Gaussian 16, Revision C.01,

 ----------------------------------------------------------------------
 #t hf aug-cc-pvdz symm=none int=(grid=ultrafine) guess=(read,tcheck) s
 table=(opt,rrhf)
 ----------------------------------------------------------------------
 -----
 title
 -----
 Symbolic Z-matrix:
 Charge =  0 Multiplicity = 1

 SCF Done:  E(RHF) =  -395.259512012     A.U. after   12 cycles
 Normal termination of Gaussian 16 at Wed Apr  9 00:33:34 2025.
 Gaussian 16:  ES64L-G16RevC.01  3-Jul-2019

 ----------------------------------------------------------------------
 #t hf aug-cc-pvdz iop(5/13=1,5/36=2,99/5=2) pseudo=read geom=check gue
 ss=(read,tcheck) scf=(maxcycle=1)
 ----------------------------------------------------------------------
 -----
 title
 -----
 Structure from the checkpoint file:  "BDE49_nonexpt_408_mol1.chk"
 Charge =  0 Multiplicity = 1

                         Standard orientation:
 ---------------------------------------------------------------------
 Center     Atomic      Atomic             Coordinates (Angstroms)
 Number     Number       Type             X           Y           Z
 ---------------------------------------------------------------------
      1          9           0       -1.618813   -1.448692    0.000502
      2          9           0       -2.164195    0.739371    0.000770
      3          5           0       -1.213643   -0.193745   -0.000935
      4          6           0        0.302274    0.216363   -0.000454
      5          7           0        1.121396   -0.768240   -0.000390
      6          6           0        2.555738   -0.554317   -0.000031
      7          1           0        2.973553   -1.062715    0.874864
      8          1           0        2.889795    0.488956    0.000174
      9          1           0        2.973964   -1.062503   -0.874853
     10          6           0        0.666450    1.694315   -0.000170
     11          1           0       -0.233021    2.309199   -0.000330
     12          1           0        1.257461    1.959707   -0.881866
     13          1           0        1.256997    1.959483    0.881905
 ---------------------------------------------------------------------

 SCF Done:  E(RHF) =  -396.873619843     A.U. after    2 cycles

 The electronic state is 1-A.
 Alpha  occ. eigenvalues --  -29.25694 -29.24745 -15.75146 -11.44066 -11.39327
 Alpha  occ. eigenvalues --  -11.37902  -7.70332  -1.41022  -1.17149  -1.07476
 Alpha  occ. eigenvalues --   -1.00098  -0.77603  -0.73746  -0.66575  -0.61465
 Alpha  occ. eigenvalues --   -0.59186  -0.57313  -0.55529  -0.53156  -0.50414
 Alpha  occ. eigenvalues --   -0.45345  -0.44058  -0.38345  -0.36854  -0.33677
 Alpha  occ. eigenvalues --   -0.32286  -0.25854
 Alpha virt. eigenvalues --    0.02762   0.04558   0.04972   0.05594   0.06398
 Alpha virt. eigenvalues --    0.06443   0.07146   0.07204   0.08384   0.09923
 Alpha virt. eigenvalues --    0.11014   0.11501   0.13020   0.14065   0.14989

 Mulliken charges:
               1
     1  F   -0.145118
     2  F   -0.864732
     3  B    1.683014
     4  C    0.285468
     5  N   -2.035472
     6  C   -3.028884
     7  H    1.377344
     8  H    1.527745
     9  H    1.377400
    10  C   -4.100191
    11  H    1.599539
    12  H    1.162003
    13  H    1.161885
 Sum of Mulliken charges =   0.00000

 Dipole moment (field-independent basis, Debye):
    X=             -1.1444    Y=              0.5515    Z=              0.0040  Tot=              1.2704

 Test job not archived.
 1\1\GINC-SE116\SP\RHF\Aug-CC-pVDZ\C3H6B1F2N1\OHZDE\09-Apr-2025\0\\#t h
 f aug-cc-pvdz iop(5/13=1,5/36=2,99/5=2) pseudo=read geom=check guess=(
 read,tcheck) scf=(maxcycle=1)\\title\\0,1\F,0,-1.618813,-1.448692,0.00
 0502\F,0,-2.164195,0.73937,0.00077\B,0,-1.213643,-0.193745,-0.000935\C
 ,0,0.302274,0.216363,-0.000454\N,0,1.121396,-0.76824,-0.00039\C,0,2.55
 5738,-0.554316,-0.000031\H,0,2.973553,-1.062714,0.874864\H,0,2.889795,
 0.488957,0.000174\H,0,2.973964,-1.062502,-0.874853\C,0,0.666449,1.6943
 15,-0.00017\H,0,-0.233022,2.309199,-0.00033\H,0,1.25746,1.959707,-0.88

 Normal termination of Gaussian 16 at Wed Apr  9 00:33:38 2025.
