 Gaussian 16, Revision C.01,

 ----------------------------------------------------------------------
 #t hf aug-cc-pvdz symm=none int=(grid=ultrafine) guess=(read,tcheck) s
 table=opt
 ----------------------------------------------------------------------
 -----
 title
 -----
 Symbolic Z-matrix:
 Charge =  0 Multiplicity = 2

 SCF Done:  E(UHF) =  -1168.63319953     A.U. after   17 cycles
 Normal termination of Gaussian 16 at Tue Apr  8 23:43:57 2025.
 Gaussian 16:  ES64L-G16RevC.01  3-Jul-2019

 ----------------------------------------------------------------------
 #t hf aug-cc-pvdz iop(5/13=1,5/36=2,99/5=2) pseudo=read geom=check gue
 ss=(read,tcheck) scf=(maxcycle=1)
 ----------------------------------------------------------------------
 -----
 title
 -----
 Structure from the checkpoint file:  "BDE49_nonexpt_1701_mol2.chk"
 Charge =  0 Multiplicity = 2

                         Standard orientation:
 ---------------------------------------------------------------------
 Center     Atomic      Atomic             Coordinates (Angstroms)
 Number     Number       Type             X           Y           Z
 ---------------------------------------------------------------------
      1         16           0        2.204265   -0.275826   -0.000026
      2          8           0        0.595993   -0.750958   -0.000032
      3          6           0       -0.370138    0.248514    0.000011
      4         17           0       -1.949221   -0.563456   -0.000004
      5          9           0       -0.259931    1.028291   -1.081172
      6          9           0       -0.259913    1.028216    1.081246
 ---------------------------------------------------------------------

 SCF Done:  E(UHF) =  -1170.20571223     A.U. after    2 cycles

 The electronic state is 2-A.
 Alpha  occ. eigenvalues --  -99.92545 -75.78480 -29.33291 -29.33247 -21.14590
 Alpha  occ. eigenvalues --  -13.22690 -13.11402 -13.11288 -11.61607 -10.50066
 Alpha  occ. eigenvalues --   -9.69856  -9.68993  -9.68949  -8.11737  -1.88152
 Alpha  occ. eigenvalues --   -1.41156  -1.21764  -1.08299  -0.91706  -0.79049
 Alpha  occ. eigenvalues --   -0.72215  -0.56324  -0.55958  -0.51910  -0.48550
 Alpha  occ. eigenvalues --   -0.48072  -0.42635  -0.38829  -0.33718  -0.31788
 Alpha  occ. eigenvalues --   -0.28627  -0.27236  -0.24971
 Alpha virt. eigenvalues --    0.04957   0.06022   0.07800   0.10144   0.11476
 Alpha virt. eigenvalues --    0.12877   0.13342   0.13729   0.15538   0.16883
 Alpha virt. eigenvalues --    0.18005   0.19519   0.21162   0.22126   0.22967

  Beta  occ. eigenvalues --  -99.92547 -75.77498 -29.33287 -29.33244 -21.14128
  Beta  occ. eigenvalues --  -13.22291 -13.10837 -13.05252 -11.61629 -10.50069
  Beta  occ. eigenvalues --   -9.69866  -9.68998  -9.68949  -8.10637  -1.87153
  Beta  occ. eigenvalues --   -1.40921  -1.21296  -1.00627  -0.91503  -0.78466
  Beta  occ. eigenvalues --   -0.71151  -0.55893  -0.55866  -0.48622  -0.48404
  Beta  occ. eigenvalues --   -0.47281  -0.41289  -0.38698  -0.33567  -0.30959
  Beta  occ. eigenvalues --   -0.25951  -0.25238
  Beta virt. eigenvalues --    0.03569   0.05314   0.06067   0.07817   0.10352
  Beta virt. eigenvalues --    0.12684   0.12949   0.13801   0.15000   0.15807
  Beta virt. eigenvalues --    0.17870   0.18527   0.19700   0.21225   0.22765

 Mulliken charges and spin densities:
               1          2
     1  S    0.655763   0.967825
     2  O   -2.310544   0.038340
     3  C    0.379383  -0.015687
     4  Cl  -0.471512  -0.001741
     5  F    0.873454   0.005631
     6  F    0.873455   0.005631
 Sum of Mulliken charges =  -0.00000   1.00000

 Dipole moment (field-independent basis, Debye):
    X=              3.1070    Y=              3.8312    Z=              0.0001  Tot=              4.9327
                          Isotropic Fermi Contact Couplings
        Atom                 a.u.       MegaHertz       Gauss      10(-4) cm-1
     1  S(33)              0.29674     101.92141      36.36809      33.99732
     2  O(17)              0.02888     -17.50799      -6.24729      -5.84004
     3  C(13)             -0.00213      -2.38897      -0.85244      -0.79687
     4  Cl(35)            -0.00276      -1.20860      -0.43126      -0.40314
     5  F(19)             -0.00073      -3.05232      -1.08914      -1.01814
     6  F(19)             -0.00073      -3.05239      -1.08917      -1.01817
 --------------------------------------------------------
       Center         ----  Spin Dipole Couplings  ----

 1\1\GINC-SE106\SP\UHF\Aug-CC-pVDZ\C1Cl1F2O1S1(2)\OHZDE\08-Apr-2025\0\\
 #t hf aug-cc-pvdz iop(5/13=1,5/36=2,99/5=2) pseudo=read geom=check gue
 ss=(read,tcheck) scf=(maxcycle=1)\\title\\0,2\S,0,2.204265,-0.275826,-
 0.000026\O,0,0.595993,-0.750958,-0.000032\C,0,-0.370138,0.248514,0.000
 011\Cl,0,-1.949221,-0.563456,-0.000004\F,0,-0.259931,1.028291,-1.08117
 2\F,0,-0.259913,1.028216,1.081246\\Version=ES64L-G16RevC.01\State=2-A\
 HF=-1170.2057122\S2=0.762258\S2-1=0.\S2A=0.750063\RMSD=3.717e-02\Dipol
 e=1.2223894,1.5072951,0.0000435\Quadrupole=0.5489236,-1.7565223,1.2075

 Normal termination of Gaussian 16 at Tue Apr  8 23:44:00 2025.
