 Gaussian 16, Revision C.01,

 ----------------------------------------------------------------------
 #t hf aug-cc-pvdz symm=none int=(grid=ultrafine) guess=(read,tcheck) s
 table=opt
 ----------------------------------------------------------------------
 -----
 title
 -----
 Symbolic Z-matrix:
 Charge =  0 Multiplicity = 2

 SCF Done:  E(UHF) =  -769.544069017     A.U. after   16 cycles
 Normal termination of Gaussian 16 at Wed Apr  9 00:08:44 2025.
 Gaussian 16:  ES64L-G16RevC.01  3-Jul-2019

 ----------------------------------------------------------------------
 #t hf aug-cc-pvdz iop(5/13=1,5/36=2,99/5=2) pseudo=read geom=check gue
 ss=(read,tcheck) scf=(maxcycle=1)
 ----------------------------------------------------------------------
 -----
 title
 -----
 Structure from the checkpoint file:  "BDE49_nonexpt_2276_mol2.chk"
 Charge =  0 Multiplicity = 2

                         Standard orientation:
 ---------------------------------------------------------------------
 Center     Atomic      Atomic             Coordinates (Angstroms)
 Number     Number       Type             X           Y           Z
 ---------------------------------------------------------------------
      1         14           0       -1.216901   -0.427676   -0.528503
      2          6           0        0.450635    0.458865   -0.590164
      3         14           0        1.912626   -0.493840    0.182851
      4          8           0        0.284794    1.752502    0.039662
      5          1           0        0.691472    0.655864   -1.640386
      6          1           0       -0.149785    1.594956    0.887347
      7          8           0       -1.642468   -0.215325    1.063214
      8          1           0       -2.554811   -0.329633    1.335701
      9          1           0        2.013881   -1.869953   -0.379144
     10          1           0        1.745773   -0.568249    1.658831
     11          1           0       -1.118511   -1.861487   -0.891016
     12          1           0       -2.210586    0.229120   -1.414232
 ---------------------------------------------------------------------

 SCF Done:  E(UHF) =  -770.662769002     A.U. after    2 cycles

 The electronic state is 2-A.
 Alpha  occ. eigenvalues --  -76.23836 -76.22501 -21.08571 -21.07228 -11.37952
 Alpha  occ. eigenvalues --   -5.57703  -5.55839  -2.24121  -2.21175  -2.19610
 Alpha  occ. eigenvalues --   -2.19180  -2.17949  -2.17097  -1.70339  -1.66745
 Alpha  occ. eigenvalues --   -0.98347  -0.76372  -0.74033  -0.61291  -0.57051
 Alpha  occ. eigenvalues --   -0.55562  -0.52218  -0.48673  -0.46884  -0.41630
 Alpha  occ. eigenvalues --   -0.39283  -0.38428  -0.30641  -0.25490
 Alpha virt. eigenvalues --    0.03537   0.04669   0.05109   0.05832   0.06607
 Alpha virt. eigenvalues --    0.07187   0.07455   0.07934   0.08158   0.09606
 Alpha virt. eigenvalues --    0.09949   0.10754   0.11577   0.13448   0.14217

  Beta  occ. eigenvalues --  -76.23811 -76.21950 -21.08570 -21.07248 -11.37920
  Beta  occ. eigenvalues --   -5.57655  -5.54978  -2.24076  -2.21035  -2.19337
  Beta  occ. eigenvalues --   -2.18760  -2.17315  -2.13607  -1.70340  -1.66739
  Beta  occ. eigenvalues --   -0.97688  -0.75438  -0.70918  -0.61046  -0.56775
  Beta  occ. eigenvalues --   -0.55339  -0.51922  -0.48028  -0.46169  -0.41591
  Beta  occ. eigenvalues --   -0.39111  -0.38344  -0.28677
  Beta virt. eigenvalues --    0.03567   0.03755   0.05088   0.05410   0.06119
  Beta virt. eigenvalues --    0.06669   0.07283   0.07912   0.07998   0.09004
  Beta virt. eigenvalues --    0.09817   0.10404   0.11272   0.11679   0.13761

 Mulliken charges and spin densities:
               1          2
     1  Si   6.105998   0.005566
     2  C   -1.815012  -0.050080
     3  Si   4.071948   1.082933
     4  O   -2.486640  -0.008322
     5  H    1.480859   0.008092
     6  H    0.950618  -0.003125
     7  O   -2.617162  -0.015563
     8  H    1.116237  -0.003401
     9  H   -1.651404  -0.005450
    10  H   -1.604379  -0.013986
    11  H   -1.784389  -0.001873
    12  H   -1.766674   0.005211
 Sum of Mulliken charges =  -0.00000   1.00000

 Dipole moment (field-independent basis, Debye):
    X=             -0.9457    Y=              0.4151    Z=              0.2640  Tot=              1.0660
                          Isotropic Fermi Contact Couplings
        Atom                 a.u.       MegaHertz       Gauss      10(-4) cm-1
     1  Si(29)             0.03664     -32.55966     -11.61809     -10.86073
     2  C(13)              0.00430       4.83115       1.72388       1.61150
     3  Si(29)             0.48576    -431.70864    -154.04438    -144.00250
     4  O(17)             -0.00080       0.48569       0.17331       0.16201
     5  H(1)               0.00185       8.29156       2.95864       2.76577
     6  H(1)               0.00001       0.02535       0.00905       0.00846
     7  O(17)             -0.00038       0.22963       0.08194       0.07660
     8  H(1)              -0.00006      -0.27569      -0.09837      -0.09196

 Normal termination of Gaussian 16 at Wed Apr  9 00:08:49 2025.
