 Gaussian 16, Revision C.01,

 ----------------------------------------------------------------------
 #t hf aug-cc-pvdz symm=none int=(grid=ultrafine) guess=(read,tcheck) s
 table=(opt,rrhf)
 ----------------------------------------------------------------------
 -----
 title
 -----
 Symbolic Z-matrix:
 Charge =  0 Multiplicity = 1

 SCF Done:  E(RHF) =  -190.785459765     A.U. after   14 cycles
 Normal termination of Gaussian 16 at Tue Apr  8 22:37:23 2025.
 Gaussian 16:  ES64L-G16RevC.01  3-Jul-2019

 ----------------------------------------------------------------------
 #t hf aug-cc-pvdz iop(5/13=1,5/36=2,99/5=2) pseudo=read geom=check gue
 ss=(read,tcheck) scf=(maxcycle=1)
 ----------------------------------------------------------------------
 -----
 title
 -----
 Structure from the checkpoint file:  "BDE49_expt_1141_mol1.chk"
 Charge =  0 Multiplicity = 1

                         Standard orientation:
 ---------------------------------------------------------------------
 Center     Atomic      Atomic             Coordinates (Angstroms)
 Number     Number       Type             X           Y           Z
 ---------------------------------------------------------------------
      1          6           0        1.684125   -0.330044    0.000001
      2          6           0        0.466981    0.568830    0.000002
      3          1           0        1.400925   -1.383963   -0.000001
      4          1           0        2.303432   -0.152437    0.884267
      5          1           0        2.303432   -0.152435   -0.884266
      6          6           0       -0.766260    0.126605   -0.000000
      7          8           0       -1.862478   -0.268761   -0.000002
      8          1           0        0.582957    1.646569    0.000002
 ---------------------------------------------------------------------

 SCF Done:  E(RHF) =  -191.642772724     A.U. after    2 cycles

 The electronic state is 1-A.
 Alpha  occ. eigenvalues --  -21.12814 -11.53224 -11.41781 -11.38405  -1.76204
 Alpha  occ. eigenvalues --   -1.19390  -0.97542  -0.71423  -0.61844  -0.59205
 Alpha  occ. eigenvalues --   -0.56614  -0.53314  -0.52884  -0.45649  -0.27674
 Alpha virt. eigenvalues --    0.02927   0.05464   0.06295   0.06380   0.09049
 Alpha virt. eigenvalues --    0.10809   0.11677   0.12481   0.12654   0.13445
 Alpha virt. eigenvalues --    0.14978   0.16900   0.17438   0.18523   0.18942

 Mulliken charges:
               1
     1  C   -4.025835
     2  C   -0.279253
     3  H    1.339147
     4  H    1.192136
     5  H    1.192135
     6  C    1.474540
     7  O   -2.310014
     8  H    1.417143
 Sum of Mulliken charges =   0.00000

 Dipole moment (field-independent basis, Debye):
    X=              0.2057    Y=             -0.1259    Z=             -0.0000  Tot=              0.2412

 Test job not archived.
 1\1\GINC-SE454\SP\RHF\Aug-CC-pVDZ\C3H4O1\OHZDE\08-Apr-2025\0\\#t hf au
 g-cc-pvdz iop(5/13=1,5/36=2,99/5=2) pseudo=read geom=check guess=(read
 ,tcheck) scf=(maxcycle=1)\\title\\0,1\C,0,1.684125,-0.330044,0.000001\
 C,0,0.466981,0.56883,0.000002\H,0,1.400925,-1.383963,-0.000001\H,0,2.3
 03432,-0.152437,0.884267\H,0,2.303432,-0.152435,-0.884266\C,0,-0.76626
 ,0.126605,0.\O,0,-1.862478,-0.268761,-0.000002\H,0,0.582957,1.646569,0
 .000002\\Version=ES64L-G16RevC.01\State=1-A\HF=-191.6427727\RMSD=2.792
 e-01\Dipole=0.0809345,-0.0495228,-0.0000008\Quadrupole=0.271131,1.0097

 Normal termination of Gaussian 16 at Tue Apr  8 22:37:24 2025.
