 Gaussian 16, Revision C.01,

 ----------------------------------------------------------------------
 #t hf aug-cc-pvdz symm=none int=(grid=ultrafine) guess=(read,tcheck) s
 table=(opt,rrhf)
 ----------------------------------------------------------------------
 -----
 title
 -----
 Symbolic Z-matrix:
 Charge =  0 Multiplicity = 1

 SCF Done:  E(RHF) =  -969.786341912     A.U. after   18 cycles
 Normal termination of Gaussian 16 at Tue Apr  8 23:20:51 2025.
 Gaussian 16:  ES64L-G16RevC.01  3-Jul-2019

 ----------------------------------------------------------------------
 #t hf aug-cc-pvdz iop(5/13=1,5/36=2,99/5=2) pseudo=read geom=check gue
 ss=(read,tcheck) scf=(maxcycle=1)
 ----------------------------------------------------------------------
 -----
 title
 -----
 Structure from the checkpoint file:  "BDE49_nonexpt_1143_mol1.chk"
 Charge =  0 Multiplicity = 1

                         Standard orientation:
 ---------------------------------------------------------------------
 Center     Atomic      Atomic             Coordinates (Angstroms)
 Number     Number       Type             X           Y           Z
 ---------------------------------------------------------------------
      1          9           0       -2.003655   -0.833136   -0.219654
      2          8           0       -1.200432    0.258411    0.608745
      3         16           0       -0.010310    0.816894   -0.246484
      4         16           0        1.642474   -0.404992    0.127103
      5          1           0        1.521716   -1.159505   -0.982973
 ---------------------------------------------------------------------

 SCF Done:  E(RHF) =  -970.877779336     A.U. after    2 cycles

 The electronic state is 1-A.
 Alpha  occ. eigenvalues --  -75.79757 -75.74914 -29.28121 -21.21508 -13.30373
 Alpha  occ. eigenvalues --  -13.16913 -13.14117 -13.12327 -13.10679 -13.06458
 Alpha  occ. eigenvalues --   -8.13894  -8.08738  -1.83413  -1.21462  -1.00020
 Alpha  occ. eigenvalues --   -0.69679  -0.59476  -0.55710  -0.51067  -0.40610
 Alpha  occ. eigenvalues --   -0.35541  -0.30502  -0.27115  -0.24328  -0.23015
 Alpha virt. eigenvalues --    0.02283   0.04786   0.08292   0.10430   0.11331
 Alpha virt. eigenvalues --    0.12537   0.14162   0.14665   0.17149   0.18578
 Alpha virt. eigenvalues --    0.20525   0.21993   0.23309   0.24172   0.26092

 Mulliken charges:
               1
     1  F   -0.063234
     2  O   -1.123174
     3  S    1.112878
     4  S   -1.144580
     5  H    1.218110
 Sum of Mulliken charges =  -0.00000

 Dipole moment (field-independent basis, Debye):
    X=              0.0640    Y=             -0.7349    Z=             -0.4401  Tot=              0.8590

 Test job not archived.
 1\1\GINC-SE364\SP\RHF\Aug-CC-pVDZ\F1H1O1S2\OHZDE\08-Apr-2025\0\\#t hf
 aug-cc-pvdz iop(5/13=1,5/36=2,99/5=2) pseudo=read geom=check guess=(re
 ad,tcheck) scf=(maxcycle=1)\\title\\0,1\F,0,-2.003655,-0.833136,-0.219
 654\O,0,-1.200432,0.258411,0.608745\S,0,-0.01031,0.816894,-0.246484\S,
 0,1.642474,-0.404992,0.127103\H,0,1.521716,-1.159505,-0.982973\\Versio
 n=ES64L-G16RevC.01\State=1-A\HF=-970.8777793\RMSD=6.737e-02\Dipole=0.0
 251628,-0.2891346,-0.173135\Quadrupole=2.037357,-0.606926,-1.430431,-0
 .9004669,1.9308713,-0.3780951\PG=C01 [X(F1H1O1S2)]\\@

 Normal termination of Gaussian 16 at Tue Apr  8 23:20:52 2025.
