 Gaussian 16, Revision C.01,

 ----------------------------------------------------------------------
 #t hf aug-cc-pvdz symm=none int=(grid=ultrafine) guess=(read,tcheck) s
 table=(opt,rrhf)
 ----------------------------------------------------------------------
 -----
 title
 -----
 Symbolic Z-matrix:
 Charge =  0 Multiplicity = 1

 SCF Done:  E(RHF) =  -292.221083695     A.U. after   12 cycles
 Normal termination of Gaussian 16 at Wed Apr  9 00:29:56 2025.
 Gaussian 16:  ES64L-G16RevC.01  3-Jul-2019

 ----------------------------------------------------------------------
 #t hf aug-cc-pvdz iop(5/13=1,5/36=2,99/5=2) pseudo=read geom=check gue
 ss=(read,tcheck) scf=(maxcycle=1)
 ----------------------------------------------------------------------
 -----
 title
 -----
 Structure from the checkpoint file:  "BDE49_nonexpt_334_mol1.chk"
 Charge =  0 Multiplicity = 1

                         Standard orientation:
 ---------------------------------------------------------------------
 Center     Atomic      Atomic             Coordinates (Angstroms)
 Number     Number       Type             X           Y           Z
 ---------------------------------------------------------------------
      1          5           0       -0.872001   -0.046593   -0.000019
      2          8           0       -1.947900   -0.886470    0.000001
      3          8           0       -1.132056    1.305270    0.000009
      4          6           0        0.560352   -0.656846   -0.000007
      5          6           0        1.697777    0.031964    0.747008
      6          6           0        1.697786    0.031966   -0.747004
      7          1           0        2.413830   -0.597752    1.261089
      8          1           0        1.480124    0.957983    1.269720
      9          1           0        0.603554   -1.740923   -0.000008
     10          1           0        1.480139    0.957985   -1.269718
     11          1           0        2.413844   -0.597750   -1.261079
     12          1           0       -0.348363    1.859781    0.000018
     13          1           0       -2.778960   -0.399270    0.000012
 ---------------------------------------------------------------------

 SCF Done:  E(RHF) =  -293.531597720     A.U. after    2 cycles

 The electronic state is 1-A.
 Alpha  occ. eigenvalues --  -21.05729 -21.04635 -11.41626 -11.39981 -11.34761
 Alpha  occ. eigenvalues --   -7.62907  -1.81282  -1.64716  -1.29751  -0.89647
 Alpha  occ. eigenvalues --   -0.86377  -0.73739  -0.68456  -0.65725  -0.58019
 Alpha  occ. eigenvalues --   -0.53550  -0.51714  -0.48487  -0.44495  -0.39371
 Alpha  occ. eigenvalues --   -0.38628  -0.36194  -0.35858
 Alpha virt. eigenvalues --    0.03516   0.04859   0.05083   0.05152   0.06369
 Alpha virt. eigenvalues --    0.06833   0.07328   0.07671   0.09471   0.09543
 Alpha virt. eigenvalues --    0.09918   0.12128   0.13655   0.14961   0.15364

 Mulliken charges:
               1
     1  B    7.235903
     2  O   -4.199942
     3  O   -3.739968
     4  C   -2.444850
     5  C   -2.680314
     6  C   -2.680348
     7  H    1.188625
     8  H    1.068059
     9  H    1.760540
    10  H    1.068049
    11  H    1.188626
    12  H    1.274388
    13  H    0.961234
 Sum of Mulliken charges =  -0.00000

 Dipole moment (field-independent basis, Debye):
    X=              0.7747    Y=              0.6966    Z=              0.0000  Tot=              1.0418

 Test job not archived.
 1\1\GINC-SE072\SP\RHF\Aug-CC-pVDZ\C3H7B1O2\OHZDE\09-Apr-2025\0\\#t hf
 aug-cc-pvdz iop(5/13=1,5/36=2,99/5=2) pseudo=read geom=check guess=(re
 ad,tcheck) scf=(maxcycle=1)\\title\\0,1\B,0,-0.872001,-0.046593,-0.000
 019\O,0,-1.9479,-0.88647,0.000001\O,0,-1.132056,1.30527,0.000009\C,0,0
 .560352,-0.656846,-0.000007\C,0,1.697777,0.031964,0.747008\C,0,1.69778
 6,0.031966,-0.747004\H,0,2.41383,-0.597752,1.261089\H,0,1.480124,0.957
 983,1.26972\H,0,0.603554,-1.740923,-0.000008\H,0,1.480139,0.957985,-1.
 269718\H,0,2.413844,-0.59775,-1.261079\H,0,-0.348363,1.859781,0.000018

 Normal termination of Gaussian 16 at Wed Apr  9 00:29:59 2025.
