 Gaussian 16, Revision C.01,

 ----------------------------------------------------------------------
 #t hf aug-cc-pvdz symm=none int=(grid=ultrafine) guess=(read,tcheck) s
 table=(opt,rrhf)
 ----------------------------------------------------------------------
 -----
 title
 -----
 Symbolic Z-matrix:
 Charge =  0 Multiplicity = 1

 SCF Done:  E(RHF) =  -1166.52162242     A.U. after   16 cycles
 Normal termination of Gaussian 16 at Wed Apr  9 00:46:59 2025.
 Gaussian 16:  ES64L-G16RevC.01  3-Jul-2019

 ----------------------------------------------------------------------
 #t hf aug-cc-pvdz iop(5/13=1,5/36=2,99/5=2) pseudo=read geom=check gue
 ss=(read,tcheck) scf=(maxcycle=1)
 ----------------------------------------------------------------------
 -----
 title
 -----
 Structure from the checkpoint file:  "BDE49_nonexpt_754_mol1.chk"
 Charge =  0 Multiplicity = 1

                         Standard orientation:
 ---------------------------------------------------------------------
 Center     Atomic      Atomic             Coordinates (Angstroms)
 Number     Number       Type             X           Y           Z
 ---------------------------------------------------------------------
      1          6           0        2.105714   -0.425339    0.101818
      2          6           0        1.102915   -1.358533   -0.135516
      3          6           0       -0.196174   -0.914469   -0.326647
      4          6           0        1.786898    0.926795    0.147080
      5          6           0        0.472710    1.334118   -0.048780
      6          6           0       -0.562082    0.426905   -0.281380
      7          9           0        3.363696   -0.825741    0.288905
      8          9           0        1.393900   -2.660902   -0.177314
      9          9           0       -1.152526   -1.854027   -0.558877
     10          9           0        2.746547    1.826044    0.376915
     11          9           0        0.218687    2.651571   -0.006343
     12          5           0       -3.425985    0.148747    0.672910
     13          8           0       -3.349340   -1.115644    1.117836
     14          1           0       -2.627355   -1.637989    0.748185
     15         15           0       -2.285630    0.972821   -0.671764
     16          1           0       -4.345371    0.814321    1.041019
     17          1           0       -2.210797    2.243394   -0.068990
 ---------------------------------------------------------------------

 SCF Done:  E(RHF) =  -1169.83536586     A.U. after    2 cycles

 The electronic state is 1-A.
 Alpha  occ. eigenvalues -- -105.19851 -29.33905 -29.33447 -29.33328 -29.32998
 Alpha  occ. eigenvalues --  -29.32673 -21.08232 -11.61699 -11.55739 -11.54226
 Alpha  occ. eigenvalues --  -11.53032 -11.50904 -11.46432  -7.65855  -2.77659
 Alpha  occ. eigenvalues --   -1.76622  -1.54750  -1.50161  -1.47406  -1.45902
 Alpha  occ. eigenvalues --   -1.29299  -1.25633  -1.09407  -1.05608  -0.92284
 Alpha  occ. eigenvalues --   -0.87067  -0.81454  -0.77622  -0.76555  -0.75143
 Alpha  occ. eigenvalues --   -0.68051  -0.66922  -0.63998  -0.57448  -0.54873
 Alpha  occ. eigenvalues --   -0.53709  -0.51294  -0.45812  -0.45360  -0.44378
 Alpha  occ. eigenvalues --   -0.44107  -0.43480  -0.42447  -0.40518  -0.39027
 Alpha  occ. eigenvalues --   -0.36437  -0.32977  -0.32100  -0.31775  -0.31243
 Alpha  occ. eigenvalues --   -0.29294  -0.25702  -0.24042  -0.20268  -0.17164
 Alpha  occ. eigenvalues --   -0.04397
 Alpha virt. eigenvalues --    0.03931   0.04672   0.05365   0.05943   0.08377
 Alpha virt. eigenvalues --    0.09114   0.09493   0.10041   0.10335   0.11090
 Alpha virt. eigenvalues --    0.11339   0.11571   0.11797   0.12236   0.12515

 Mulliken charges:
               1
     1  C    1.123445
     2  C   -1.854809
     3  C    3.161682
     4  C   -2.112848
     5  C    2.173390
     6  C   -7.785331
     7  F    1.097710
     8  F    1.121664
     9  F    0.826299
    10  F    1.113396
    11  F    0.962519
    12  B    5.905275
    13  O   -3.296255
    14  H    1.612857
    15  P    0.606301
    16  H   -3.343144
    17  H   -1.312149
 Sum of Mulliken charges =  -0.00000

 Dipole moment (field-independent basis, Debye):
    X=              3.4214    Y=             -1.4000    Z=             -4.5518  Tot=              5.8638

 Test job not archived.
 1\1\GINC-SE109\SP\RHF\Aug-CC-pVDZ\C6H3B1F5O1P1\OHZDE\09-Apr-2025\0\\#t
  hf aug-cc-pvdz iop(5/13=1,5/36=2,99/5=2) pseudo=read geom=check guess
 =(read,tcheck) scf=(maxcycle=1)\\title\\0,1\C,0,2.105714,-0.425339,0.1
 01818\C,0,1.102915,-1.358533,-0.135516\C,0,-0.196174,-0.914469,-0.3266
 47\C,0,1.786898,0.926795,0.14708\C,0,0.47271,1.334118,-0.04878\C,0,-0.
 562082,0.426905,-0.28138\F,0,3.363696,-0.825741,0.288905\F,0,1.3939,-2
 .660902,-0.177314\F,0,-1.152526,-1.854027,-0.558877\F,0,2.746547,1.826
 044,0.376915\F,0,0.218687,2.651571,-0.006343\B,0,-3.425985,0.148747,0.

 Normal termination of Gaussian 16 at Wed Apr  9 00:47:13 2025.
