 Gaussian 16, Revision C.01,

 ----------------------------------------------------------------------
 #t hf aug-cc-pvdz symm=none int=(grid=ultrafine) guess=(read,tcheck) s
 table=opt
 ----------------------------------------------------------------------
 -----
 title
 -----
 Symbolic Z-matrix:
 Charge =  0 Multiplicity = 2

 SCF Done:  E(UHF) =  -1026.99680838     A.U. after   19 cycles
 Normal termination of Gaussian 16 at Tue Apr  8 23:31:11 2025.
 Gaussian 16:  ES64L-G16RevC.01  3-Jul-2019

 ----------------------------------------------------------------------
 #t hf aug-cc-pvdz iop(5/13=1,5/36=2,99/5=2) pseudo=read geom=check gue
 ss=(read,tcheck) scf=(maxcycle=1)
 ----------------------------------------------------------------------
 -----
 title
 -----
 Structure from the checkpoint file:  "BDE49_nonexpt_1371_mol2.chk"
 Charge =  0 Multiplicity = 2

                         Standard orientation:
 ---------------------------------------------------------------------
 Center     Atomic      Atomic             Coordinates (Angstroms)
 Number     Number       Type             X           Y           Z
 ---------------------------------------------------------------------
      1          9           0       -2.093839    0.723983    0.208293
      2         16           0        0.721916   -0.113604    0.121849
      3          8           0        1.446558   -1.231233   -0.465090
      4         15           0       -1.393406   -0.662675   -0.267420
      5          6           0        1.029819    1.365004   -0.857086
      6          1           0        2.048429    1.677727   -0.619946
      7          1           0        0.934780    1.116474   -1.912962
      8          8           0        0.893088    0.247183    1.517125
      9          1           0        0.315690    2.130101   -0.553784
 ---------------------------------------------------------------------

 SCF Done:  E(UHF) =  -1028.58167244     A.U. after    2 cycles

 The electronic state is 2-A.
 Alpha  occ. eigenvalues -- -105.29587 -75.89289 -29.32185 -21.05848 -21.05814
 Alpha  occ. eigenvalues --  -13.51337 -13.38422 -13.31872 -11.43544  -8.24364
 Alpha  occ. eigenvalues --   -2.88355  -1.83618  -1.65884  -1.60685  -1.56566
 Alpha  occ. eigenvalues --   -1.53180  -1.15786  -0.92519  -0.82159  -0.64669
 Alpha  occ. eigenvalues --   -0.64326  -0.59203  -0.54109  -0.47018  -0.45403
 Alpha  occ. eigenvalues --   -0.41033  -0.38940  -0.37655  -0.37419  -0.35834
 Alpha  occ. eigenvalues --   -0.19421  -0.09319  -0.00797
 Alpha virt. eigenvalues --    0.03657   0.05848   0.06311   0.06929   0.09467
 Alpha virt. eigenvalues --    0.11048   0.11373   0.13011   0.13499   0.14917
 Alpha virt. eigenvalues --    0.15007   0.16196   0.16992   0.18627   0.19916

  Beta  occ. eigenvalues -- -105.28934 -75.89323 -29.31798 -21.05870 -21.05781
  Beta  occ. eigenvalues --  -13.51359 -13.38498 -13.31986 -11.43542  -8.24407
  Beta  occ. eigenvalues --   -2.86375  -1.83588  -1.65838  -1.59592  -1.51394
  Beta  occ. eigenvalues --   -1.31562  -1.15750  -0.91769  -0.79594  -0.64556
  Beta  occ. eigenvalues --   -0.64287  -0.59060  -0.53798  -0.46258  -0.44168
  Beta  occ. eigenvalues --   -0.40995  -0.38810  -0.37320  -0.36301  -0.35295
  Beta  occ. eigenvalues --   -0.19458  -0.06622
  Beta virt. eigenvalues --    0.03170   0.05535   0.06322   0.07442   0.07824
  Beta virt. eigenvalues --    0.09850   0.11518   0.13043   0.13349   0.13548
  Beta virt. eigenvalues --    0.15164   0.15594   0.16486   0.17575   0.19747

 Mulliken charges and spin densities:
               1          2
     1  F   -0.634984  -0.009917
     2  S    4.064783  -0.058756
     3  O   -2.405905   0.013385
     4  P    2.374361   1.050549
     5  C   -4.680395  -0.169763
     6  H    1.315493   0.014875
     7  H    1.118661   0.205634
     8  O   -2.438125  -0.033019
     9  H    1.286111  -0.012987
 Sum of Mulliken charges =   0.00000   1.00000

 Dipole moment (field-independent basis, Debye):
    X=             -6.6415    Y=              0.6678    Z=              0.9842  Tot=              6.7472
                          Isotropic Fermi Contact Couplings
        Atom                 a.u.       MegaHertz       Gauss      10(-4) cm-1
     1  F(19)              0.04724     198.74023      70.91545      66.29260
     2  S(33)             -0.01113      -3.82132      -1.36354      -1.27465
     3  O(17)             -0.00066       0.40169       0.14333       0.13399
     4  P(31)              0.26977     488.57740     174.33657     162.97188
     5  C(13)              0.01868      21.00029       7.49343       7.00494
     6  H(1)               0.00194       8.68985       3.10076       2.89862
     7  H(1)               0.00125       5.60495       1.99998       1.86961
     8  O(17)              0.01414      -8.57325      -3.05915      -2.85973

 Normal termination of Gaussian 16 at Tue Apr  8 23:31:14 2025.
