 Gaussian 16, Revision C.01,

 ----------------------------------------------------------------------
 #t hf aug-cc-pvdz symm=none int=(grid=ultrafine) guess=(read,tcheck) s
 table=(opt,rrhf)
 ----------------------------------------------------------------------
 -----
 title
 -----
 Symbolic Z-matrix:
 Charge =  0 Multiplicity = 1

 SCF Done:  E(RHF) =  -588.727128448     A.U. after   14 cycles

 1\1\GINC-SE163\Stability\RHF\Aug-CC-pVDZ\Cl1N1O1\OHZDE\08-Apr-2025\0\\
 #t hf aug-cc-pvdz symm=none int=(grid=ultrafine) guess=(read,tcheck) s
 table=(opt,rrhf)\\title\\0,1\N,0,0.,1.004096,0.\O,0,1.111826,1.184137,
 0.\Cl,0,-0.523212,-0.970692,0.\\Version=ES64L-G16RevC.01\HF=-588.72712
 84\RMSD=6.161e-09\Dipole=0.4244967,1.0210666,0.\Quadrupole=-0.6467649,
 0.4710437,0.1757212,0.1361022,0.,0.\PG=Unknown\\@
 The archive entry for this job was punched.

 Normal termination of Gaussian 16 at Tue Apr  8 22:56:33 2025.
 Gaussian 16:  ES64L-G16RevC.01  3-Jul-2019

 ----------------------------------------------------------------------
 #t hf aug-cc-pvdz iop(5/13=1,5/36=2,99/5=2) pseudo=read geom=check gue
 ss=(read,tcheck) scf=(maxcycle=1)
 ----------------------------------------------------------------------
 -----
 title
 -----
 Structure from the checkpoint file:  "BDE49_expt_1835_mol1.chk"
 Charge =  0 Multiplicity = 1

                         Standard orientation:
 ---------------------------------------------------------------------
 Center     Atomic      Atomic             Coordinates (Angstroms)
 Number     Number       Type             X           Y           Z
 ---------------------------------------------------------------------
      1          7           0        0.000000    1.004096    0.000000
      2          8           0        1.111826    1.184137    0.000000
      3         17           0       -0.523212   -0.970692    0.000000
 ---------------------------------------------------------------------

 SCF Done:  E(RHF) =  -589.504293197     A.U. after    2 cycles

 The electronic state is 1-A'.
 Alpha  occ. eigenvalues --  -99.87869 -21.28528 -16.04474 -10.44801  -9.64452
 Alpha  occ. eigenvalues --   -9.63988  -9.63971  -2.02329  -1.26553  -1.01195
 Alpha  occ. eigenvalues --   -0.71892  -0.68224  -0.66278  -0.49739  -0.49562
 Alpha  occ. eigenvalues --   -0.40207
 Alpha virt. eigenvalues --    0.04159   0.07066   0.09949   0.11928   0.12978
 Alpha virt. eigenvalues --    0.13609   0.16789   0.18237   0.19268   0.19918
 Alpha virt. eigenvalues --    0.25492   0.26126   0.28242   0.33737   0.35169

 Mulliken charges:
               1
     1  N    1.568949
     2  O   -1.364750
     3  Cl  -0.204199
 Sum of Mulliken charges =  -0.00000

 Dipole moment (field-independent basis, Debye):
    X=              3.2381    Y=              4.5150    Z=              0.0000  Tot=              5.5561

 Test job not archived.
 1\1\GINC-SE163\SP\RHF\Aug-CC-pVDZ\Cl1N1O1\OHZDE\08-Apr-2025\0\\#t hf a
 ug-cc-pvdz iop(5/13=1,5/36=2,99/5=2) pseudo=read geom=check guess=(rea
 d,tcheck) scf=(maxcycle=1)\\title\\0,1\N,0,0.,1.004096,0.\O,0,1.111826
 ,1.184137,0.\Cl,0,-0.523212,-0.970692,0.\\Version=ES64L-G16RevC.01\Sta
 te=1-A'\HF=-589.5042932\RMSD=7.194e-02\Dipole=1.2739518,1.7763541,0.\Q
 uadrupole=0.2602392,0.368528,-0.6287672,1.4211223,0.,0.\PG=CS [SG(Cl1N
 1O1)]\\@

 Normal termination of Gaussian 16 at Tue Apr  8 22:56:34 2025.
