 Gaussian 16, Revision C.01,

 ----------------------------------------------------------------------
 #t hf aug-cc-pvdz symm=none int=(grid=ultrafine) guess=(read,tcheck) s
 table=(opt,rrhf)
 ----------------------------------------------------------------------
 -----
 title
 -----
 Symbolic Z-matrix:
 Charge =  0 Multiplicity = 1

 SCF Done:  E(RHF) =  -392.095135277     A.U. after   13 cycles
 Normal termination of Gaussian 16 at Wed Apr  9 00:32:58 2025.
 Gaussian 16:  ES64L-G16RevC.01  3-Jul-2019

 ----------------------------------------------------------------------
 #t hf aug-cc-pvdz iop(5/13=1,5/36=2,99/5=2) pseudo=read geom=check gue
 ss=(read,tcheck) scf=(maxcycle=1)
 ----------------------------------------------------------------------
 -----
 title
 -----
 Structure from the checkpoint file:  "BDE49_nonexpt_389_mol1.chk"
 Charge =  0 Multiplicity = 1

                         Standard orientation:
 ---------------------------------------------------------------------
 Center     Atomic      Atomic             Coordinates (Angstroms)
 Number     Number       Type             X           Y           Z
 ---------------------------------------------------------------------
      1          9           0       -1.596647   -1.002804    0.000099
      2          9           0       -1.289988    1.239612   -0.000024
      3          5           0       -0.771698    0.016227   -0.000091
      4          6           0        0.812814   -0.195166   -0.000068
      5          8           0        1.307425   -1.310429    0.000008
      6          7           0        1.547857    0.955211    0.000008
      7          1           0        1.111594    1.862309    0.000005
      8          1           0        2.555324    0.893239    0.000070
 ---------------------------------------------------------------------

 SCF Done:  E(RHF) =  -393.589376162     A.U. after    2 cycles

 The electronic state is 1-A.
 Alpha  occ. eigenvalues --  -29.28669 -29.27468 -21.04934 -15.79795 -11.47731
 Alpha  occ. eigenvalues --   -7.73134  -1.71866  -1.36529  -1.17475  -0.86431
 Alpha  occ. eigenvalues --   -0.78072  -0.74124  -0.64899  -0.57798  -0.52451
 Alpha  occ. eigenvalues --   -0.49909  -0.48390  -0.47066  -0.36441  -0.35554
 Alpha  occ. eigenvalues --   -0.35063  -0.33807  -0.24785
 Alpha virt. eigenvalues --    0.03154   0.03906   0.04314   0.05768   0.07180
 Alpha virt. eigenvalues --    0.07775   0.10269   0.12385   0.13999   0.15115
 Alpha virt. eigenvalues --    0.15953   0.17553   0.18250   0.18541   0.20632

 Mulliken charges:
               1
     1  F    0.409626
     2  F   -0.803456
     3  B    2.040162
     4  C    1.661434
     5  O   -2.466556
     6  N   -2.420853
     7  H    0.912884
     8  H    0.666759
 Sum of Mulliken charges =   0.00000

 Dipole moment (field-independent basis, Debye):
    X=             -2.3383    Y=              2.4730    Z=              0.0004  Tot=              3.4035

 Test job not archived.
 1\1\GINC-SE103\SP\RHF\Aug-CC-pVDZ\C1H2B1F2N1O1\OHZDE\09-Apr-2025\0\\#t
  hf aug-cc-pvdz iop(5/13=1,5/36=2,99/5=2) pseudo=read geom=check guess
 =(read,tcheck) scf=(maxcycle=1)\\title\\0,1\F,0,-1.596647,-1.002804,0.
 000099\F,0,-1.289988,1.239612,-0.000024\B,0,-0.771698,0.016227,-0.0000
 91\C,0,0.812814,-0.195166,-0.000068\O,0,1.307425,-1.310429,0.000008\N,
 0,1.547857,0.955211,0.000008\H,0,1.111594,1.862309,0.000005\H,0,2.5553
 24,0.893239,0.00007\\Version=ES64L-G16RevC.01\State=1-A\HF=-393.589376
 2\RMSD=2.720e-01\Dipole=-0.9199507,0.9729712,0.0001443\Quadrupole=1.50

 Normal termination of Gaussian 16 at Wed Apr  9 00:33:01 2025.
