 Gaussian 16, Revision C.01,

 ----------------------------------------------------------------------
 #t hf aug-cc-pvdz symm=none int=(grid=ultrafine) guess=(read,tcheck) s
 table=(opt,rrhf)
 ----------------------------------------------------------------------
 -----
 title
 -----
 Symbolic Z-matrix:
 Charge =  0 Multiplicity = 1

 SCF Done:  E(RHF) =  -794.916963970     A.U. after   15 cycles
 Normal termination of Gaussian 16 at Tue Apr  8 23:40:34 2025.
 Gaussian 16:  ES64L-G16RevC.01  3-Jul-2019

 ----------------------------------------------------------------------
 #t hf aug-cc-pvdz iop(5/13=1,5/36=2,99/5=2) pseudo=read geom=check gue
 ss=(read,tcheck) scf=(maxcycle=1)
 ----------------------------------------------------------------------
 -----
 title
 -----
 Structure from the checkpoint file:  "BDE49_nonexpt_1593_mol1.chk"
 Charge =  0 Multiplicity = 1

                         Standard orientation:
 ---------------------------------------------------------------------
 Center     Atomic      Atomic             Coordinates (Angstroms)
 Number     Number       Type             X           Y           Z
 ---------------------------------------------------------------------
      1          8           0       -0.261908   -0.311466   -0.735252
      2         15           0        1.104826   -0.067631    0.131828
      3          8           0        0.953284   -0.220610    1.577892
      4          8           0        2.057044   -1.100668   -0.602159
      5          8           0       -1.132170    0.821175   -0.367817
      6          6           0       -2.169685    0.318865    0.495669
      7          6           0       -3.132564   -0.610669   -0.219485
      8          1           0       -2.659186    1.247619    0.806735
      9          1           0       -1.705452   -0.141524    1.370860
     10          1           0       -3.580754   -0.116326   -1.084058
     11          1           0       -3.932416   -0.908905    0.464146
     12          1           0       -2.619484   -1.511524   -0.558807
     13          8           0        1.679297    1.308791   -0.413640
     14          1           0        1.049731    2.031431   -0.295595
     15          1           0        2.324289   -1.813265   -0.010002
 ---------------------------------------------------------------------

 SCF Done:  E(RHF) =  -797.054149961     A.U. after    2 cycles

 The electronic state is 1-A.
 Alpha  occ. eigenvalues -- -105.33302 -21.13024 -21.12830 -21.12392 -21.11890
 Alpha  occ. eigenvalues --  -21.03287 -11.45213 -11.37721  -2.96649  -2.03519
 Alpha  occ. eigenvalues --   -1.99348  -1.93535  -1.80973  -1.63678  -1.41258
 Alpha  occ. eigenvalues --   -1.35045  -1.24890  -1.11721  -0.88590  -0.70749
 Alpha  occ. eigenvalues --   -0.67347  -0.64290  -0.59831  -0.57548  -0.55633
 Alpha  occ. eigenvalues --   -0.53888  -0.52079  -0.47523  -0.44782  -0.42374
 Alpha  occ. eigenvalues --   -0.40582  -0.38244  -0.35391  -0.32913  -0.28801
 Alpha  occ. eigenvalues --   -0.25891  -0.16824
 Alpha virt. eigenvalues --    0.03598   0.04895   0.05531   0.05770   0.06092
 Alpha virt. eigenvalues --    0.07049   0.07838   0.10697   0.10916   0.11882
 Alpha virt. eigenvalues --    0.12908   0.14308   0.14796   0.14895   0.16762

 Mulliken charges:
               1
     1  O   -2.028605
     2  P    8.901791
     3  O   -2.863708
     4  O   -2.712640
     5  O   -1.652192
     6  C   -1.963916
     7  C   -3.466322
     8  H    1.339739
     9  H    1.761747
    10  H    1.324427
    11  H    1.148307
    12  H    1.305983
    13  O   -2.898920
    14  H    0.925479
    15  H    0.878830
 Sum of Mulliken charges =   0.00000

 Dipole moment (field-independent basis, Debye):
    X=             -0.9478    Y=              0.2367    Z=             -1.9174  Tot=              2.1519

 Test job not archived.
 1\1\GINC-SE041\SP\RHF\Aug-CC-pVDZ\C2H7O5P1\OHZDE\08-Apr-2025\0\\#t hf
 aug-cc-pvdz iop(5/13=1,5/36=2,99/5=2) pseudo=read geom=check guess=(re
 ad,tcheck) scf=(maxcycle=1)\\title\\0,1\O,0,0.261908,0.311466,-0.73525
 2\P,0,-1.104826,0.067631,0.131828\O,0,-0.953284,0.22061,1.577892\O,0,-
 2.057044,1.100668,-0.602159\O,0,1.13217,-0.821175,-0.367817\C,0,2.1696
 85,-0.318865,0.495669\C,0,3.132564,0.610669,-0.219485\H,0,2.659186,-1.
 247619,0.806735\H,0,1.705452,0.141524,1.37086\H,0,3.580754,0.116326,-1
 .084058\H,0,3.932416,0.908905,0.464146\H,0,2.619484,1.511524,-0.558807

 Normal termination of Gaussian 16 at Tue Apr  8 23:40:41 2025.
