 Gaussian 16, Revision C.01,

 ----------------------------------------------------------------------
 #t hf aug-cc-pvdz symm=none int=(grid=ultrafine) guess=(read,tcheck) s
 table=(opt,rrhf)
 ----------------------------------------------------------------------
 -----
 title
 -----
 Symbolic Z-matrix:
 Charge =  0 Multiplicity = 1

 SCF Done:  E(RHF) =  -321.786471085     A.U. after   15 cycles
 Normal termination of Gaussian 16 at Tue Apr  8 22:53:50 2025.
 Gaussian 16:  ES64L-G16RevC.01  3-Jul-2019

 ----------------------------------------------------------------------
 #t hf aug-cc-pvdz iop(5/13=1,5/36=2,99/5=2) pseudo=read geom=check gue
 ss=(read,tcheck) scf=(maxcycle=1)
 ----------------------------------------------------------------------
 -----
 title
 -----
 Structure from the checkpoint file:  "BDE49_expt_1780_mol1.chk"
 Charge =  0 Multiplicity = 1

                         Standard orientation:
 ---------------------------------------------------------------------
 Center     Atomic      Atomic             Coordinates (Angstroms)
 Number     Number       Type             X           Y           Z
 ---------------------------------------------------------------------
      1          8           0       -0.503418   -0.488365   -0.452990
      2          7           0       -1.874059   -0.606148   -0.191655
      3          8           0       -2.340099    0.289223    0.421525
      4          6           0        0.158005    0.697227    0.056450
      5          6           0        1.628903    0.584483   -0.310297
      6          1           0        0.007805    0.747476    1.139536
      7          1           0       -0.310589    1.579177   -0.389306
      8          6           0        2.341915   -0.590752    0.363606
      9          1           0        2.108115    1.528146   -0.026477
     10          1           0        1.714250    0.505758   -1.398431
     11          1           0        2.303559   -0.502217    1.453672
     12          1           0        3.393277   -0.629155    0.069228
     13          1           0        1.877193   -1.538755    0.086519
 ---------------------------------------------------------------------

 SCF Done:  E(RHF) =  -323.232373008     A.U. after    2 cycles

 The electronic state is 1-A.
 Alpha  occ. eigenvalues --  -21.14312 -21.10029 -15.92998 -11.45517 -11.40443
 Alpha  occ. eigenvalues --  -11.36256  -1.97063  -1.72366  -1.20686  -1.03463
 Alpha  occ. eigenvalues --   -0.92214  -0.83222  -0.69168  -0.67105  -0.62972
 Alpha  occ. eigenvalues --   -0.59574  -0.58610  -0.55740  -0.50051  -0.48022
 Alpha  occ. eigenvalues --   -0.46604  -0.42073  -0.34156  -0.30091
 Alpha virt. eigenvalues --    0.03902   0.05287   0.05641   0.05932   0.06068
 Alpha virt. eigenvalues --    0.07166   0.07371   0.10826   0.11629   0.13470
 Alpha virt. eigenvalues --    0.14010   0.14190   0.15103   0.15555   0.16412

 Mulliken charges:
               1
     1  O   -1.969451
     2  N    2.263801
     3  O   -1.746464
     4  C   -1.513489
     5  C   -3.101495
     6  H    1.693620
     7  H    1.486110
     8  C   -3.580342
     9  H    1.266659
    10  H    1.393503
    11  H    1.269962
    12  H    1.159693
    13  H    1.377893
 Sum of Mulliken charges =  -0.00000

 Dipole moment (field-independent basis, Debye):
    X=              1.7306    Y=              1.2042    Z=              0.2668  Tot=              2.1251

 Test job not archived.
 1\1\GINC-SE249\SP\RHF\Aug-CC-pVDZ\C3H7N1O2\OHZDE\08-Apr-2025\0\\#t hf
 aug-cc-pvdz iop(5/13=1,5/36=2,99/5=2) pseudo=read geom=check guess=(re
 ad,tcheck) scf=(maxcycle=1)\\title\\0,1\O,0,-0.503418,-0.488365,-0.452
 99\N,0,-1.874059,-0.606148,-0.191655\O,0,-2.340099,0.289223,0.421525\C
 ,0,0.158005,0.697227,0.05645\C,0,1.628903,0.584483,-0.310297\H,0,0.007
 805,0.747476,1.139536\H,0,-0.310589,1.579177,-0.389306\C,0,2.341915,-0
 .590752,0.363606\H,0,2.108115,1.528146,-0.026477\H,0,1.71425,0.505758,
 -1.398431\H,0,2.303559,-0.502217,1.453672\H,0,3.393277,-0.629155,0.069

 Normal termination of Gaussian 16 at Tue Apr  8 22:53:54 2025.
