 Gaussian 16, Revision C.01,

 ----------------------------------------------------------------------
 #t hf aug-cc-pvdz symm=none int=(grid=ultrafine) guess=(read,tcheck) s
 table=(opt,rrhf)
 ----------------------------------------------------------------------
 -----
 title
 -----
 Symbolic Z-matrix:
 Charge =  0 Multiplicity = 1

 SCF Done:  E(RHF) =  -1191.36934824     A.U. after   15 cycles
 Normal termination of Gaussian 16 at Tue Apr  8 23:44:59 2025.
 Gaussian 16:  ES64L-G16RevC.01  3-Jul-2019

 ----------------------------------------------------------------------
 #t hf aug-cc-pvdz iop(5/13=1,5/36=2,99/5=2) pseudo=read geom=check gue
 ss=(read,tcheck) scf=(maxcycle=1)
 ----------------------------------------------------------------------
 -----
 title
 -----
 Structure from the checkpoint file:  "BDE49_nonexpt_1723_mol1.chk"
 Charge =  0 Multiplicity = 1

                         Standard orientation:
 ---------------------------------------------------------------------
 Center     Atomic      Atomic             Coordinates (Angstroms)
 Number     Number       Type             X           Y           Z
 ---------------------------------------------------------------------
      1         16           0        0.137565    1.357114   -0.458171
      2         15           0        1.521660   -0.187404    0.057617
      3          8           0        2.838176    0.369180   -0.250173
      4          8           0        1.088712   -1.499799   -0.683493
      5          8           0       -1.376637    0.919689    0.285765
      6          6           0       -2.042287   -0.194509   -0.096347
      7          6           0       -3.445067   -0.178978    0.446329
      8          1           0       -3.883864   -1.168240    0.336909
      9          1           0       -4.034834    0.549011   -0.116800
     10          1           0       -3.445591    0.131834    1.491431
     11          8           0       -1.571336   -1.079238   -0.772139
     12          8           0        1.216633   -0.554612    1.585811
     13          1           0        1.576748    0.104242    2.193712
     14          1           0        0.121331   -1.520445   -0.864830
 ---------------------------------------------------------------------

 SCF Done:  E(RHF) =  -1193.69537978     A.U. after    2 cycles

 The electronic state is 1-A.
 Alpha  occ. eigenvalues -- -105.33386 -75.76834 -21.14069 -21.13619 -21.11357
 Alpha  occ. eigenvalues --  -21.09342 -21.04065 -13.22819 -13.15375 -13.11724
 Alpha  occ. eigenvalues --  -11.56566 -11.42345  -8.10436  -2.95929  -2.01846
 Alpha  occ. eigenvalues --   -1.93086  -1.87274  -1.79335  -1.71046  -1.54833
 Alpha  occ. eigenvalues --   -1.40867  -1.26434  -1.15153  -1.05069  -0.80329
 Alpha  occ. eigenvalues --   -0.69393  -0.67429  -0.65350  -0.64190  -0.60892
 Alpha  occ. eigenvalues --   -0.56917  -0.54744  -0.52157  -0.46283  -0.44113
 Alpha  occ. eigenvalues --   -0.43607  -0.40675  -0.36380  -0.35083  -0.34139
 Alpha  occ. eigenvalues --   -0.29888  -0.27723  -0.22531  -0.16104
 Alpha virt. eigenvalues --    0.02467   0.04535   0.05442   0.05573   0.07232
 Alpha virt. eigenvalues --    0.08002   0.08476   0.10764   0.11458   0.11608
 Alpha virt. eigenvalues --    0.12349   0.12870   0.13492   0.13993   0.14784

 Mulliken charges:
               1
     1  S   -0.815774
     2  P    8.020645
     3  O   -2.769521
     4  O   -3.354337
     5  O   -2.663172
     6  C    5.226591
     7  C   -4.138903
     8  H    1.267709
     9  H    1.226232
    10  H    1.289257
    11  O   -3.114539
    12  O   -2.732050
    13  H    0.886432
    14  H    1.671431
 Sum of Mulliken charges =   0.00000

 Dipole moment (field-independent basis, Debye):
    X=             -2.8742    Y=             -0.5260    Z=              1.8167  Tot=              3.4407

 Test job not archived.
 1\1\GINC-SE435\SP\RHF\Aug-CC-pVDZ\C2H5O5P1S1\OHZDE\08-Apr-2025\0\\#t h
 f aug-cc-pvdz iop(5/13=1,5/36=2,99/5=2) pseudo=read geom=check guess=(
 read,tcheck) scf=(maxcycle=1)\\title\\0,1\S,0,0.137565,1.357114,-0.458
 171\P,0,1.52166,-0.187404,0.057617\O,0,2.838176,0.36918,-0.250173\O,0,
 1.088712,-1.499799,-0.683493\O,0,-1.376637,0.919689,0.285765\C,0,-2.04
 2287,-0.194509,-0.096347\C,0,-3.445067,-0.178978,0.446329\H,0,-3.88386
 4,-1.16824,0.336909\H,0,-4.034834,0.549011,-0.1168\H,0,-3.445591,0.131
 834,1.491431\O,0,-1.571336,-1.079238,-0.772139\O,0,1.216633,-0.554612,

 Normal termination of Gaussian 16 at Tue Apr  8 23:45:05 2025.
