 Gaussian 16, Revision C.01,

 ----------------------------------------------------------------------
 #t hf aug-cc-pvdz symm=none int=(grid=ultrafine) guess=(read,tcheck) s
 table=(opt,rrhf)
 ----------------------------------------------------------------------
 -----
 title
 -----
 Symbolic Z-matrix:
 Charge =  0 Multiplicity = 1

 SCF Done:  E(RHF) =  -330.916049455     A.U. after   15 cycles
 Normal termination of Gaussian 16 at Tue Apr  8 23:21:17 2025.
 Gaussian 16:  ES64L-G16RevC.01  3-Jul-2019

 ----------------------------------------------------------------------
 #t hf aug-cc-pvdz iop(5/13=1,5/36=2,99/5=2) pseudo=read geom=check gue
 ss=(read,tcheck) scf=(maxcycle=1)
 ----------------------------------------------------------------------
 -----
 title
 -----
 Structure from the checkpoint file:  "BDE49_nonexpt_1124_mol1.chk"
 Charge =  0 Multiplicity = 1

                         Standard orientation:
 ---------------------------------------------------------------------
 Center     Atomic      Atomic             Coordinates (Angstroms)
 Number     Number       Type             X           Y           Z
 ---------------------------------------------------------------------
      1          9           0        2.018342   -1.015755    0.309616
      2          8           0        1.659034    0.007971   -0.657223
      3          6           0        0.941712    0.991880    0.080832
      4          6           0       -0.408977    0.518471    0.602380
      5          1           0        1.582669    1.379200    0.879295
      6          6           0       -1.364259    0.040173   -0.495957
      7          1           0       -0.858121    1.350432    1.158950
      8          1           0       -0.237884   -0.283788    1.326531
      9          6           0       -2.700904   -0.461619    0.056099
     10          1           0       -0.876971   -0.756042   -1.066264
     11          1           0       -1.543377    0.860263   -1.202438
     12          1           0       -2.553889   -1.304011    0.738864
     13          1           0       -3.360203   -0.798001   -0.748258
     14          1           0       -3.224943    0.324819    0.608543
     15          1           0        0.829933    1.771726   -0.684104
 ---------------------------------------------------------------------

 SCF Done:  E(RHF) =  -332.363915385     A.U. after    2 cycles

 The electronic state is 1-A.
 Alpha  occ. eigenvalues --  -29.27617 -21.14708 -11.45690 -11.41741 -11.38612
 Alpha  occ. eigenvalues --  -11.35374  -1.79420  -1.23081  -1.06801  -0.92692
 Alpha  occ. eigenvalues --   -0.84466  -0.70641  -0.66670  -0.62687  -0.59670
 Alpha  occ. eigenvalues --   -0.57591  -0.52365  -0.50107  -0.47980  -0.46591
 Alpha  occ. eigenvalues --   -0.45531  -0.41236  -0.34039  -0.25303  -0.21051
 Alpha virt. eigenvalues --    0.04096   0.04925   0.05184   0.05654   0.06074
 Alpha virt. eigenvalues --    0.06532   0.07003   0.08012   0.09044   0.10792
 Alpha virt. eigenvalues --    0.12604   0.13334   0.14205   0.15239   0.15967

 Mulliken charges:
               1
     1  F   -0.194004
     2  O   -1.403902
     3  C   -1.462666
     4  C   -2.517326
     5  H    1.270061
     6  C   -2.718087
     7  H    1.419309
     8  H    1.419705
     9  C   -3.895772
    10  H    1.518376
    11  H    1.379996
    12  H    1.313325
    13  H    1.101814
    14  H    1.269132
    15  H    1.500038
 Sum of Mulliken charges =  -0.00000

 Dipole moment (field-independent basis, Debye):
    X=             -0.3779    Y=             -0.2573    Z=              0.8346  Tot=              0.9516

 Test job not archived.
 1\1\GINC-SE083\SP\RHF\Aug-CC-pVDZ\C4H9F1O1\OHZDE\08-Apr-2025\0\\#t hf
 aug-cc-pvdz iop(5/13=1,5/36=2,99/5=2) pseudo=read geom=check guess=(re
 ad,tcheck) scf=(maxcycle=1)\\title\\0,1\F,0,2.018342,-1.015755,0.30961
 6\O,0,1.659034,0.007971,-0.657223\C,0,0.941712,0.99188,0.080832\C,0,-0
 .408977,0.518471,0.60238\H,0,1.582669,1.3792,0.879295\C,0,-1.364259,0.
 040173,-0.495957\H,0,-0.858121,1.350432,1.15895\H,0,-0.237884,-0.28378
 8,1.326531\C,0,-2.700904,-0.461619,0.056099\H,0,-0.876971,-0.756042,-1
 .066264\H,0,-1.543377,0.860263,-1.202438\H,0,-2.553889,-1.304011,0.738

 Normal termination of Gaussian 16 at Tue Apr  8 23:21:23 2025.
