 Gaussian 16, Revision C.01,

 ----------------------------------------------------------------------
 #t hf aug-cc-pvdz symm=none int=(grid=ultrafine) guess=(read,tcheck) s
 table=(opt,rrhf)
 ----------------------------------------------------------------------
 -----
 title
 -----
 Symbolic Z-matrix:
 Charge =  0 Multiplicity = 1

 SCF Done:  E(RHF) =  -983.552969488     A.U. after   19 cycles
 Normal termination of Gaussian 16 at Tue Apr  8 23:20:22 2025.
 Gaussian 16:  ES64L-G16RevC.01  3-Jul-2019

 ----------------------------------------------------------------------
 #t hf aug-cc-pvdz iop(5/13=1,5/36=2,99/5=2) pseudo=read geom=check gue
 ss=(read,tcheck) scf=(maxcycle=1)
 ----------------------------------------------------------------------
 -----
 title
 -----
 Structure from the checkpoint file:  "BDE49_nonexpt_1003_mol1.chk"
 Charge =  0 Multiplicity = 1

                         Standard orientation:
 ---------------------------------------------------------------------
 Center     Atomic      Atomic             Coordinates (Angstroms)
 Number     Number       Type             X           Y           Z
 ---------------------------------------------------------------------
      1          6           0        2.807224    0.166725    0.008832
      2          6           0        2.213343    1.440271    0.004072
      3          6           0        0.839888    1.563470   -0.007423
      4          6           0        1.998838   -0.976397    0.001967
      5          6           0        0.615260   -0.838203   -0.009484
      6          6           0        0.015834    0.422947   -0.014431
      7          1           0        2.860164    2.308845    0.009445
      8          1           0        0.372288    2.540026   -0.011358
      9          1           0        2.432477   -1.966678    0.006176
     10          1           0        0.000597   -1.730307   -0.013026
     11          6           0       -1.451255    0.633880   -0.027621
     12         16           0       -2.467462   -0.908588   -0.068378
     13          7           0       -4.173044    0.029106    0.082642
     14          8           0       -5.097369   -0.671000    0.069016
     15          8           0       -1.977089    1.714657   -0.019269
     16          8           0        4.160517    0.151349    0.020139
     17          6           0        4.835999   -1.103080    0.025053
     18          1           0        4.586935   -1.685801    0.917774
     19          1           0        5.897726   -0.865039    0.033654
     20          1           0        4.601245   -1.685108   -0.871990
 ---------------------------------------------------------------------

 SCF Done:  E(RHF) =  -986.379981295     A.U. after    2 cycles

 The electronic state is 1-A.
 Alpha  occ. eigenvalues --  -75.71794 -21.18908 -21.09661 -21.06634 -15.94280
 Alpha  occ. eigenvalues --  -13.14662 -13.11480 -13.03039 -11.55215 -11.52999
 Alpha  occ. eigenvalues --  -11.48721 -11.46081 -11.44472 -11.43076 -11.42479
 Alpha  occ. eigenvalues --  -11.38993  -8.05682  -1.92925  -1.81144  -1.73021
 Alpha  occ. eigenvalues --   -1.34841  -1.18562  -1.12129  -1.11768  -1.02211
 Alpha  occ. eigenvalues --   -0.95475  -0.90258  -0.87551  -0.78588  -0.70456
 Alpha  occ. eigenvalues --   -0.67284  -0.65630  -0.64172  -0.61993  -0.61025
 Alpha  occ. eigenvalues --   -0.60479  -0.59247  -0.58392  -0.56581  -0.55768
 Alpha  occ. eigenvalues --   -0.50689  -0.50600  -0.49186  -0.45907  -0.41181
 Alpha  occ. eigenvalues --   -0.41164  -0.35539  -0.27937  -0.27181  -0.26785
 Alpha  occ. eigenvalues --   -0.24835
 Alpha virt. eigenvalues --    0.02786   0.04351   0.05333   0.05580   0.06274
 Alpha virt. eigenvalues --    0.06567   0.07426   0.08088   0.08594   0.09445
 Alpha virt. eigenvalues --    0.10018   0.10115   0.10496   0.12046   0.12813

 Mulliken charges:
               1
     1  C    3.525386
     2  C   -3.234359
     3  C   -2.190307
     4  C   -3.619373
     5  C    2.319767
     6  C    2.796272
     7  H    1.884817
     8  H    1.854367
     9  H    1.832807
    10  H    2.218622
    11  C    0.308006
    12  S    1.115977
    13  N    1.164785
    14  O   -1.837336
    15  O   -3.788102
    16  O   -4.746802
    17  C   -3.811905
    18  H    1.385664
    19  H    1.433851
    20  H    1.387863
 Sum of Mulliken charges =  -0.00000

 Dipole moment (field-independent basis, Debye):
    X=              3.2656    Y=             -2.7320    Z=             -0.0966  Tot=              4.2588

 Test job not archived.
 1\1\GINC-SE174\SP\RHF\Aug-CC-pVDZ\C8H7N1O3S1\OHZDE\08-Apr-2025\0\\#t h
 f aug-cc-pvdz iop(5/13=1,5/36=2,99/5=2) pseudo=read geom=check guess=(
 read,tcheck) scf=(maxcycle=1)\\title\\0,1\C,0,2.807224,0.166725,0.0088
 32\C,0,2.213343,1.440271,0.004072\C,0,0.839888,1.56347,-0.007423\C,0,1
 .998838,-0.976397,0.001967\C,0,0.61526,-0.838203,-0.009484\C,0,0.01583
 4,0.422947,-0.014431\H,0,2.860164,2.308845,0.009445\H,0,0.372288,2.540
 026,-0.011358\H,0,2.432477,-1.966678,0.006176\H,0,0.000597,-1.730307,-
 0.013026\C,0,-1.451255,0.63388,-0.027621\S,0,-2.467462,-0.908588,-0.06

 Normal termination of Gaussian 16 at Tue Apr  8 23:20:36 2025.
