 Gaussian 16, Revision C.01,

 ----------------------------------------------------------------------
 #t hf aug-cc-pvdz symm=none int=(grid=ultrafine) guess=(read,tcheck) s
 table=(opt,rrhf)
 ----------------------------------------------------------------------
 -----
 title
 -----
 Symbolic Z-matrix:
 Charge =  0 Multiplicity = 1

 SCF Done:  E(RHF) =  -502.868973861     A.U. after   12 cycles
 Normal termination of Gaussian 16 at Tue Apr  8 23:57:54 2025.
 Gaussian 16:  ES64L-G16RevC.01  3-Jul-2019

 ----------------------------------------------------------------------
 #t hf aug-cc-pvdz iop(5/13=1,5/36=2,99/5=2) pseudo=read geom=check gue
 ss=(read,tcheck) scf=(maxcycle=1)
 ----------------------------------------------------------------------
 -----
 title
 -----
 Structure from the checkpoint file:  "BDE49_nonexpt_2041_mol1.chk"
 Charge =  0 Multiplicity = 1

                         Standard orientation:
 ---------------------------------------------------------------------
 Center     Atomic      Atomic             Coordinates (Angstroms)
 Number     Number       Type             X           Y           Z
 ---------------------------------------------------------------------
      1         14           0        1.333488    0.016971    0.000020
      2          6           0       -0.581145    0.153579    0.000093
      3          8           0       -1.273288    1.110870   -0.000025
      4          9           0       -1.147736   -1.107924   -0.000072
      5          1           0        1.883396    1.383694   -0.000022
      6          1           0        1.725241   -0.729221   -1.211842
      7          1           0        1.725326   -0.729182    1.211878
 ---------------------------------------------------------------------

 SCF Done:  E(RHF) =  -503.832073173     A.U. after    2 cycles

 The electronic state is 1-A.
 Alpha  occ. eigenvalues --  -76.26026 -29.29509 -21.10376 -11.52556  -5.59561
 Alpha  occ. eigenvalues --   -2.22906  -2.21903  -2.21646  -1.76547  -1.04849
 Alpha  occ. eigenvalues --   -0.82103  -0.64966  -0.58029  -0.56670  -0.50693
 Alpha  occ. eigenvalues --   -0.49710  -0.42757  -0.29656  -0.28646  -0.27371
 Alpha virt. eigenvalues --    0.03676   0.05407   0.05603   0.06161   0.08545
 Alpha virt. eigenvalues --    0.08816   0.10670   0.12326   0.12918   0.13787
 Alpha virt. eigenvalues --    0.15010   0.16715   0.17691   0.18208   0.21385

 Mulliken charges:
               1
     1  Si   5.941237
     2  C    0.745922
     3  O   -2.444061
     4  F    0.558363
     5  H   -1.557968
     6  H   -1.621749
     7  H   -1.621744
 Sum of Mulliken charges =  -0.00000

 Dipole moment (field-independent basis, Debye):
    X=              0.2078    Y=             -3.0444    Z=             -0.0003  Tot=              3.0514

 Test job not archived.
 1\1\GINC-SE273\SP\RHF\Aug-CC-pVDZ\C1H3F1O1Si1\OHZDE\08-Apr-2025\0\\#t
 hf aug-cc-pvdz iop(5/13=1,5/36=2,99/5=2) pseudo=read geom=check guess=
 (read,tcheck) scf=(maxcycle=1)\\title\\0,1\Si,0,1.333488,0.016971,0.00
 002\C,0,-0.581145,0.153579,0.000093\O,0,-1.273287,1.11087,-0.000025\F,
 0,-1.147736,-1.107924,-0.000072\H,0,1.883397,1.383693,-0.000022\H,0,1.
 725241,-0.729222,-1.211842\H,0,1.725326,-0.729183,1.211878\\Version=ES
 64L-G16RevC.01\State=1-A\HF=-503.8320732\RMSD=8.094e-02\Dipole=0.08175
 36,-1.1977427,-0.0001313\Quadrupole=0.2993405,-0.6452858,0.3459453,2.8

 Normal termination of Gaussian 16 at Tue Apr  8 23:57:57 2025.
