 Gaussian 16, Revision C.01,

 ----------------------------------------------------------------------
 #t hf aug-cc-pvdz symm=none int=(grid=ultrafine) guess=(read,tcheck) s
 table=(opt,rrhf)
 ----------------------------------------------------------------------
 -----
 title
 -----
 Symbolic Z-matrix:
 Charge =  0 Multiplicity = 1

 SCF Done:  E(RHF) =  -795.727268131     A.U. after   11 cycles

 1\1\GINC-SE083\Stability\RHF\Aug-CC-pVDZ\C1Cl1F3\OHZDE\08-Apr-2025\0\\
 #t hf aug-cc-pvdz symm=none int=(grid=ultrafine) guess=(read,tcheck) s
 table=(opt,rrhf)\\title\\0,1\C,0,-0.357698,0.000029,-0.000006\F,0,-0.8
 1452,-0.649193,-1.067563\Cl,0,1.419864,-0.000004,-0.000009\F,0,-0.8144
 83,-0.600015,1.095968\F,0,-0.814497,1.249195,-0.028384\\Version=ES64L-
 G16RevC.01\HF=-795.7272681\RMSD=8.208e-09\Dipole=0.1908158,0.0000503,-
 0.0000197\Quadrupole=0.9613894,-0.4807415,-0.4806479,-0.0001305,0.0000
 283,0.000013\PG=Unknown\\@

 Normal termination of Gaussian 16 at Tue Apr  8 22:45:31 2025.
 Gaussian 16:  ES64L-G16RevC.01  3-Jul-2019

 ----------------------------------------------------------------------
 #t hf aug-cc-pvdz iop(5/13=1,5/36=2,99/5=2) pseudo=read geom=check gue
 ss=(read,tcheck) scf=(maxcycle=1)
 ----------------------------------------------------------------------
 -----
 title
 -----
 Structure from the checkpoint file:  "BDE49_expt_1500_mol1.chk"
 Charge =  0 Multiplicity = 1

                         Standard orientation:
 ---------------------------------------------------------------------
 Center     Atomic      Atomic             Coordinates (Angstroms)
 Number     Number       Type             X           Y           Z
 ---------------------------------------------------------------------
      1          6           0       -0.357698    0.000029   -0.000006
      2          9           0       -0.814520   -0.649193   -1.067563
      3         17           0        1.419864   -0.000004   -0.000009
      4          9           0       -0.814483   -0.600015    1.095968
      5          9           0       -0.814497    1.249195   -0.028384
 ---------------------------------------------------------------------

 SCF Done:  E(RHF) =  -797.142355450     A.U. after    2 cycles

 The electronic state is 1-A.
 Alpha  occ. eigenvalues --  -99.93553 -29.34439 -29.34438 -29.34371 -11.63881
 Alpha  occ. eigenvalues --  -10.51092  -9.70798  -9.69945  -9.69945  -1.50867
 Alpha  occ. eigenvalues --   -1.28181  -0.94120  -0.94117  -0.80363  -0.56721
 Alpha  occ. eigenvalues --   -0.56721  -0.50715  -0.46390  -0.46389  -0.38727
 Alpha  occ. eigenvalues --   -0.38725  -0.38472  -0.28451  -0.28450  -0.24231
 Alpha virt. eigenvalues --    0.05371   0.07534   0.12113   0.12113   0.14347
 Alpha virt. eigenvalues --    0.14531   0.14531   0.18219   0.21068   0.21845
 Alpha virt. eigenvalues --    0.21845   0.26179   0.26179   0.27585   0.28730

 Mulliken charges:
               1
     1  C   -1.929722
     2  F    0.836884
     3  Cl  -0.580866
     4  F    0.836891
     5  F    0.836813
 Sum of Mulliken charges =  -0.00000

 Dipole moment (field-independent basis, Debye):
    X=             -4.2861    Y=             -0.0001    Z=              0.0001  Tot=              4.2861

 Test job not archived.
 1\1\GINC-SE083\SP\RHF\Aug-CC-pVDZ\C1Cl1F3\OHZDE\08-Apr-2025\0\\#t hf a
 ug-cc-pvdz iop(5/13=1,5/36=2,99/5=2) pseudo=read geom=check guess=(rea
 d,tcheck) scf=(maxcycle=1)\\title\\0,1\C,0,-0.357698,0.000029,-0.00000
 6\F,0,-0.81452,-0.649193,-1.067563\Cl,0,1.419864,-0.000004,-0.000009\F
 ,0,-0.814483,-0.600015,1.095968\F,0,-0.814497,1.249195,-0.028384\\Vers
 ion=ES64L-G16RevC.01\State=1-A\HF=-797.1423554\RMSD=3.016e-02\Dipole=-
 1.6862791,-0.0000562,0.0000203\Quadrupole=-0.6854317,0.3431265,0.34230
 52,0.0000164,0.0000608,0.0000243\PG=C01 [X(C1Cl1F3)]\\@

 Normal termination of Gaussian 16 at Tue Apr  8 22:45:34 2025.
