 Gaussian 16, Revision C.01,

 ----------------------------------------------------------------------
 #t hf aug-cc-pvdz symm=none int=(grid=ultrafine) guess=(read,tcheck) s
 table=(opt,rrhf)
 ----------------------------------------------------------------------
 -----
 title
 -----
 Symbolic Z-matrix:
 Charge =  0 Multiplicity = 1

 SCF Done:  E(RHF) =  -696.429737232     A.U. after   12 cycles
 Normal termination of Gaussian 16 at Tue Apr  8 23:30:33 2025.
 Gaussian 16:  ES64L-G16RevC.01  3-Jul-2019

 ----------------------------------------------------------------------
 #t hf aug-cc-pvdz iop(5/13=1,5/36=2,99/5=2) pseudo=read geom=check gue
 ss=(read,tcheck) scf=(maxcycle=1)
 ----------------------------------------------------------------------
 -----
 title
 -----
 Structure from the checkpoint file:  "BDE49_nonexpt_1345_mol1.chk"
 Charge =  0 Multiplicity = 1

                         Standard orientation:
 ---------------------------------------------------------------------
 Center     Atomic      Atomic             Coordinates (Angstroms)
 Number     Number       Type             X           Y           Z
 ---------------------------------------------------------------------
      1          6           0        0.826876    0.000000    0.040937
      2         15           0       -0.905181   -0.000000   -0.648953
      3          9           0       -1.507903   -1.227869    0.231323
      4          9           0       -1.507903    1.227869    0.231323
      5          6           0        1.512513    1.265055   -0.511559
      6          1           0        1.486519    1.298525   -1.605723
      7          1           0        2.563595    1.280075   -0.206919
      8          1           0        1.039232    2.174177   -0.132798
      9          6           0        1.512513   -1.265055   -0.511559
     10          1           0        1.486519   -1.298525   -1.605724
     11          1           0        1.039232   -2.174177   -0.132798
     12          1           0        2.563596   -1.280075   -0.206919
     13          6           0        0.823521    0.000000    1.576934
     14          1           0        0.317977    0.883694    1.970957
     15          1           0        1.852788    0.000000    1.950930
     16          1           0        0.317977   -0.883694    1.970957
 ---------------------------------------------------------------------

 SCF Done:  E(RHF) =  -698.115786530     A.U. after    2 cycles

 The electronic state is 1-A.
 Alpha  occ. eigenvalues -- -105.28119 -29.27630 -29.27628 -11.42512 -11.40439
 Alpha  occ. eigenvalues --  -11.39694 -11.36090  -2.87468  -1.61357  -1.59453
 Alpha  occ. eigenvalues --   -1.56392  -1.24546  -1.02356  -1.02175  -0.89824
 Alpha  occ. eigenvalues --   -0.76104  -0.62410  -0.61835  -0.60902  -0.56176
 Alpha  occ. eigenvalues --   -0.55822  -0.55713  -0.52884  -0.45534  -0.45385
 Alpha  occ. eigenvalues --   -0.43840  -0.39101  -0.34058  -0.32830  -0.27330
 Alpha  occ. eigenvalues --   -0.19128  -0.18538   0.00019
 Alpha virt. eigenvalues --    0.04348   0.05715   0.05749   0.06010   0.06362
 Alpha virt. eigenvalues --    0.06521   0.07219   0.07545   0.08871   0.09155
 Alpha virt. eigenvalues --    0.11977   0.12365   0.12831   0.15068   0.15137

 Mulliken charges:
               1
     1  C    1.664269
     2  P    2.781588
     3  F   -0.676439
     4  F   -0.676439
     5  C   -4.001283
     6  H    0.961322
     7  H    1.166282
     8  H    1.246316
     9  C   -4.001282
    10  H    0.961321
    11  H    1.246315
    12  H    1.166281
    13  C   -5.226939
    14  H    1.158450
    15  H    1.071788
    16  H    1.158450
 Sum of Mulliken charges =   0.00000

 Dipole moment (field-independent basis, Debye):
    X=             -3.0205    Y=              0.0000    Z=              6.8821  Tot=              7.5157

 Test job not archived.
 1\1\GINC-SE232\SP\RHF\Aug-CC-pVDZ\C4H9F2P1\OHZDE\08-Apr-2025\0\\#t hf
 aug-cc-pvdz iop(5/13=1,5/36=2,99/5=2) pseudo=read geom=check guess=(re
 ad,tcheck) scf=(maxcycle=1)\\title\\0,1\C,0,0.826876,0.,0.040937\P,0,-
 0.905181,0.,-0.648953\F,0,-1.507903,-1.227869,0.231323\F,0,-1.507903,1
 .227869,0.231323\C,0,1.512513,1.265055,-0.511559\H,0,1.486519,1.298525
 ,-1.605723\H,0,2.563595,1.280075,-0.206919\H,0,1.039232,2.174177,-0.13
 2798\C,0,1.512513,-1.265055,-0.511559\H,0,1.486519,-1.298525,-1.605724
 \H,0,1.039232,-2.174177,-0.132798\H,0,2.563596,-1.280075,-0.206919\C,0

 Normal termination of Gaussian 16 at Tue Apr  8 23:30:40 2025.
