 Gaussian 16, Revision C.01,

 ----------------------------------------------------------------------
 #t hf aug-cc-pvdz symm=none int=(grid=ultrafine) guess=(read,tcheck) s
 table=opt
 ----------------------------------------------------------------------
 -----
 title
 -----
 Symbolic Z-matrix:
 Charge =  0 Multiplicity = 2

 SCF Done:  E(UHF) =  -710.401002155     A.U. after   54 cycles

 1\1\GINC-SE342\Stability\UHF\Aug-CC-pVDZ\C8H17S1\OHZDE\08-Apr-2025\0\\
 #t hf aug-cc-pvdz symm=none int=(grid=ultrafine) guess=(read,tcheck) s
 table=opt\\title\\0,2\C,0,-5.105129,0.453449,0.133683\C,0,-3.880928,-0
 .345067,-0.323209\H,0,-6.030321,0.032194,-0.26896\H,0,-5.043416,1.4951
 16,-0.196444\H,0,-5.189749,0.457935,1.224927\C,0,-2.558622,0.210462,0.
 218005\H,0,-3.843409,-0.360435,-1.419175\H,0,-3.988612,-1.390256,-0.00
 859\C,0,-1.327873,-0.582948,-0.234893\H,0,-2.596351,0.226364,1.315038\
 H,0,-2.450925,1.256366,-0.096887\C,0,-0.007127,-0.02474,0.306134\H,0,-

 Normal termination of Gaussian 16 at Tue Apr  8 23:23:15 2025.
 Gaussian 16:  ES64L-G16RevC.01  3-Jul-2019

 ----------------------------------------------------------------------
 #t hf aug-cc-pvdz iop(5/13=1,5/36=2,99/5=2) pseudo=read geom=check gue
 ss=(read,tcheck) scf=(maxcycle=1)
 ----------------------------------------------------------------------
 -----
 title
 -----
 Structure from the checkpoint file:  "BDE49_expt_832_mol2.chk"
 Charge =  0 Multiplicity = 2

                         Standard orientation:
 ---------------------------------------------------------------------
 Center     Atomic      Atomic             Coordinates (Angstroms)
 Number     Number       Type             X           Y           Z
 ---------------------------------------------------------------------
      1          6           0       -5.105129    0.453449    0.133683
      2          6           0       -3.880928   -0.345067   -0.323209
      3          1           0       -6.030321    0.032194   -0.268960
      4          1           0       -5.043416    1.495116   -0.196444
      5          1           0       -5.189749    0.457935    1.224927
      6          6           0       -2.558622    0.210462    0.218005
      7          1           0       -3.843409   -0.360435   -1.419175
      8          1           0       -3.988612   -1.390256   -0.008590
      9          6           0       -1.327873   -0.582948   -0.234893
     10          1           0       -2.596351    0.226364    1.315038
     11          1           0       -2.450925    1.256366   -0.096887
     12          6           0       -0.007127   -0.024740    0.306134
     13          1           0       -1.290347   -0.597968   -1.331518
     14          1           0       -1.436065   -1.629017    0.080167
     15          6           0        1.219346   -0.822455   -0.147365
     16          1           0       -0.042193   -0.006398    1.403286
     17          1           0        0.103847    1.017870   -0.016842
     18          6           0        2.551293   -0.293819    0.397910
     19          1           0        1.267776   -0.838673   -1.242104
     20          1           0        1.112654   -1.865184    0.181482
     21          6           0        3.738136   -1.195149    0.005437
     22          1           0        2.509271   -0.243188    1.491073
     23         16           0        2.941319    1.396138   -0.186261
     24          1           0        3.558755   -2.206909    0.381743
     25          1           0        4.676581   -0.833366    0.429339
     26          1           0        3.846829   -1.251061   -1.080570
 ---------------------------------------------------------------------

 SCF Done:  E(UHF) =  -712.236712381     A.U. after    2 cycles

 The electronic state is 2-A.
 Alpha  occ. eigenvalues --  -75.69501 -13.12095 -13.09257 -13.03434 -11.44518
 Alpha  occ. eigenvalues --  -11.42861 -11.41762 -11.40278 -11.38542 -11.37326
 Alpha  occ. eigenvalues --  -11.35989 -11.34112  -8.03091  -1.31061  -1.23405
 Alpha  occ. eigenvalues --   -1.13647  -1.04762  -1.02721  -0.94121  -0.85767
 Alpha  occ. eigenvalues --   -0.81986  -0.80702  -0.66840  -0.63667  -0.60793
 Alpha  occ. eigenvalues --   -0.59242  -0.58292  -0.57147  -0.55385  -0.53368
 Alpha  occ. eigenvalues --   -0.50737  -0.48967  -0.48465  -0.46576  -0.45952
 Alpha  occ. eigenvalues --   -0.45021  -0.44394  -0.38285  -0.37531  -0.28739
 Alpha  occ. eigenvalues --   -0.24048
 Alpha virt. eigenvalues --    0.03937   0.04387   0.04714   0.05301   0.05383
 Alpha virt. eigenvalues --    0.05801   0.06100   0.06537   0.06704   0.07130
 Alpha virt. eigenvalues --    0.07424   0.07728   0.08861   0.09438   0.09687

  Beta  occ. eigenvalues --  -75.68515 -13.11482 -13.04944 -13.01199 -11.44587
  Beta  occ. eigenvalues --  -11.42855 -11.41771 -11.40260 -11.38476 -11.37315
  Beta  occ. eigenvalues --  -11.35986 -11.34110  -8.01988  -1.30384  -1.22752
  Beta  occ. eigenvalues --   -1.12944  -1.03111  -0.98438  -0.93568  -0.85379
  Beta  occ. eigenvalues --   -0.81973  -0.79422  -0.66691  -0.63447  -0.60717
  Beta  occ. eigenvalues --   -0.58616  -0.58103  -0.56992  -0.55283  -0.53222
  Beta  occ. eigenvalues --   -0.50676  -0.48683  -0.48311  -0.46487  -0.45920
  Beta  occ. eigenvalues --   -0.45004  -0.44376  -0.38015  -0.36922  -0.22503
  Beta virt. eigenvalues --    0.02946   0.04280   0.04729   0.04862   0.05393
  Beta virt. eigenvalues --    0.05799   0.06064   0.06311   0.06635   0.06933
  Beta virt. eigenvalues --    0.07191   0.07726   0.07776   0.08901   0.09504

 Mulliken charges and spin densities:
               1          2
     1  C   -4.752774   0.000274
     2  C   -3.587739   0.002760
     3  H    1.087068   0.000113
     4  H    1.355973  -0.000045
     5  H    1.342775  -0.000122
     6  C   -2.376961  -0.050255
     7  H    1.491669   0.000039
     8  H    1.492987   0.000034
     9  C   -2.425221   0.039393
    10  H    1.610525  -0.003033
    11  H    1.573850  -0.004802
    12  C   -2.403255  -0.000600
    13  H    1.634899  -0.000949
    14  H    1.571936   0.001431
    15  C   -2.818527   0.004207
    16  H    1.555923   0.003447
    17  H    1.604890  -0.003074
    18  C   -2.209594  -0.326574
    19  H    1.525994  -0.004831
    20  H    1.590375   0.002753
    21  C   -4.664905   0.150656
    22  H    1.684703  -0.010884
    23  S    0.291921   1.193211
    24  H    1.280364   0.010403
    25  H    1.167872  -0.008772
    26  H    1.375252   0.005221
 Sum of Mulliken charges =  -0.00000   1.00000

 Dipole moment (field-independent basis, Debye):
    X=             -0.1287    Y=             -0.3396    Z=              0.1047  Tot=              0.3780
                          Isotropic Fermi Contact Couplings
        Atom                 a.u.       MegaHertz       Gauss      10(-4) cm-1
     1  C(13)             -0.00000      -0.00177      -0.00063      -0.00059
     2  C(13)             -0.00001      -0.00736      -0.00263      -0.00246
     3  H(1)              -0.00000      -0.00060      -0.00021      -0.00020
     4  H(1)               0.00000       0.00671       0.00239       0.00224
     5  H(1)               0.00000       0.00084       0.00030       0.00028
     6  C(13)              0.00008       0.08978       0.03203       0.02995
     7  H(1)               0.00000       0.00218       0.00078       0.00073
     8  H(1)               0.00000       0.00677       0.00242       0.00226

 Normal termination of Gaussian 16 at Tue Apr  8 23:23:32 2025.
