 Gaussian 16, Revision C.01,

 ----------------------------------------------------------------------
 #t hf aug-cc-pvdz symm=none int=(grid=ultrafine) guess=(read,tcheck) s
 table=(opt,rrhf)
 ----------------------------------------------------------------------
 -----
 title
 -----
 Symbolic Z-matrix:
 Charge =  0 Multiplicity = 1

 SCF Done:  E(RHF) =  -1138.69296004     A.U. after   18 cycles
 Normal termination of Gaussian 16 at Tue Apr  8 23:26:09 2025.
 Gaussian 16:  ES64L-G16RevC.01  3-Jul-2019

 ----------------------------------------------------------------------
 #t hf aug-cc-pvdz iop(5/13=1,5/36=2,99/5=2) pseudo=read geom=check gue
 ss=(read,tcheck) scf=(maxcycle=1)
 ----------------------------------------------------------------------
 -----
 title
 -----
 Structure from the checkpoint file:  "BDE49_nonexpt_1248_mol1.chk"
 Charge =  0 Multiplicity = 1

                         Standard orientation:
 ---------------------------------------------------------------------
 Center     Atomic      Atomic             Coordinates (Angstroms)
 Number     Number       Type             X           Y           Z
 ---------------------------------------------------------------------
      1         17           0       -2.497456   -0.812924   -0.733005
      2         15           0       -1.368207   -0.012136    0.845085
      3          7           0       -1.186742    1.707416    0.216044
      4          7           0       -0.018007    1.972290   -0.125614
      5          6           0        0.339844   -0.346707    0.338544
      6          6           0        0.896026    0.872609   -0.077112
      7          6           0        2.235061    0.989673   -0.424325
      8          1           0        2.630473    1.949687   -0.732560
      9          6           0        3.030976   -0.153681   -0.361664
     10          1           0        4.078151   -0.095765   -0.634083
     11          6           0        2.491085   -1.373531    0.052320
     12          1           0        3.123998   -2.252529    0.091977
     13          6           0        1.146345   -1.476587    0.418896
     14          1           0        0.744453   -2.428241    0.746516
 ---------------------------------------------------------------------

 SCF Done:  E(RHF) =  -1140.67619545     A.U. after    2 cycles

 The electronic state is 1-A.
 Alpha  occ. eigenvalues -- -105.25466 -99.90033 -15.81984 -15.80328 -11.54231
 Alpha  occ. eigenvalues --  -11.46834 -11.46150 -11.44309 -11.43828 -11.39726
 Alpha  occ. eigenvalues --  -10.47301  -9.67159  -9.66523  -9.66449  -2.84145
 Alpha  occ. eigenvalues --   -1.64306  -1.57502  -1.51907  -1.46839  -1.33767
 Alpha  occ. eigenvalues --   -1.23446  -1.14058  -1.10857  -0.96830  -0.90224
 Alpha  occ. eigenvalues --   -0.81383  -0.77296  -0.66490  -0.64695  -0.63405
 Alpha  occ. eigenvalues --   -0.59020  -0.57923  -0.54345  -0.53735  -0.53293
 Alpha  occ. eigenvalues --   -0.49879  -0.49511  -0.47692  -0.37566  -0.36856
 Alpha  occ. eigenvalues --   -0.34896  -0.23090  -0.05621
 Alpha virt. eigenvalues --    0.02994   0.04648   0.04740   0.05749   0.06659
 Alpha virt. eigenvalues --    0.08156   0.08666   0.09418   0.09629   0.10739
 Alpha virt. eigenvalues --    0.12206   0.12603   0.12761   0.12894   0.13084

 Mulliken charges:
               1
     1  Cl  -1.339329
     2  P    4.419724
     3  N   -1.795089
     4  N   -1.628152
     5  C    0.626912
     6  C    1.276936
     7  C   -2.896242
     8  H    1.658821
     9  C   -0.603756
    10  H    1.447131
    11  C   -1.324352
    12  H    1.492979
    13  C   -2.963104
    14  H    1.627521
 Sum of Mulliken charges =   0.00000

 Dipole moment (field-independent basis, Debye):
    X=              1.9991    Y=             -2.6166    Z=              3.6401  Tot=              4.9085

 Test job not archived.
 1\1\GINC-SE073\SP\RHF\Aug-CC-pVDZ\C6H4Cl1N2P1\OHZDE\08-Apr-2025\0\\#t
 hf aug-cc-pvdz iop(5/13=1,5/36=2,99/5=2) pseudo=read geom=check guess=
 (read,tcheck) scf=(maxcycle=1)\\title\\0,1\Cl,0,-2.497456,-0.812924,-0
 .733005\P,0,-1.368207,-0.012136,0.845085\N,0,-1.186742,1.707416,0.2160
 44\N,0,-0.018007,1.97229,-0.125614\C,0,0.339844,-0.346707,0.338544\C,0
 ,0.896026,0.872609,-0.077112\C,0,2.235061,0.989673,-0.424325\H,0,2.630
 473,1.949687,-0.73256\C,0,3.030976,-0.153681,-0.361664\H,0,4.078151,-0
 .095765,-0.634083\C,0,2.491085,-1.373531,0.05232\H,0,3.123998,-2.25252

 Normal termination of Gaussian 16 at Tue Apr  8 23:26:16 2025.
