 Gaussian 16, Revision C.01,

 ----------------------------------------------------------------------
 #t hf aug-cc-pvdz symm=none int=(grid=ultrafine) guess=(read,tcheck) s
 table=(opt,rrhf)
 ----------------------------------------------------------------------
 -----
 title
 -----
 Symbolic Z-matrix:
 Charge =  0 Multiplicity = 1

 SCF Done:  E(RHF) =  -408.366900813     A.U. after   12 cycles
 Normal termination of Gaussian 16 at Tue Apr  8 23:57:30 2025.
 Gaussian 16:  ES64L-G16RevC.01  3-Jul-2019

 ----------------------------------------------------------------------
 #t hf aug-cc-pvdz iop(5/13=1,5/36=2,99/5=2) pseudo=read geom=check gue
 ss=(read,tcheck) scf=(maxcycle=1)
 ----------------------------------------------------------------------
 -----
 title
 -----
 Structure from the checkpoint file:  "BDE49_nonexpt_2034_mol1.chk"
 Charge =  0 Multiplicity = 1

                         Standard orientation:
 ---------------------------------------------------------------------
 Center     Atomic      Atomic             Coordinates (Angstroms)
 Number     Number       Type             X           Y           Z
 ---------------------------------------------------------------------
      1         14           0       -1.789588   -0.074796   -0.000007
      2          6           0       -0.022265    0.585869   -0.000024
      3          6           0        1.070351   -0.499398    0.000024
      4          1           0        0.098778    1.236194   -0.875464
      5          6           0        2.491081    0.075153    0.000012
      6          1           0        0.943023   -1.146779   -0.875254
      7          1           0        0.943011   -1.146714    0.875349
      8          1           0        2.663567    0.697989   -0.883126
      9          1           0        3.242484   -0.719660    0.000046
     10          1           0        0.098769    1.236262    0.875367
     11          1           0        2.663556    0.698054    0.883106
     12          1           0       -2.034877   -0.910927   -1.201472
     13          1           0       -2.764165    1.043754   -0.000090
     14          1           0       -2.034909   -0.910776    1.201557
 ---------------------------------------------------------------------

 SCF Done:  E(RHF) =  -409.167831814     A.U. after    2 cycles

 The electronic state is 1-A.
 Alpha  occ. eigenvalues --  -76.20467 -11.41216 -11.37262 -11.34293  -5.53997
 Alpha  occ. eigenvalues --   -2.17996  -2.16339  -2.16135  -1.20558  -0.99713
 Alpha  occ. eigenvalues --   -0.84875  -0.74316  -0.63644  -0.57466  -0.54107
 Alpha  occ. eigenvalues --   -0.52705  -0.47494  -0.46707  -0.45662  -0.44533
 Alpha  occ. eigenvalues --   -0.38118
 Alpha virt. eigenvalues --    0.03951   0.04894   0.05550   0.05800   0.06184
 Alpha virt. eigenvalues --    0.06552   0.06689   0.06978   0.08367   0.09605
 Alpha virt. eigenvalues --    0.10044   0.10182   0.10942   0.12832   0.14827

 Mulliken charges:
               1
     1  Si   5.942782
     2  C   -3.860518
     3  C   -2.736736
     4  H    1.476238
     5  C   -3.725391
     6  H    1.476226
     7  H    1.476222
     8  H    1.250178
     9  H    1.148208
    10  H    1.476239
    11  H    1.250178
    12  H   -1.739169
    13  H   -1.695277
    14  H   -1.739180
 Sum of Mulliken charges =  -0.00000

 Dipole moment (field-independent basis, Debye):
    X=              0.9701    Y=              0.2546    Z=             -0.0000  Tot=              1.0030

 Test job not archived.
 1\1\GINC-SE457\SP\RHF\Aug-CC-pVDZ\C3H10Si1\OHZDE\08-Apr-2025\0\\#t hf
 aug-cc-pvdz iop(5/13=1,5/36=2,99/5=2) pseudo=read geom=check guess=(re
 ad,tcheck) scf=(maxcycle=1)\\title\\0,1\Si,0,-1.789588,-0.074796,-0.00
 0007\C,0,-0.022265,0.585869,-0.000024\C,0,1.070351,-0.499398,0.000024\
 H,0,0.098778,1.236194,-0.875464\C,0,2.491081,0.075153,0.000012\H,0,0.9
 43023,-1.146779,-0.875254\H,0,0.943011,-1.146714,0.875349\H,0,2.663567
 ,0.697989,-0.883126\H,0,3.242484,-0.71966,0.000046\H,0,0.098769,1.2362
 62,0.875367\H,0,2.663556,0.698054,0.883106\H,0,-2.034877,-0.910927,-1.

 Normal termination of Gaussian 16 at Tue Apr  8 23:57:34 2025.
