 Gaussian 16, Revision C.01,

 ----------------------------------------------------------------------
 #t hf aug-cc-pvdz symm=none int=(grid=ultrafine) guess=(read,tcheck) s
 table=(opt,rrhf)
 ----------------------------------------------------------------------
 -----
 title
 -----
 Symbolic Z-matrix:
 Charge =  0 Multiplicity = 1

 SCF Done:  E(RHF) =  -572.338919311     A.U. after   15 cycles
 Normal termination of Gaussian 16 at Tue Apr  8 23:29:29 2025.
 Gaussian 16:  ES64L-G16RevC.01  3-Jul-2019

 ----------------------------------------------------------------------
 #t hf aug-cc-pvdz iop(5/13=1,5/36=2,99/5=2) pseudo=read geom=check gue
 ss=(read,tcheck) scf=(maxcycle=1)
 ----------------------------------------------------------------------
 -----
 title
 -----
 Structure from the checkpoint file:  "BDE49_nonexpt_1318_mol1.chk"
 Charge =  0 Multiplicity = 1

                         Standard orientation:
 ---------------------------------------------------------------------
 Center     Atomic      Atomic             Coordinates (Angstroms)
 Number     Number       Type             X           Y           Z
 ---------------------------------------------------------------------
      1          6           0       -1.020396   -0.326188   -0.016484
      2         15           0        0.700871    0.136360   -0.617040
      3          6           0        1.661550   -1.186921    0.244463
      4          1           0        1.553053   -1.140122    1.330516
      5          1           0        2.716879   -1.102364   -0.022568
      6          1           0        1.288482   -2.152418   -0.098875
      7          8           0       -1.280707   -1.476586    0.259762
      8          6           0       -2.080358    0.761616    0.000468
      9          1           0       -2.034416    1.371698   -0.905815
     10          1           0       -1.913837    1.427412    0.853409
     11          1           0       -3.065153    0.302856    0.094891
     12          6           0        1.061623    1.625050    0.440159
     13          1           0        0.454885    2.471220    0.111971
     14          1           0        2.109295    1.900151    0.297599
     15          1           0        0.888891    1.447508    1.504742
 ---------------------------------------------------------------------

 SCF Done:  E(RHF) =  -573.635201860     A.U. after    2 cycles

 The electronic state is 1-A.
 Alpha  occ. eigenvalues -- -105.16801 -21.05594 -11.47588 -11.39089 -11.38421
 Alpha  occ. eigenvalues --  -11.37153  -2.75789  -1.71061  -1.49002  -1.47750
 Alpha  occ. eigenvalues --   -1.44657  -1.10900  -1.03885  -0.97309  -0.76711
 Alpha  occ. eigenvalues --   -0.65707  -0.59899  -0.58377  -0.57876  -0.56697
 Alpha  occ. eigenvalues --   -0.56320  -0.55251  -0.51696  -0.42926  -0.38709
 Alpha  occ. eigenvalues --   -0.20795  -0.16676  -0.01375
 Alpha virt. eigenvalues --    0.04210   0.05162   0.05631   0.06064   0.06288
 Alpha virt. eigenvalues --    0.06683   0.07691   0.07959   0.08329   0.09971
 Alpha virt. eigenvalues --    0.10456   0.11224   0.12286   0.13607   0.14088

 Mulliken charges:
               1
     1  C    0.694921
     2  P    8.587492
     3  C   -6.324718
     4  H    0.970505
     5  H    1.153127
     6  H    1.178775
     7  O   -3.040978
     8  C   -4.239429
     9  H    1.402185
    10  H    1.244379
    11  H    1.151940
    12  C   -6.233661
    13  H    1.250105
    14  H    1.116497
    15  H    1.088861
 Sum of Mulliken charges =  -0.00000

 Dipole moment (field-independent basis, Debye):
    X=             -0.2081    Y=              0.4061    Z=             -0.7671  Tot=              0.8926

 Test job not archived.
 1\1\GINC-SE165\SP\RHF\Aug-CC-pVDZ\C4H9O1P1\OHZDE\08-Apr-2025\0\\#t hf
 aug-cc-pvdz iop(5/13=1,5/36=2,99/5=2) pseudo=read geom=check guess=(re
 ad,tcheck) scf=(maxcycle=1)\\title\\0,1\C,0,-1.020396,-0.326188,-0.016
 484\P,0,0.700871,0.13636,-0.61704\C,0,1.66155,-1.186921,0.244463\H,0,1
 .553053,-1.140122,1.330516\H,0,2.716879,-1.102365,-0.022568\H,0,1.2884
 82,-2.152418,-0.098875\O,0,-1.280707,-1.476586,0.259762\C,0,-2.080358,
 0.761616,0.000468\H,0,-2.034416,1.371698,-0.905815\H,0,-1.913837,1.427
 412,0.853409\H,0,-3.065153,0.302857,0.094891\C,0,1.061623,1.62505,0.44

 Normal termination of Gaussian 16 at Tue Apr  8 23:29:34 2025.
