 Gaussian 16, Revision C.01,

 ----------------------------------------------------------------------
 #t hf aug-cc-pvdz symm=none int=(grid=ultrafine) guess=(read,tcheck) s
 table=(opt,rrhf)
 ----------------------------------------------------------------------
 -----
 title
 -----
 Symbolic Z-matrix:
 Charge =  0 Multiplicity = 1

 SCF Done:  E(RHF) =  -471.440383159     A.U. after   11 cycles
 Normal termination of Gaussian 16 at Wed Apr  9 00:46:54 2025.
 Gaussian 16:  ES64L-G16RevC.01  3-Jul-2019

 ----------------------------------------------------------------------
 #t hf aug-cc-pvdz iop(5/13=1,5/36=2,99/5=2) pseudo=read geom=check gue
 ss=(read,tcheck) scf=(maxcycle=1)
 ----------------------------------------------------------------------
 -----
 title
 -----
 Structure from the checkpoint file:  "BDE49_nonexpt_807_mol1.chk"
 Charge =  0 Multiplicity = 1

                         Standard orientation:
 ---------------------------------------------------------------------
 Center     Atomic      Atomic             Coordinates (Angstroms)
 Number     Number       Type             X           Y           Z
 ---------------------------------------------------------------------
      1          5           0        2.254839    1.321949   -0.000124
      2          6           0       -0.381293   -0.675870    0.000057
      3          6           0       -1.214499    0.082292   -1.086827
      4          6           0       -1.214494    0.082468    1.086821
      5          6           0       -2.269842    0.417705   -0.000027
      6          1           0       -0.706985    0.982822    1.445858
      7          1           0       -1.542928   -0.495179    1.953084
      8          1           0       -3.090601   -0.303925    0.000033
      9          1           0       -2.691989    1.425046   -0.000108
     10          1           0       -1.542937   -0.495496   -1.952994
     11          1           0       -0.706992    0.982588   -1.446011
     12         14           0        1.501691   -0.549047    0.000041
     13          1           0       -0.666476   -1.733521    0.000143
     14          1           0        2.052223   -1.254057   -1.194586
     15          1           0        2.052228   -1.253849    1.194790
     16          1           0        3.438636    1.471149   -0.000121
     17          1           0        1.588727    2.311763   -0.000191
 ---------------------------------------------------------------------

 SCF Done:  E(RHF) =  -472.528259984     A.U. after    2 cycles

 The electronic state is 1-A.
 Alpha  occ. eigenvalues --  -76.18805 -11.48172 -11.38931 -11.37508 -11.33560
 Alpha  occ. eigenvalues --   -7.61743  -5.52592  -2.17025  -2.15137  -2.14732
 Alpha  occ. eigenvalues --   -1.31264  -0.95086  -0.95049  -0.86065  -0.78720
 Alpha  occ. eigenvalues --   -0.70439  -0.65928  -0.60342  -0.53932  -0.51925
 Alpha  occ. eigenvalues --   -0.49207  -0.47670  -0.44532  -0.43691  -0.40237
 Alpha  occ. eigenvalues --   -0.36653  -0.34157
 Alpha virt. eigenvalues --    0.02856   0.03712   0.03753   0.04154   0.05904
 Alpha virt. eigenvalues --    0.05951   0.06112   0.06360   0.07619   0.07948
 Alpha virt. eigenvalues --    0.08369   0.09302   0.09746   0.09893   0.10275

 Mulliken charges:
               1
     1  B    2.495363
     2  C   -1.546077
     3  C   -2.822696
     4  C   -2.822692
     5  C   -2.969774
     6  H    1.591378
     7  H    1.189464
     8  H    1.373048
     9  H    1.236952
    10  H    1.189464
    11  H    1.591372
    12  Si   5.793410
    13  H    1.324258
    14  H   -1.820879
    15  H   -1.820868
    16  H   -2.159424
    17  H   -1.822297
 Sum of Mulliken charges =   0.00000

 Dipole moment (field-independent basis, Debye):
    X=             -1.1277    Y=              0.4246    Z=             -0.0001  Tot=              1.2050

 Test job not archived.
 1\1\GINC-SE128\SP\RHF\Aug-CC-pVDZ\C4H11B1Si1\OHZDE\09-Apr-2025\0\\#t h
 f aug-cc-pvdz iop(5/13=1,5/36=2,99/5=2) pseudo=read geom=check guess=(
 read,tcheck) scf=(maxcycle=1)\\title\\0,1\B,0,2.254839,1.321949,-0.000
 124\C,0,-0.381293,-0.67587,0.000057\C,0,-1.214499,0.082292,-1.086827\C
 ,0,-1.214494,0.082468,1.086821\C,0,-2.269842,0.417705,-0.000027\H,0,-0
 .706985,0.982822,1.445858\H,0,-1.542928,-0.495179,1.953084\H,0,-3.0906
 01,-0.303925,0.000033\H,0,-2.691989,1.425046,-0.000108\H,0,-1.542937,-
 0.495496,-1.952994\H,0,-0.706992,0.982588,-1.446011\Si,0,1.501691,-0.5

 Normal termination of Gaussian 16 at Wed Apr  9 00:47:01 2025.
