 Gaussian 16, Revision C.01,

 ----------------------------------------------------------------------
 #t hf aug-cc-pvdz symm=none int=(grid=ultrafine) guess=(read,tcheck) s
 table=(opt,rrhf)
 ----------------------------------------------------------------------
 -----
 title
 -----
 Symbolic Z-matrix:
 Charge =  0 Multiplicity = 1

 SCF Done:  E(RHF) =  -484.074882294     A.U. after   12 cycles
 Normal termination of Gaussian 16 at Tue Apr  8 23:49:49 2025.
 Gaussian 16:  ES64L-G16RevC.01  3-Jul-2019

 ----------------------------------------------------------------------
 #t hf aug-cc-pvdz iop(5/13=1,5/36=2,99/5=2) pseudo=read geom=check gue
 ss=(read,tcheck) scf=(maxcycle=1)
 ----------------------------------------------------------------------
 -----
 title
 -----
 Structure from the checkpoint file:  "BDE49_nonexpt_1832_mol1.chk"
 Charge =  0 Multiplicity = 1

                         Standard orientation:
 ---------------------------------------------------------------------
 Center     Atomic      Atomic             Coordinates (Angstroms)
 Number     Number       Type             X           Y           Z
 ---------------------------------------------------------------------
      1          6           0       -1.070099   -0.804433    0.601973
      2         14           0        0.644352   -0.953854   -0.204047
      3          6           0        1.504892    0.698941   -0.310085
      4          1           0        0.465769   -1.527667   -1.562835
      5          1           0        1.493091   -1.874060    0.594361
      6          6           0       -2.036212   -0.010995   -0.227306
      7          6           0       -2.474421    1.216139    0.048670
      8          6           0        2.691423    0.953992    0.247527
      9          1           0       -2.376762   -0.491546   -1.143285
     10          1           0       -2.169171    1.742175    0.948350
     11          1           0       -3.157919    1.735080   -0.613507
     12          1           0        1.010927    1.504383   -0.852654
     13          1           0        3.239248    0.197995    0.803787
     14          1           0        3.170802    1.926866    0.172963
     15          1           0       -0.946630   -0.356003    1.593208
     16          1           0       -1.443787   -1.825124    0.751597
 ---------------------------------------------------------------------

 SCF Done:  E(RHF) =  -485.211333281     A.U. after    2 cycles

 The electronic state is 1-A.
 Alpha  occ. eigenvalues --  -76.20570 -11.42198 -11.41264 -11.37960 -11.36200
 Alpha  occ. eigenvalues --  -11.35687  -5.54298  -2.18931  -2.17477  -2.16648
 Alpha  occ. eigenvalues --   -1.20099  -1.13653  -0.99222  -0.82808  -0.78891
 Alpha  occ. eigenvalues --   -0.71920  -0.63922  -0.61717  -0.57693  -0.54303
 Alpha  occ. eigenvalues --   -0.52545  -0.48733  -0.46009  -0.44213  -0.41213
 Alpha  occ. eigenvalues --   -0.37037  -0.31904
 Alpha virt. eigenvalues --    0.03723   0.04950   0.05541   0.05869   0.05978
 Alpha virt. eigenvalues --    0.06207   0.06455   0.06754   0.07612   0.08062
 Alpha virt. eigenvalues --    0.08724   0.09660   0.10426   0.11020   0.12871

 Mulliken charges:
               1
     1  C   -4.562052
     2  Si   6.087843
     3  C   -2.382289
     4  H   -2.142864
     5  H   -1.704833
     6  C   -0.449095
     7  C   -2.986693
     8  C   -2.815094
     9  H    1.444123
    10  H    1.436517
    11  H    1.379964
    12  H    1.240416
    13  H    1.409160
    14  H    1.357382
    15  H    1.400717
    16  H    1.286798
 Sum of Mulliken charges =  -0.00000

 Dipole moment (field-independent basis, Debye):
    X=              0.1800    Y=              0.4686    Z=              0.4457  Tot=              0.6713

 Test job not archived.
 1\1\GINC-SE457\SP\RHF\Aug-CC-pVDZ\C5H10Si1\OHZDE\08-Apr-2025\0\\#t hf
 aug-cc-pvdz iop(5/13=1,5/36=2,99/5=2) pseudo=read geom=check guess=(re
 ad,tcheck) scf=(maxcycle=1)\\title\\0,1\C,0,-1.070099,-0.804433,0.6019
 73\Si,0,0.644352,-0.953854,-0.204047\C,0,1.504892,0.698941,-0.310085\H
 ,0,0.465769,-1.527667,-1.562835\H,0,1.493091,-1.87406,0.594361\C,0,-2.
 036212,-0.010995,-0.227306\C,0,-2.474421,1.216139,0.04867\C,0,2.691423
 ,0.953992,0.247527\H,0,-2.376762,-0.491546,-1.143285\H,0,-2.169171,1.7
 42175,0.94835\H,0,-3.157919,1.73508,-0.613507\H,0,1.010927,1.504383,-0

 Normal termination of Gaussian 16 at Tue Apr  8 23:49:54 2025.
