 Gaussian 16, Revision C.01,

 ----------------------------------------------------------------------
 #t hf aug-cc-pvdz symm=none int=(grid=ultrafine) guess=(read,tcheck) s
 table=(opt,rrhf)
 ----------------------------------------------------------------------
 -----
 title
 -----
 Symbolic Z-matrix:
 Charge =  0 Multiplicity = 1

 SCF Done:  E(RHF) =  -721.183044483     A.U. after   16 cycles
 Normal termination of Gaussian 16 at Tue Apr  8 23:08:48 2025.
 Gaussian 16:  ES64L-G16RevC.01  3-Jul-2019

 ----------------------------------------------------------------------
 #t hf aug-cc-pvdz iop(5/13=1,5/36=2,99/5=2) pseudo=read geom=check gue
 ss=(read,tcheck) scf=(maxcycle=1)
 ----------------------------------------------------------------------
 -----
 title
 -----
 Structure from the checkpoint file:  "BDE49_expt_417_mol1.chk"
 Charge =  0 Multiplicity = 1

                         Standard orientation:
 ---------------------------------------------------------------------
 Center     Atomic      Atomic             Coordinates (Angstroms)
 Number     Number       Type             X           Y           Z
 ---------------------------------------------------------------------
      1          6           0       -2.882595   -0.252685   -0.044295
      2          6           0       -2.339438    0.995234   -0.339249
      3          6           0       -0.961815    1.186127   -0.286993
      4          6           0       -2.039653   -1.313000    0.288219
      5          6           0       -0.662893   -1.129862    0.325083
      6          6           0       -0.106487    0.125488    0.049053
      7          1           0       -3.955825   -0.401129   -0.081296
      8          1           0       -2.986278    1.818788   -0.619483
      9          1           0       -0.547773    2.151871   -0.553960
     10          1           0       -2.457055   -2.287335    0.515083
     11          1           0        0.000229   -1.950211    0.567540
     12          6           0        1.369564    0.321739    0.097958
     13          7           0        1.770359    1.551621    0.487723
     14          1           0        1.133994    2.191178    0.937748
     15          1           0        2.760604    1.730878    0.550384
     16         16           0        2.462469   -0.857102   -0.329296
 ---------------------------------------------------------------------

 SCF Done:  E(RHF) =  -722.943837548     A.U. after    2 cycles

 The electronic state is 1-A.
 Alpha  occ. eigenvalues --  -75.63351 -15.80264 -13.13069 -13.00174 -12.95291
 Alpha  occ. eigenvalues --  -11.53046 -11.50729 -11.44918 -11.44547 -11.42612
 Alpha  occ. eigenvalues --  -11.42003 -11.37869  -7.97490  -1.44812  -1.33215
 Alpha  occ. eigenvalues --   -1.14555  -1.10781  -1.07531  -0.91405  -0.87844
 Alpha  occ. eigenvalues --   -0.80738  -0.74475  -0.70607  -0.66390  -0.60801
 Alpha  occ. eigenvalues --   -0.59565  -0.57980  -0.53505  -0.50010  -0.48482
 Alpha  occ. eigenvalues --   -0.46041  -0.42544  -0.34648  -0.34382  -0.24999
 Alpha  occ. eigenvalues --   -0.21105
 Alpha virt. eigenvalues --    0.02578   0.04331   0.04834   0.05229   0.06086
 Alpha virt. eigenvalues --    0.06684   0.07113   0.08138   0.08921   0.10541
 Alpha virt. eigenvalues --    0.10855   0.11870   0.12473   0.12808   0.13700

 Mulliken charges:
               1
     1  C   -2.909777
     2  C   -1.631382
     3  C   -2.265569
     4  C   -1.088251
     5  C   -2.917077
     6  C    5.392054
     7  H    1.527619
     8  H    1.491533
     9  H    1.737781
    10  H    1.516162
    11  H    1.932489
    12  C   -1.367484
    13  N   -3.598511
    14  H    0.778699
    15  H    0.769345
    16  S    0.632368
 Sum of Mulliken charges =   0.00000

 Dipole moment (field-independent basis, Debye):
    X=             -1.1096    Y=              1.1134    Z=              0.5762  Tot=              1.6742

 Test job not archived.
 1\1\GINC-SE102\SP\RHF\Aug-CC-pVDZ\C7H7N1S1\OHZDE\08-Apr-2025\0\\#t hf
 aug-cc-pvdz iop(5/13=1,5/36=2,99/5=2) pseudo=read geom=check guess=(re
 ad,tcheck) scf=(maxcycle=1)\\title\\0,1\C,0,-2.882595,-0.252685,-0.044
 295\C,0,-2.339438,0.995234,-0.339249\C,0,-0.961815,1.186127,-0.286993\
 C,0,-2.039653,-1.313,0.288219\C,0,-0.662893,-1.129862,0.325083\C,0,-0.
 106487,0.125488,0.049053\H,0,-3.955825,-0.401128,-0.081296\H,0,-2.9862
 78,1.818788,-0.619483\H,0,-0.547773,2.151871,-0.55396\H,0,-2.457055,-2
 .287335,0.515083\H,0,0.000229,-1.950211,0.56754\C,0,1.369564,0.321739,

 Normal termination of Gaussian 16 at Tue Apr  8 23:08:56 2025.
