 Gaussian 16, Revision C.01,

 ----------------------------------------------------------------------
 #t hf aug-cc-pvdz symm=none int=(grid=ultrafine) guess=(read,tcheck) s
 table=opt
 ----------------------------------------------------------------------
 -----
 title
 -----
 Symbolic Z-matrix:
 Charge =  0 Multiplicity = 2

 SCF Done:  E(UHF) =  -672.388505592     A.U. after   21 cycles
 Normal termination of Gaussian 16 at Tue Apr  8 23:51:22 2025.
 Gaussian 16:  ES64L-G16RevC.01  3-Jul-2019

 ----------------------------------------------------------------------
 #t hf aug-cc-pvdz iop(5/13=1,5/36=2,99/5=2) pseudo=read geom=check gue
 ss=(read,tcheck) scf=(maxcycle=1)
 ----------------------------------------------------------------------
 -----
 title
 -----
 Structure from the checkpoint file:  "BDE49_nonexpt_187_mol2.chk"
 Charge =  0 Multiplicity = 2

                         Standard orientation:
 ---------------------------------------------------------------------
 Center     Atomic      Atomic             Coordinates (Angstroms)
 Number     Number       Type             X           Y           Z
 ---------------------------------------------------------------------
      1         17           0       -1.918228   -0.046392   -0.124567
      2          5           0       -0.401736   -0.065065    0.671584
      3          6           0        1.034864    0.095406    0.097215
      4          8           0        1.482511    1.205478   -0.096420
      5          8           0        1.740299   -1.040176   -0.083302
      6          1           0        2.626889   -0.780871   -0.385796
 ---------------------------------------------------------------------

 SCF Done:  E(UHF) =  -673.468084154     A.U. after    2 cycles

 The electronic state is 2-A.
 Alpha  occ. eigenvalues --  -99.93149 -21.14140 -21.07778 -11.49901 -10.50398
 Alpha  occ. eigenvalues --   -9.70328  -9.69897  -9.69647  -7.71735  -1.84205
 Alpha  occ. eigenvalues --   -1.67200  -1.38221  -0.96383  -0.76260  -0.64948
 Alpha  occ. eigenvalues --   -0.62151  -0.60763  -0.57352  -0.55086  -0.47676
 Alpha  occ. eigenvalues --   -0.37455  -0.35219  -0.30077
 Alpha virt. eigenvalues --    0.03770   0.03989   0.04312   0.04502   0.06243
 Alpha virt. eigenvalues --    0.07792   0.12006   0.13799   0.14176   0.15038
 Alpha virt. eigenvalues --    0.15433   0.16501   0.16863   0.18782   0.19523

  Beta  occ. eigenvalues --  -99.93085 -21.14168 -21.07306 -11.49942 -10.50325
  Beta  occ. eigenvalues --   -9.70312  -9.69694  -9.69546  -7.69765  -1.84027
  Beta  occ. eigenvalues --   -1.66490  -1.37355  -0.93810  -0.74691  -0.64147
  Beta  occ. eigenvalues --   -0.61941  -0.57952  -0.57373  -0.54360  -0.46663
  Beta  occ. eigenvalues --   -0.34820  -0.31607
  Beta virt. eigenvalues --    0.02383   0.04016   0.04391   0.04650   0.05743
  Beta virt. eigenvalues --    0.08339   0.09071   0.12552   0.14140   0.14606
  Beta virt. eigenvalues --    0.15450   0.15899   0.16612   0.17021   0.19135

 Mulliken charges and spin densities:
               1          2
     1  Cl  -0.946896   0.063148
     2  B    1.661235   0.914450
     3  C    3.319274  -0.152063
     4  O   -2.441671   0.156991
     5  O   -2.495321   0.018181
     6  H    0.903379  -0.000709
 Sum of Mulliken charges =  -0.00000   1.00000

 Dipole moment (field-independent basis, Debye):
    X=              0.6615    Y=             -0.7903    Z=             -0.3814  Tot=              1.0990
                          Isotropic Fermi Contact Couplings
        Atom                 a.u.       MegaHertz       Gauss      10(-4) cm-1
     1  Cl(35)             0.09637      42.25280      15.07685      14.09402
     2  B(11)              0.22848     327.72023     116.93873     109.31570
     3  C(13)              0.01515      17.03155       6.07728       5.68111
     4  O(17)              0.02592     -15.71232      -5.60654      -5.24106
     5  O(17)             -0.00663       4.02005       1.43445       1.34095
     6  H(1)              -0.00003      -0.14485      -0.05169      -0.04832
 --------------------------------------------------------
       Center         ----  Spin Dipole Couplings  ----

 1\1\GINC-SE253\SP\UHF\Aug-CC-pVDZ\C1H1B1Cl1O2(2)\OHZDE\08-Apr-2025\0\\
 #t hf aug-cc-pvdz iop(5/13=1,5/36=2,99/5=2) pseudo=read geom=check gue
 ss=(read,tcheck) scf=(maxcycle=1)\\title\\0,2\Cl,0,-1.918228,-0.046392
 ,-0.124567\B,0,-0.401736,-0.065065,0.671584\C,0,1.034864,0.095406,0.09
 7215\O,0,1.482511,1.205478,-0.09642\O,0,1.740299,-1.040176,-0.083302\H
 ,0,2.626889,-0.780871,-0.385796\\Version=ES64L-G16RevC.01\State=2-A\HF
 =-673.4680842\S2=0.765815\S2-1=0.\S2A=0.750123\RMSD=4.695e-02\Dipole=0
 .2602616,-0.3109417,-0.1500521\Quadrupole=2.4649806,-1.5862404,-0.8787

 Normal termination of Gaussian 16 at Tue Apr  8 23:51:24 2025.
