 Gaussian 16, Revision C.01,

 ----------------------------------------------------------------------
 #t hf aug-cc-pvdz symm=none int=(grid=ultrafine) guess=(read,tcheck) s
 table=(opt,rrhf)
 ----------------------------------------------------------------------
 -----
 title
 -----
 Symbolic Z-matrix:
 Charge =  0 Multiplicity = 1

 SCF Done:  E(RHF) =  -763.853858875     A.U. after   16 cycles
 Normal termination of Gaussian 16 at Tue Apr  8 23:32:25 2025.
 Gaussian 16:  ES64L-G16RevC.01  3-Jul-2019

 ----------------------------------------------------------------------
 #t hf aug-cc-pvdz iop(5/13=1,5/36=2,99/5=2) pseudo=read geom=check gue
 ss=(read,tcheck) scf=(maxcycle=1)
 ----------------------------------------------------------------------
 -----
 title
 -----
 Structure from the checkpoint file:  "BDE49_nonexpt_1364_mol1.chk"
 Charge =  0 Multiplicity = 1

                         Standard orientation:
 ---------------------------------------------------------------------
 Center     Atomic      Atomic             Coordinates (Angstroms)
 Number     Number       Type             X           Y           Z
 ---------------------------------------------------------------------
      1          9           0       -2.087413   -0.972864    1.141380
      2         15           0       -1.632946   -0.704223   -0.428711
      3          6           0       -1.817601    1.156028   -0.448046
      4          7           0       -0.597775    1.728374    0.112784
      5          1           0       -0.431257    2.715180   -0.017753
      6          6           0        0.153269   -0.470723   -0.230495
      7          6           0        1.156246   -1.439650   -0.302655
      8          1           0        0.895410   -2.469436   -0.523124
      9          6           0        2.800859    0.251122    0.189036
     10          1           0        3.836937    0.529816    0.348863
     11          6           0        0.482477    0.873031    0.053442
     12          6           0        2.483791   -1.083056   -0.093751
     13          1           0        3.267901   -1.828101   -0.150082
     14          6           0        1.821300    1.233403    0.264870
     15          1           0        2.087540    2.261154    0.486935
     16          1           0       -2.704240    1.436830    0.125069
     17          1           0       -1.969006    1.454134   -1.495569
 ---------------------------------------------------------------------

 SCF Done:  E(RHF) =  -765.918007693     A.U. after    2 cycles

 The electronic state is 1-A.
 Alpha  occ. eigenvalues -- -105.22580 -29.24355 -15.75779 -11.52268 -11.46156
 Alpha  occ. eigenvalues --  -11.43954 -11.41602 -11.40875 -11.40571 -11.36874
 Alpha  occ. eigenvalues --   -2.81606  -1.58037  -1.52837  -1.52303  -1.42748
 Alpha  occ. eigenvalues --   -1.28565  -1.10135  -1.06808  -0.97808  -0.88277
 Alpha  occ. eigenvalues --   -0.82213  -0.77878  -0.70719  -0.65935  -0.63759
 Alpha  occ. eigenvalues --   -0.63369  -0.58584  -0.54860  -0.53039  -0.50787
 Alpha  occ. eigenvalues --   -0.46392  -0.45483  -0.42090  -0.36050  -0.30762
 Alpha  occ. eigenvalues --   -0.30047  -0.26903  -0.22552  -0.18588  -0.00268
 Alpha virt. eigenvalues --    0.03675   0.04817   0.05087   0.05904   0.06302
 Alpha virt. eigenvalues --    0.06871   0.07402   0.09089   0.10518   0.10970
 Alpha virt. eigenvalues --    0.11338   0.12328   0.12588   0.13223   0.13730

 Mulliken charges:
               1
     1  F   -0.353336
     2  P    4.448905
     3  C   -4.929362
     4  N   -3.696573
     5  H    0.654707
     6  C    2.055332
     7  C   -2.799914
     8  H    1.463240
     9  C   -1.215933
    10  H    1.240739
    11  C    0.640959
    12  C   -1.229453
    13  H    1.572493
    14  C   -2.019597
    15  H    1.679806
    16  H    1.274249
    17  H    1.213740
 Sum of Mulliken charges =  -0.00000

 Dipole moment (field-independent basis, Debye):
    X=             -0.9591    Y=              0.7205    Z=              4.5640  Tot=              4.7191

 Test job not archived.
 1\1\GINC-SE100\SP\RHF\Aug-CC-pVDZ\C7H7F1N1P1\OHZDE\08-Apr-2025\0\\#t h
 f aug-cc-pvdz iop(5/13=1,5/36=2,99/5=2) pseudo=read geom=check guess=(
 read,tcheck) scf=(maxcycle=1)\\title\\0,1\F,0,-2.087413,-0.972864,1.14
 138\P,0,-1.632946,-0.704223,-0.428711\C,0,-1.817601,1.156028,-0.448046
 \N,0,-0.597775,1.728374,0.112784\H,0,-0.431257,2.71518,-0.017753\C,0,0
 .153269,-0.470723,-0.230495\C,0,1.156246,-1.43965,-0.302655\H,0,0.8954
 1,-2.469436,-0.523124\C,0,2.800859,0.251122,0.189036\H,0,3.836937,0.52
 9816,0.348863\C,0,0.482477,0.873031,0.053442\C,0,2.483791,-1.083056,-0

 Normal termination of Gaussian 16 at Tue Apr  8 23:32:34 2025.
