 Gaussian 16, Revision C.01,

 ----------------------------------------------------------------------
 #t hf aug-cc-pvdz symm=none int=(grid=ultrafine) guess=(read,tcheck) s
 table=opt
 ----------------------------------------------------------------------
 -----
 title
 -----
 Symbolic Z-matrix:
 Charge =  0 Multiplicity = 2

 SCF Done:  E(UHF) =  -585.731482082     A.U. after   18 cycles
 Normal termination of Gaussian 16 at Tue Apr  8 23:18:50 2025.
 Gaussian 16:  ES64L-G16RevC.01  3-Jul-2019

 ----------------------------------------------------------------------
 #t hf aug-cc-pvdz iop(5/13=1,5/36=2,99/5=2) pseudo=read geom=check gue
 ss=(read,tcheck) scf=(maxcycle=1)
 ----------------------------------------------------------------------
 -----
 title
 -----
 Structure from the checkpoint file:  "BDE49_nonexpt_1059_mol2.chk"
 Charge =  0 Multiplicity = 2

                         Standard orientation:
 ---------------------------------------------------------------------
 Center     Atomic      Atomic             Coordinates (Angstroms)
 Number     Number       Type             X           Y           Z
 ---------------------------------------------------------------------
      1          8           0       -0.915122    1.217626   -0.000010
      2          6           0       -0.431215    0.113005    0.000042
      3         16           0        1.308485   -0.083070   -0.000012
      4          8           0       -1.120400   -1.035408    0.000004
      5          1           0       -2.064285   -0.806647   -0.000017
 ---------------------------------------------------------------------

 SCF Done:  E(UHF) =  -586.677416384     A.U. after    2 cycles

 The electronic state is 2-A.
 Alpha  occ. eigenvalues --  -75.75076 -21.15508 -21.07794 -13.18142 -13.09265
 Alpha  occ. eigenvalues --  -13.05779 -11.54574  -8.08946  -1.85530  -1.68503
 Alpha  occ. eigenvalues --   -1.18549  -0.82284  -0.63573  -0.62108  -0.59198
 Alpha  occ. eigenvalues --   -0.46347  -0.37066  -0.35397  -0.28811  -0.28431
 Alpha virt. eigenvalues --    0.03106   0.06598   0.09783   0.11456   0.11588
 Alpha virt. eigenvalues --    0.12998   0.13414   0.14749   0.17927   0.19483
 Alpha virt. eigenvalues --    0.19619   0.21300   0.21905   0.23358   0.28181

  Beta  occ. eigenvalues --  -75.74053 -21.15486 -21.07601 -13.17598 -13.05149
  Beta  occ. eigenvalues --  -13.03117 -11.54687  -8.07796  -1.85401  -1.68198
  Beta  occ. eigenvalues --   -1.10885  -0.80335  -0.63193  -0.60447  -0.59238
  Beta  occ. eigenvalues --   -0.45891  -0.36954  -0.30589  -0.26851
  Beta virt. eigenvalues --    0.02717   0.03310   0.06814   0.09946   0.11457
  Beta virt. eigenvalues --    0.12286   0.13413   0.14948   0.15656   0.18098
  Beta virt. eigenvalues --    0.19618   0.20080   0.22180   0.22210   0.24815

 Mulliken charges and spin densities:
               1          2
     1  O   -2.240019   0.015776
     2  C    2.582843  -0.065963
     3  S    1.154994   1.083287
     4  O   -2.405067  -0.030533
     5  H    0.907249  -0.002566
 Sum of Mulliken charges =   0.00000   1.00000

 Dipole moment (field-independent basis, Debye):
    X=              1.0195    Y=             -1.1018    Z=             -0.0002  Tot=              1.5012
                          Isotropic Fermi Contact Couplings
        Atom                 a.u.       MegaHertz       Gauss      10(-4) cm-1
     1  O(17)              0.02245     -13.60867      -4.85591      -4.53936
     2  C(13)             -0.01120     -12.59375      -4.49376      -4.20082
     3  S(33)              0.32717     112.37343      40.09763      37.48374
     4  O(17)              0.01016      -6.15641      -2.19676      -2.05356
     5  H(1)               0.00224      10.03021       3.57903       3.34572
 --------------------------------------------------------
       Center         ----  Spin Dipole Couplings  ----
                      3XX-RR        3YY-RR        3ZZ-RR

 Normal termination of Gaussian 16 at Tue Apr  8 23:18:52 2025.
