 Gaussian 16, Revision C.01,

 ----------------------------------------------------------------------
 #t hf aug-cc-pvdz symm=none int=(grid=ultrafine) guess=(read,tcheck) s
 table=(opt,rrhf)
 ----------------------------------------------------------------------
 -----
 title
 -----
 Symbolic Z-matrix:
 Charge =  0 Multiplicity = 1

 SCF Done:  E(RHF) =  -641.214361432     A.U. after   15 cycles
 Normal termination of Gaussian 16 at Wed Apr  9 00:54:22 2025.
 Gaussian 16:  ES64L-G16RevC.01  3-Jul-2019

 ----------------------------------------------------------------------
 #t hf aug-cc-pvdz iop(5/13=1,5/36=2,99/5=2) pseudo=read geom=check gue
 ss=(read,tcheck) scf=(maxcycle=1)
 ----------------------------------------------------------------------
 -----
 title
 -----
 Structure from the checkpoint file:  "BDE49_nonexpt_996_mol1.chk"
 Charge =  0 Multiplicity = 1

                         Standard orientation:
 ---------------------------------------------------------------------
 Center     Atomic      Atomic             Coordinates (Angstroms)
 Number     Number       Type             X           Y           Z
 ---------------------------------------------------------------------
      1          6           0       -1.851696    0.544723    0.000038
      2         16           0       -0.663019   -0.817395   -0.000080
      3          1           0       -1.742850    1.153091   -0.895635
      4          1           0       -1.742852    1.152936    0.895817
      5          1           0       -2.830758    0.058695   -0.000005
      6          7           0        0.896184    0.141549    0.000008
      7          8           0        0.826113    1.351527   -0.000091
      8          8           0        1.894093   -0.544725    0.000194
 ---------------------------------------------------------------------

 SCF Done:  E(RHF) =  -642.497670840     A.U. after    2 cycles

 The electronic state is 1-A.
 Alpha  occ. eigenvalues --  -75.76126 -21.11269 -21.11057 -16.01586 -13.19816
 Alpha  occ. eigenvalues --  -13.15886 -13.08090 -11.43031  -8.09992  -2.00945
 Alpha  occ. eigenvalues --   -1.71305  -1.25779  -1.04693  -0.85988  -0.71207
 Alpha  occ. eigenvalues --   -0.68369  -0.63017  -0.61970  -0.60145  -0.46029
 Alpha  occ. eigenvalues --   -0.33244  -0.33064  -0.32434  -0.28226
 Alpha virt. eigenvalues --    0.02083   0.05019   0.05601   0.06434   0.10052
 Alpha virt. eigenvalues --    0.11262   0.11414   0.14049   0.14579   0.15114
 Alpha virt. eigenvalues --    0.16783   0.16992   0.17499   0.19939   0.21747

 Mulliken charges:
               1
     1  C   -4.662992
     2  S    1.456537
     3  H    1.390563
     4  H    1.390539
     5  H    1.380108
     6  N    4.216877
     7  O   -2.544893
     8  O   -2.626739
 Sum of Mulliken charges =   0.00000

 Dipole moment (field-independent basis, Debye):
    X=             -2.9097    Y=             -1.2740    Z=             -0.0001  Tot=              3.1764

 Test job not archived.
 1\1\GINC-SE070\SP\RHF\Aug-CC-pVDZ\C1H3N1O2S1\OHZDE\09-Apr-2025\0\\#t h
 f aug-cc-pvdz iop(5/13=1,5/36=2,99/5=2) pseudo=read geom=check guess=(
 read,tcheck) scf=(maxcycle=1)\\title\\0,1\C,0,-1.851696,0.544724,0.000
 038\S,0,-0.663019,-0.817395,-0.00008\H,0,-1.74285,1.153092,-0.895635\H
 ,0,-1.742852,1.152937,0.895817\H,0,-2.830758,0.058696,-0.000005\N,0,0.
 896184,0.141549,0.000008\O,0,0.826114,1.351527,-0.000091\O,0,1.894093,
 -0.544726,0.000194\\Version=ES64L-G16RevC.01\State=1-A\HF=-642.4976708
 \RMSD=8.810e-02\Dipole=-1.1447732,-0.5012198,-0.000035\Quadrupole=0.68

 Normal termination of Gaussian 16 at Wed Apr  9 00:54:24 2025.
