 Gaussian 16, Revision C.01,

 ----------------------------------------------------------------------
 #t hf aug-cc-pvdz symm=none int=(grid=ultrafine) guess=(read,tcheck) s
 table=(opt,rrhf)
 ----------------------------------------------------------------------
 -----
 title
 -----
 Symbolic Z-matrix:
 Charge =  0 Multiplicity = 1

 SCF Done:  E(RHF) =  -390.967814527     A.U. after   13 cycles
 Normal termination of Gaussian 16 at Wed Apr  9 00:33:18 2025.
 Gaussian 16:  ES64L-G16RevC.01  3-Jul-2019

 ----------------------------------------------------------------------
 #t hf aug-cc-pvdz iop(5/13=1,5/36=2,99/5=2) pseudo=read geom=check gue
 ss=(read,tcheck) scf=(maxcycle=1)
 ----------------------------------------------------------------------
 -----
 title
 -----
 Structure from the checkpoint file:  "BDE49_nonexpt_410_mol1.chk"
 Charge =  0 Multiplicity = 1

                         Standard orientation:
 ---------------------------------------------------------------------
 Center     Atomic      Atomic             Coordinates (Angstroms)
 Number     Number       Type             X           Y           Z
 ---------------------------------------------------------------------
      1          9           0        1.227483    1.284298   -0.000016
      2          5           0        0.948325   -0.011407    0.000081
      3          6           0       -1.543052   -0.152127   -0.000002
      4          8           0       -2.680947    0.077025   -0.000010
      5          7           0       -0.384549   -0.490166    0.000030
      6          9           0        1.956529   -0.863769   -0.000042
 ---------------------------------------------------------------------

 SCF Done:  E(RHF) =  -392.430103950     A.U. after    2 cycles

 The electronic state is 1-A.
 Alpha  occ. eigenvalues --  -29.27676 -29.27339 -21.15781 -15.77085 -11.62598
 Alpha  occ. eigenvalues --   -7.75784  -1.80435  -1.46014  -1.14534  -0.81929
 Alpha  occ. eigenvalues --   -0.78750  -0.65077  -0.64695  -0.62468  -0.52431
 Alpha  occ. eigenvalues --   -0.49168  -0.46897  -0.43439  -0.37474  -0.35850
 Alpha  occ. eigenvalues --   -0.32681  -0.29388
 Alpha virt. eigenvalues --    0.00286   0.03709   0.04965   0.05376   0.08452
 Alpha virt. eigenvalues --    0.12060   0.12180   0.12476   0.13147   0.16107
 Alpha virt. eigenvalues --    0.16895   0.19092   0.19547   0.21624   0.22627

 Mulliken charges:
               1
     1  F   -0.698356
     2  B    1.403619
     3  C    4.531356
     4  O   -2.405982
     5  N   -2.260991
     6  F   -0.569646
 Sum of Mulliken charges =  -0.00000

 Dipole moment (field-independent basis, Debye):
    X=              1.7832    Y=              1.5885    Z=             -0.0001  Tot=              2.3881

 Test job not archived.
 1\1\GINC-SE212\SP\RHF\Aug-CC-pVDZ\C1B1F2N1O1\OHZDE\09-Apr-2025\0\\#t h
 f aug-cc-pvdz iop(5/13=1,5/36=2,99/5=2) pseudo=read geom=check guess=(
 read,tcheck) scf=(maxcycle=1)\\title\\0,1\F,0,-1.227483,1.284298,0.000
 016\B,0,-0.948325,-0.011407,-0.000081\C,0,1.543052,-0.152127,0.000002\
 O,0,2.680947,0.077025,0.00001\N,0,0.384549,-0.490166,-0.00003\F,0,-1.9
 56529,-0.863769,0.000042\\Version=ES64L-G16RevC.01\State=1-A\HF=-392.4
 301039\RMSD=2.372e-01\Dipole=-0.7015835,0.6249496,0.0000491\Quadrupole
 =2.1078553,0.8722336,-2.9800889,0.7547047,-0.0002217,-0.0000126\PG=C01

 Normal termination of Gaussian 16 at Wed Apr  9 00:33:20 2025.
