 Gaussian 16, Revision C.01,

 ----------------------------------------------------------------------
 #t hf aug-cc-pvdz symm=none int=(grid=ultrafine) guess=(read,tcheck) s
 table=(opt,rrhf)
 ----------------------------------------------------------------------
 -----
 title
 -----
 Symbolic Z-matrix:
 Charge =  0 Multiplicity = 1

 SCF Done:  E(RHF) =  -594.125156803     A.U. after   12 cycles
 Normal termination of Gaussian 16 at Wed Apr  9 00:00:30 2025.
 Gaussian 16:  ES64L-G16RevC.01  3-Jul-2019

 ----------------------------------------------------------------------
 #t hf aug-cc-pvdz iop(5/13=1,5/36=2,99/5=2) pseudo=read geom=check gue
 ss=(read,tcheck) scf=(maxcycle=1)
 ----------------------------------------------------------------------
 -----
 title
 -----
 Structure from the checkpoint file:  "BDE49_nonexpt_2086_mol1.chk"
 Charge =  0 Multiplicity = 1

                         Standard orientation:
 ---------------------------------------------------------------------
 Center     Atomic      Atomic             Coordinates (Angstroms)
 Number     Number       Type             X           Y           Z
 ---------------------------------------------------------------------
      1          7           0        1.169665   -0.449177   -0.193257
      2          7           0       -1.169682   -0.449135   -0.193257
      3          6           0        0.000006    0.301133    0.332125
      4          6           0        0.667203   -1.737093   -0.512467
      5          1           0        1.343037   -2.518690   -0.823602
      6          6           0       -0.667264   -1.737069   -0.512469
      7          1           0       -1.343126   -2.518641   -0.823605
      8          6           0        2.357464   -0.389982    0.646206
      9          1           0        2.721428    0.637697    0.708629
     10          1           0        3.147291   -0.996444    0.198541
     11          6           0       -2.357477   -0.389900    0.646206
     12          1           0       -3.147327   -0.996334    0.198541
     13          1           0       -2.721405    0.637792    0.708631
     14          1           0       -2.167508   -0.755810    1.670376
     15         14           0        0.000037    2.093686   -0.315409
     16          1           0        0.000005    0.248879    1.448818
     17          1           0        2.167483   -0.755884    1.670376
     18          1           0        0.000036    2.082400   -1.791958
     19          1           0        1.199877    2.814520    0.179485
     20          1           0       -1.199778    2.814562    0.179485
 ---------------------------------------------------------------------

 SCF Done:  E(RHF) =  -595.773140723     A.U. after    2 cycles

 The electronic state is 1-A.
 Alpha  occ. eigenvalues --  -76.20646 -15.72018 -15.71983 -11.46305 -11.41259
 Alpha  occ. eigenvalues --  -11.39157 -11.38924 -11.37164  -5.54177  -2.18774
 Alpha  occ. eigenvalues --   -2.16794  -2.16568  -1.52932  -1.33199  -1.10896
 Alpha  occ. eigenvalues --   -1.04097  -0.95945  -0.83830  -0.79719  -0.75512
 Alpha  occ. eigenvalues --   -0.68726  -0.64475  -0.60315  -0.59444  -0.58497
 Alpha  occ. eigenvalues --   -0.55288  -0.51873  -0.50309  -0.48041  -0.47165
 Alpha  occ. eigenvalues --   -0.46008  -0.45375  -0.39163  -0.36200  -0.22728
 Alpha virt. eigenvalues --    0.04120   0.05076   0.05276   0.05719   0.05805
 Alpha virt. eigenvalues --    0.05901   0.06165   0.06447   0.07878   0.08254
 Alpha virt. eigenvalues --    0.08530   0.08755   0.09834   0.11023   0.11072

 Mulliken charges:
               1
     1  N   -2.989888
     2  N   -2.989889
     3  C   -1.450913
     4  C    0.149250
     5  H    1.388906
     6  C    0.149248
     7  H    1.388905
     8  C   -3.759295
     9  H    1.529696
    10  H    1.352869
    11  C   -3.759294
    12  H    1.352870
    13  H    1.529696
    14  H    1.360586
    15  Si   6.355549
    16  H    2.591390
    17  H    1.360586
    18  H   -1.990139
    19  H   -1.785068
    20  H   -1.785069
 Sum of Mulliken charges =   0.00000

 Dipole moment (field-independent basis, Debye):
    X=             -0.0000    Y=             -0.9038    Z=              0.4781  Tot=              1.0224

 Test job not archived.
 1\1\GINC-SE072\SP\RHF\Aug-CC-pVDZ\C5H12N2Si1\OHZDE\09-Apr-2025\0\\#t h
 f aug-cc-pvdz iop(5/13=1,5/36=2,99/5=2) pseudo=read geom=check guess=(
 read,tcheck) scf=(maxcycle=1)\\title\\0,1\N,0,1.169668,-0.44917,-0.193
 257\N,0,-1.169679,-0.449142,-0.193257\C,0,0.000004,0.301133,0.332125\C
 ,0,0.667213,-1.737089,-0.512467\H,0,1.343052,-2.518682,-0.823602\C,0,-
 0.667254,-1.737073,-0.512469\H,0,-1.343111,-2.518649,-0.823605\C,0,2.3
 57466,-0.389968,0.646206\H,0,2.721424,0.637713,0.708629\H,0,3.147297,-
 0.996426,0.198541\C,0,-2.357475,-0.389914,0.646206\H,0,-3.147321,-0.99

 Normal termination of Gaussian 16 at Wed Apr  9 00:00:39 2025.
