 Gaussian 16, Revision C.01,

 ----------------------------------------------------------------------
 #t hf aug-cc-pvdz symm=none int=(grid=ultrafine) guess=(read,tcheck) s
 table=(opt,rrhf)
 ----------------------------------------------------------------------
 -----
 title
 -----
 Symbolic Z-matrix:
 Charge =  0 Multiplicity = 1

 SCF Done:  E(RHF) =  -564.550453107     A.U. after   12 cycles
 Normal termination of Gaussian 16 at Tue Apr  8 22:48:40 2025.
 Gaussian 16:  ES64L-G16RevC.01  3-Jul-2019

 ----------------------------------------------------------------------
 #t hf aug-cc-pvdz iop(5/13=1,5/36=2,99/5=2) pseudo=read geom=check gue
 ss=(read,tcheck) scf=(maxcycle=1)
 ----------------------------------------------------------------------
 -----
 title
 -----
 Structure from the checkpoint file:  "BDE49_expt_1542_mol1.chk"
 Charge =  0 Multiplicity = 1

                         Standard orientation:
 ---------------------------------------------------------------------
 Center     Atomic      Atomic             Coordinates (Angstroms)
 Number     Number       Type             X           Y           Z
 ---------------------------------------------------------------------
      1         14           0        1.026668   -0.116102   -0.019889
      2          6           0        1.388720   -0.070799    1.832143
      3          1           0        2.434204   -0.329453    2.028130
      4          1           0        0.765994   -0.781863    2.383180
      5          1           0        1.212467    0.923009    2.254526
      6          6           0        1.377567   -1.850705   -0.677688
      7          6           0        2.170367    1.098640   -0.903381
      8          6           0       -0.791675    0.349263   -0.365885
      9          1           0        2.435213   -2.103405   -0.551552
     10          1           0        1.146847   -1.926652   -1.745066
     11          1           0        0.794752   -2.615379   -0.156341
     12          1           0        3.217109    0.803828   -0.777954
     13          1           0        2.068153    2.115718   -0.514269
     14          1           0        1.964768    1.131251   -1.978096
     15          6           0       -1.100887    1.809668    0.020755
     16          1           0       -1.025301    1.957746    1.103519
     17          1           0       -2.110871    2.106875   -0.276654
     18          1           0       -0.410307    2.510630   -0.455727
     19          6           0       -1.786510   -0.646155    0.275780
     20          1           0       -0.901848    0.263310   -1.458347
     21          6           0       -3.240543   -0.495499   -0.192319
     22          1           0       -1.748972   -0.538800    1.367193
     23          1           0       -1.465354   -1.671934    0.063384
     24          1           0       -3.659142    0.478651    0.072126
     25          1           0       -3.878288   -1.258841    0.262976
     26          1           0       -3.315016   -0.605736   -1.279013
 ---------------------------------------------------------------------

 SCF Done:  E(RHF) =  -566.187601824     A.U. after    2 cycles

 The electronic state is 1-A.
 Alpha  occ. eigenvalues --  -76.17415 -11.41473 -11.39021 -11.36534 -11.34208
 Alpha  occ. eigenvalues --  -11.34131 -11.33935 -11.33648  -5.51611  -2.15933
 Alpha  occ. eigenvalues --   -2.15370  -2.15216  -1.22990  -1.07154  -1.05291
 Alpha  occ. eigenvalues --   -1.00313  -1.00160  -0.92183  -0.80951  -0.65481
 Alpha  occ. eigenvalues --   -0.62711  -0.58299  -0.57494  -0.56069  -0.55753
 Alpha  occ. eigenvalues --   -0.55387  -0.54202  -0.53413  -0.52750  -0.51931
 Alpha  occ. eigenvalues --   -0.49732  -0.48776  -0.44853  -0.43058  -0.38199
 Alpha  occ. eigenvalues --   -0.37867  -0.33777
 Alpha virt. eigenvalues --    0.03381   0.05044   0.05396   0.05520   0.05561
 Alpha virt. eigenvalues --    0.05738   0.05927   0.06040   0.06365   0.07526
 Alpha virt. eigenvalues --    0.07604   0.07749   0.08214   0.08344   0.08577

 Mulliken charges:
               1
     1  Si  13.066126
     2  C   -6.321331
     3  H    1.006439
     4  H    0.987139
     5  H    0.946776
     6  C   -6.281173
     7  C   -6.357421
     8  C   -2.850512
     9  H    1.118894
    10  H    0.903918
    11  H    1.118605
    12  H    1.115495
    13  H    1.091255
    14  H    0.916178
    15  C   -4.852728
    16  H    1.248686
    17  H    1.266935
    18  H    1.320418
    19  C   -3.330236
    20  H    1.415067
    21  C   -4.249562
    22  H    1.450308
    23  H    1.521219
    24  H    1.412809
    25  H    1.066796
    26  H    1.269901
 Sum of Mulliken charges =  -0.00000

 Dipole moment (field-independent basis, Debye):
    X=              0.0028    Y=             -0.0851    Z=             -0.0536  Tot=              0.1006

 Test job not archived.
 1\1\GINC-SE118\SP\RHF\Aug-CC-pVDZ\C7H18Si1\OHZDE\08-Apr-2025\0\\#t hf
 aug-cc-pvdz iop(5/13=1,5/36=2,99/5=2) pseudo=read geom=check guess=(re
 ad,tcheck) scf=(maxcycle=1)\\title\\0,1\Si,0,1.026668,-0.116102,-0.019
 889\C,0,1.38872,-0.070799,1.832143\H,0,2.434204,-0.329453,2.02813\H,0,
 0.765994,-0.781863,2.38318\H,0,1.212467,0.923009,2.254526\C,0,1.377567
 ,-1.850705,-0.677688\C,0,2.170367,1.09864,-0.903381\C,0,-0.791675,0.34
 9263,-0.365885\H,0,2.435213,-2.103405,-0.551552\H,0,1.146847,-1.926652
 ,-1.745066\H,0,0.794752,-2.615379,-0.156341\H,0,3.217109,0.803828,-0.7

 Normal termination of Gaussian 16 at Tue Apr  8 22:48:57 2025.
