 Gaussian 16, Revision C.01,

 ----------------------------------------------------------------------
 #t hf aug-cc-pvdz symm=none int=(grid=ultrafine) guess=(read,tcheck) s
 table=(opt,rrhf)
 ----------------------------------------------------------------------
 -----
 title
 -----
 Symbolic Z-matrix:
 Charge =  0 Multiplicity = 1

 SCF Done:  E(RHF) =  -866.178401126     A.U. after   12 cycles
 Normal termination of Gaussian 16 at Tue Apr  8 23:46:20 2025.
 Gaussian 16:  ES64L-G16RevC.01  3-Jul-2019

 ----------------------------------------------------------------------
 #t hf aug-cc-pvdz iop(5/13=1,5/36=2,99/5=2) pseudo=read geom=check gue
 ss=(read,tcheck) scf=(maxcycle=1)
 ----------------------------------------------------------------------
 -----
 title
 -----
 Structure from the checkpoint file:  "BDE49_nonexpt_1753_mol1.chk"
 Charge =  0 Multiplicity = 1

                         Standard orientation:
 ---------------------------------------------------------------------
 Center     Atomic      Atomic             Coordinates (Angstroms)
 Number     Number       Type             X           Y           Z
 ---------------------------------------------------------------------
      1          6           0        1.517796   -0.213229   -0.530286
      2         14           0       -0.028560    0.323821    0.347082
      3          6           0       -0.618096    2.013677   -0.182981
      4          6           0        2.636503   -0.547404    0.118239
      5         17           0       -1.562481   -1.045091   -0.082495
      6          1           0       -0.803831    2.044648   -1.259807
      7          1           0        0.137626    2.768008    0.056800
      8          1           0       -1.545909    2.279403    0.329667
      9          1           0        3.542759   -0.844025   -0.402956
     10          1           0        2.694140   -0.542444    1.203364
     11          1           0        1.519249   -0.246660   -1.619277
     12          1           0        0.200754    0.255860    1.805644
 ---------------------------------------------------------------------

 SCF Done:  E(RHF) =  -867.175503297     A.U. after    2 cycles

 The electronic state is 1-A.
 Alpha  occ. eigenvalues --  -99.86987 -76.24676 -11.42313 -11.37360 -11.35847
 Alpha  occ. eigenvalues --  -10.44363  -9.64294  -9.63750  -9.63649  -5.58500
 Alpha  occ. eigenvalues --   -2.22570  -2.21247  -2.20597  -1.27523  -1.15146
 Alpha  occ. eigenvalues --   -1.04643  -0.83659  -0.72976  -0.63218  -0.58126
 Alpha  occ. eigenvalues --   -0.57929  -0.54960  -0.53091  -0.52486  -0.51092
 Alpha  occ. eigenvalues --   -0.44234  -0.40961  -0.37997
 Alpha virt. eigenvalues --    0.03177   0.04718   0.05634   0.06105   0.06285
 Alpha virt. eigenvalues --    0.06881   0.07257   0.07941   0.08343   0.09945
 Alpha virt. eigenvalues --    0.10806   0.11565   0.13677   0.14308   0.14585

 Mulliken charges:
               1
     1  C   -2.521890
     2  Si   5.355339
     3  C   -4.987685
     4  C   -2.615703
     5  Cl  -0.985673
     6  H    1.263706
     7  H    1.287043
     8  H    1.221763
     9  H    1.357205
    10  H    1.487850
    11  H    1.126117
    12  H   -1.988072
 Sum of Mulliken charges =  -0.00000

 Dipole moment (field-independent basis, Debye):
    X=              2.0930    Y=              1.5054    Z=             -0.1847  Tot=              2.5848

 Test job not archived.
 1\1\GINC-SE097\SP\RHF\Aug-CC-pVDZ\C3H7Cl1Si1\OHZDE\08-Apr-2025\0\\#t h
 f aug-cc-pvdz iop(5/13=1,5/36=2,99/5=2) pseudo=read geom=check guess=(
 read,tcheck) scf=(maxcycle=1)\\title\\0,1\C,0,1.517796,-0.213229,-0.53
 0286\Si,0,-0.02856,0.323821,0.347082\C,0,-0.618096,2.013677,-0.182981\
 C,0,2.636503,-0.547404,0.118239\Cl,0,-1.562481,-1.045091,-0.082495\H,0
 ,-0.803831,2.044648,-1.259807\H,0,0.137626,2.768008,0.0568\H,0,-1.5459
 09,2.279403,0.329667\H,0,3.542759,-0.844025,-0.402956\H,0,2.69414,-0.5
 42444,1.203364\H,0,1.519249,-0.24666,-1.619277\H,0,0.200754,0.25586,1.

 Normal termination of Gaussian 16 at Tue Apr  8 23:46:25 2025.
