 Gaussian 16, Revision C.01,

 ----------------------------------------------------------------------
 #t hf aug-cc-pvdz symm=none int=(grid=ultrafine) guess=(read,tcheck) s
 table=(opt,rrhf)
 ----------------------------------------------------------------------
 -----
 title
 -----
 Symbolic Z-matrix:
 Charge =  0 Multiplicity = 1

 SCF Done:  E(RHF) =  -724.702216955     A.U. after   17 cycles

 1\1\GINC-SE120\Stability\RHF\Aug-CC-pVDZ\C10H9P1\OHZDE\08-Apr-2025\0\\
 #t hf aug-cc-pvdz symm=none int=(grid=ultrafine) guess=(read,tcheck) s
 table=(opt,rrhf)\\title\\0,1\C,0,-0.631902,-1.564382,-0.007709\C,0,-1.
 982412,-1.819151,-0.007765\C,0,-2.910696,-0.754881,0.003306\C,0,-2.464
 447,0.54347,0.007346\C,0,-1.077022,0.841276,0.003276\C,0,-0.131426,-0.
 235342,-0.000211\H,0,0.063649,-2.395928,-0.020508\H,0,-2.339165,-2.842
 836,-0.017186\H,0,-3.973695,-0.967583,0.006154\H,0,-3.170965,1.36699,0
 .012925\C,0,1.269582,0.067155,0.012836\C,0,1.673332,1.387435,0.007996\

 Normal termination of Gaussian 16 at Tue Apr  8 23:29:21 2025.
 Gaussian 16:  ES64L-G16RevC.01  3-Jul-2019

 ----------------------------------------------------------------------
 #t hf aug-cc-pvdz iop(5/13=1,5/36=2,99/5=2) pseudo=read geom=check gue
 ss=(read,tcheck) scf=(maxcycle=1)
 ----------------------------------------------------------------------
 -----
 title
 -----
 Structure from the checkpoint file:  "BDE49_nonexpt_1267_mol1.chk"
 Charge =  0 Multiplicity = 1

                         Standard orientation:
 ---------------------------------------------------------------------
 Center     Atomic      Atomic             Coordinates (Angstroms)
 Number     Number       Type             X           Y           Z
 ---------------------------------------------------------------------
      1          6           0       -0.631902   -1.564382   -0.007709
      2          6           0       -1.982412   -1.819151   -0.007765
      3          6           0       -2.910696   -0.754881    0.003306
      4          6           0       -2.464447    0.543470    0.007346
      5          6           0       -1.077022    0.841276    0.003276
      6          6           0       -0.131426   -0.235342   -0.000211
      7          1           0        0.063649   -2.395928   -0.020508
      8          1           0       -2.339165   -2.842836   -0.017186
      9          1           0       -3.973695   -0.967583    0.006154
     10          1           0       -3.170965    1.366990    0.012925
     11          6           0        1.269582    0.067155    0.012836
     12          6           0        1.673332    1.387435    0.007996
     13          6           0       -0.607783    2.180085   -0.000538
     14          6           0        0.737292    2.445595   -0.002819
     15          1           0       -1.331404    2.988316   -0.001236
     16          1           0        1.094271    3.469350   -0.004357
     17          1           0        2.730292    1.628683    0.019360
     18         15           0        2.512866   -1.296256   -0.103459
     19          1           0        2.351650   -1.836741    1.201008
     20          1           0        3.635263   -0.513964    0.261425
 ---------------------------------------------------------------------

 SCF Done:  E(RHF) =  -726.734409474     A.U. after    2 cycles

 The electronic state is 1-A.
 Alpha  occ. eigenvalues -- -105.18598 -11.52534 -11.49783 -11.45406 -11.44763
 Alpha  occ. eigenvalues --  -11.43144 -11.42477 -11.41817 -11.41609 -11.39454
 Alpha  occ. eigenvalues --  -11.36628  -2.75492  -1.51490  -1.46421  -1.43566
 Alpha  occ. eigenvalues --   -1.38641  -1.23715  -1.13730  -1.08351  -1.04070
 Alpha  occ. eigenvalues --   -0.89442  -0.87665  -0.84682  -0.73746  -0.72491
 Alpha  occ. eigenvalues --   -0.68818  -0.66983  -0.59903  -0.58009  -0.54978
 Alpha  occ. eigenvalues --   -0.53968  -0.53760  -0.50894  -0.45484  -0.44942
 Alpha  occ. eigenvalues --   -0.42520  -0.39069  -0.31776  -0.28348  -0.26180
 Alpha  occ. eigenvalues --   -0.23322  -0.02640
 Alpha virt. eigenvalues --    0.03356   0.04728   0.05039   0.05982   0.06524
 Alpha virt. eigenvalues --    0.06816   0.07039   0.07690   0.08066   0.09100
 Alpha virt. eigenvalues --    0.09915   0.10235   0.11168   0.11614   0.11837

 Mulliken charges:
               1
     1  C   -1.672638
     2  C   -4.353497
     3  C   -3.813969
     4  C   -2.925571
     5  C    5.843141
     6  C    5.339164
     7  H    2.106806
     8  H    1.476477
     9  H    1.500925
    10  H    1.684143
    11  C    3.238936
    12  C   -6.658192
    13  C   -3.280884
    14  C   -3.333817
    15  H    1.699200
    16  H    1.500921
    17  H    1.776189
    18  P    1.356219
    19  H   -0.485706
    20  H   -0.997846
 Sum of Mulliken charges =   0.00000

 Dipole moment (field-independent basis, Debye):
    X=             -1.3497    Y=             -0.4615    Z=             -2.5401  Tot=              2.9132

 Test job not archived.
 1\1\GINC-SE120\SP\RHF\Aug-CC-pVDZ\C10H9P1\OHZDE\08-Apr-2025\0\\#t hf a
 ug-cc-pvdz iop(5/13=1,5/36=2,99/5=2) pseudo=read geom=check guess=(rea
 d,tcheck) scf=(maxcycle=1)\\title\\0,1\C,0,-0.631902,-1.564382,-0.0077
 09\C,0,-1.982412,-1.819151,-0.007765\C,0,-2.910696,-0.754881,0.003306\
 C,0,-2.464447,0.54347,0.007346\C,0,-1.077022,0.841276,0.003276\C,0,-0.
 131426,-0.235342,-0.000211\H,0,0.063649,-2.395928,-0.020508\H,0,-2.339
 165,-2.842836,-0.017186\H,0,-3.973695,-0.967583,0.006154\H,0,-3.170965
 ,1.36699,0.012925\C,0,1.269582,0.067155,0.012836\C,0,1.673332,1.387435

 Normal termination of Gaussian 16 at Tue Apr  8 23:29:35 2025.
