 Gaussian 16, Revision C.01,

 ----------------------------------------------------------------------
 #t hf aug-cc-pvdz symm=none int=(grid=ultrafine) guess=(read,tcheck) s
 table=(opt,rrhf)
 ----------------------------------------------------------------------
 -----
 title
 -----
 Symbolic Z-matrix:
 Charge =  0 Multiplicity = 1

 SCF Done:  E(RHF) =  -1173.94922164     A.U. after   15 cycles
 Normal termination of Gaussian 16 at Wed Apr  9 00:13:23 2025.
 Gaussian 16:  ES64L-G16RevC.01  3-Jul-2019

 ----------------------------------------------------------------------
 #t hf aug-cc-pvdz iop(5/13=1,5/36=2,99/5=2) pseudo=read geom=check gue
 ss=(read,tcheck) scf=(maxcycle=1)
 ----------------------------------------------------------------------
 -----
 title
 -----
 Structure from the checkpoint file:  "BDE49_nonexpt_239_mol1.chk"
 Charge =  0 Multiplicity = 1

                         Standard orientation:
 ---------------------------------------------------------------------
 Center     Atomic      Atomic             Coordinates (Angstroms)
 Number     Number       Type             X           Y           Z
 ---------------------------------------------------------------------
      1         17           0        2.086848   -1.505096   -0.000025
      2         17           0        2.086848    1.505096   -0.000007
      3          5           0        1.150590    0.000000    0.000024
      4          6           0       -0.391708    0.000000    0.000015
      5          6           0       -1.120035   -1.206734    0.000006
      6          1           0       -0.587187   -2.149861    0.000001
      7          6           0       -2.509343   -1.207779    0.000000
      8          1           0       -3.050263   -2.147141   -0.000008
      9          6           0       -3.206235    0.000000    0.000005
     10          6           0       -1.120035    1.206734    0.000021
     11          1           0       -0.587187    2.149861    0.000028
     12          6           0       -2.509343    1.207779    0.000015
     13          1           0       -3.050263    2.147141    0.000018
     14          1           0       -4.290688    0.000000    0.000000
 ---------------------------------------------------------------------

 SCF Done:  E(RHF) =  -1175.64495316     A.U. after    2 cycles

 The electronic state is 1-A.
 Alpha  occ. eigenvalues --  -99.89453 -99.89438 -11.52574 -11.44809 -11.44115
 Alpha  occ. eigenvalues --  -11.41825 -11.41680 -11.37273 -10.46882 -10.46625
 Alpha  occ. eigenvalues --   -9.66858  -9.66590  -9.66301  -9.66291  -9.66092
 Alpha  occ. eigenvalues --   -9.66015  -7.73610  -1.41163  -1.33345  -1.29144
 Alpha  occ. eigenvalues --   -1.11609  -1.10528  -0.90173  -0.87743  -0.79447
 Alpha  occ. eigenvalues --   -0.72493  -0.65986  -0.63806  -0.62083  -0.59664
 Alpha  occ. eigenvalues --   -0.57645  -0.55532  -0.52054  -0.51307  -0.51091
 Alpha  occ. eigenvalues --   -0.49678  -0.45231  -0.43360  -0.35547  -0.34239
 Alpha virt. eigenvalues --    0.02685   0.03776   0.04457   0.04512   0.05312
 Alpha virt. eigenvalues --    0.05423   0.05457   0.07038   0.08584   0.09618
 Alpha virt. eigenvalues --    0.10965   0.11971   0.13200   0.13592   0.13718

 Mulliken charges:
               1
     1  Cl  -1.420645
     2  Cl  -1.420645
     3  B    1.272188
     4  C   -1.212628
     5  C   -1.324716
     6  H    1.828275
     7  C   -0.344099
     8  H    1.582402
     9  C   -2.209321
    10  C   -1.324716
    11  H    1.828275
    12  C   -0.344099
    13  H    1.582402
    14  H    1.507326
 Sum of Mulliken charges =  -0.00000

 Dipole moment (field-independent basis, Debye):
    X=             -3.0043    Y=              0.0000    Z=              0.0000  Tot=              3.0043

 Test job not archived.
 1\1\GINC-SE094\SP\RHF\Aug-CC-pVDZ\C6H5B1Cl2\OHZDE\09-Apr-2025\0\\#t hf
  aug-cc-pvdz iop(5/13=1,5/36=2,99/5=2) pseudo=read geom=check guess=(r
 ead,tcheck) scf=(maxcycle=1)\\title\\0,1\Cl,0,2.086848,1.505096,0.0000
 25\Cl,0,2.086848,-1.505096,0.000007\B,0,1.15059,0.,-0.000024\C,0,-0.39
 1708,0.,-0.000015\C,0,-1.120035,1.206734,-0.000006\H,0,-0.587187,2.149
 861,-0.000001\C,0,-2.509343,1.207779,0.\H,0,-3.050263,2.147141,0.00000
 8\C,0,-3.206235,0.,-0.000005\C,0,-1.120035,-1.206734,-0.000021\H,0,-0.
 587187,-2.149861,-0.000028\C,0,-2.509343,-1.207779,-0.000015\H,0,-3.05

 Normal termination of Gaussian 16 at Wed Apr  9 00:13:29 2025.
