 Gaussian 16, Revision C.01,

 ----------------------------------------------------------------------
 #t hf aug-cc-pvdz symm=none int=(grid=ultrafine) guess=(read,tcheck) s
 table=(opt,rrhf)
 ----------------------------------------------------------------------
 -----
 title
 -----
 Symbolic Z-matrix:
 Charge =  0 Multiplicity = 1

 SCF Done:  E(RHF) =  -835.800251854     A.U. after   15 cycles
 Normal termination of Gaussian 16 at Tue Apr  8 23:32:12 2025.
 Gaussian 16:  ES64L-G16RevC.01  3-Jul-2019

 ----------------------------------------------------------------------
 #t hf aug-cc-pvdz iop(5/13=1,5/36=2,99/5=2) pseudo=read geom=check gue
 ss=(read,tcheck) scf=(maxcycle=1)
 ----------------------------------------------------------------------
 -----
 title
 -----
 Structure from the checkpoint file:  "BDE49_nonexpt_1341_mol1.chk"
 Charge =  0 Multiplicity = 1

                         Standard orientation:
 ---------------------------------------------------------------------
 Center     Atomic      Atomic             Coordinates (Angstroms)
 Number     Number       Type             X           Y           Z
 ---------------------------------------------------------------------
      1          6           0        2.844626   -1.166480   -0.176945
      2          6           0        1.548010   -1.231884    0.328094
      3          6           0        3.446210    0.069877   -0.399709
      4          6           0        2.742441    1.239190   -0.117345
      5          6           0        1.446921    1.172948    0.387597
      6          6           0        0.837895   -0.064259    0.622662
      7          1           0        1.083315   -2.197226    0.498746
      8         15           0       -1.812242    0.117330   -0.133889
      9          8           0       -1.806324    1.409008   -0.835322
     10          8           0       -3.147565   -0.246170    0.680230
     11          1           0        3.384668   -2.081549   -0.393193
     12          1           0        3.202020    2.205644   -0.291251
     13          1           0        4.456268    0.122307   -0.790004
     14          1           0        0.898090    2.085411    0.591836
     15          6           0       -0.572836   -0.137846    1.161689
     16          1           0       -0.753204    0.630595    1.917976
     17          1           0       -0.775600   -1.108510    1.619908
     18          1           0       -3.945770    0.048777    0.224585
     19          8           0       -1.651347   -1.147789   -1.124077
     20          1           0       -1.283861   -0.875069   -1.973187
 ---------------------------------------------------------------------

 SCF Done:  E(RHF) =  -838.245108119     A.U. after    2 cycles

 The electronic state is 1-A.
 Alpha  occ. eigenvalues -- -105.29700 -21.11394 -21.10903 -21.01734 -11.52319
 Alpha  occ. eigenvalues --  -11.44559 -11.43661 -11.41480 -11.40889 -11.40787
 Alpha  occ. eigenvalues --  -11.36546  -2.92248  -1.96754  -1.89521  -1.80128
 Alpha  occ. eigenvalues --   -1.54680  -1.39684  -1.34922  -1.25856  -1.13765
 Alpha  occ. eigenvalues --   -1.09436  -0.98343  -0.86797  -0.83556  -0.71350
 Alpha  occ. eigenvalues --   -0.69152  -0.65259  -0.62940  -0.60266  -0.58222
 Alpha  occ. eigenvalues --   -0.57402  -0.54633  -0.53649  -0.50390  -0.45610
 Alpha  occ. eigenvalues --   -0.44572  -0.44434  -0.40104  -0.36099  -0.34330
 Alpha  occ. eigenvalues --   -0.33646  -0.32854  -0.29195  -0.23800  -0.15039
 Alpha virt. eigenvalues --    0.03295   0.04885   0.05168   0.05574   0.05773
 Alpha virt. eigenvalues --    0.06472   0.06949   0.07529   0.08249   0.09868
 Alpha virt. eigenvalues --    0.10905   0.11285   0.11507   0.12079   0.13004

 Mulliken charges:
               1
     1  C   -1.677053
     2  C   -2.384844
     3  C   -2.963495
     4  C   -1.496828
     5  C   -2.728573
     6  C    4.758420
     7  H    1.757375
     8  P   10.005116
     9  O   -2.994490
    10  O   -2.993096
    11  H    1.512389
    12  H    1.515744
    13  H    1.541446
    14  H    1.849097
    15  C   -6.620400
    16  H    1.043011
    17  H    1.171512
    18  H    0.948288
    19  O   -3.075260
    20  H    0.831640
 Sum of Mulliken charges =  -0.00000

 Dipole moment (field-independent basis, Debye):
    X=             -0.5857    Y=             -2.2838    Z=              0.9687  Tot=              2.5489

 Test job not archived.
 1\1\GINC-SE177\SP\RHF\Aug-CC-pVDZ\C7H9O3P1\OHZDE\08-Apr-2025\0\\#t hf
 aug-cc-pvdz iop(5/13=1,5/36=2,99/5=2) pseudo=read geom=check guess=(re
 ad,tcheck) scf=(maxcycle=1)\\title\\0,1\C,0,-2.844626,-1.16648,0.17694
 5\C,0,-1.54801,-1.231884,-0.328094\C,0,-3.44621,0.069877,0.399709\C,0,
 -2.742441,1.23919,0.117345\C,0,-1.446921,1.172948,-0.387597\C,0,-0.837
 895,-0.064259,-0.622662\H,0,-1.083315,-2.197226,-0.498746\P,0,1.812242
 ,0.11733,0.133889\O,0,1.806324,1.409008,0.835322\O,0,3.147565,-0.24617
 ,-0.68023\H,0,-3.384668,-2.081549,0.393193\H,0,-3.20202,2.205644,0.291

 Normal termination of Gaussian 16 at Tue Apr  8 23:32:26 2025.
