 Gaussian 16, Revision C.01,

 ----------------------------------------------------------------------
 #t hf aug-cc-pvdz symm=none int=(grid=ultrafine) guess=(read,tcheck) s
 table=(opt,rrhf)
 ----------------------------------------------------------------------
 -----
 title
 -----
 Symbolic Z-matrix:
 Charge =  0 Multiplicity = 1

 SCF Done:  E(RHF) =  -652.064171353     A.U. after   13 cycles
 Normal termination of Gaussian 16 at Tue Apr  8 22:41:32 2025.
 Gaussian 16:  ES64L-G16RevC.01  3-Jul-2019

 ----------------------------------------------------------------------
 #t hf aug-cc-pvdz iop(5/13=1,5/36=2,99/5=2) pseudo=read geom=check gue
 ss=(read,tcheck) scf=(maxcycle=1)
 ----------------------------------------------------------------------
 -----
 title
 -----
 Structure from the checkpoint file:  "BDE49_expt_1358_mol1.chk"
 Charge =  0 Multiplicity = 1

                         Standard orientation:
 ---------------------------------------------------------------------
 Center     Atomic      Atomic             Coordinates (Angstroms)
 Number     Number       Type             X           Y           Z
 ---------------------------------------------------------------------
      1          6           0        2.075272   -0.389427    0.069663
      2          8           0        1.066982    0.528234   -0.353154
      3          1           0        2.972140   -0.139741   -0.494320
      4          1           0        1.775675   -1.418229   -0.146470
      5          1           0        2.274403   -0.283198    1.142853
      6          6           0       -0.112047    0.472695    0.339025
      7          6           0       -0.977323    1.650855   -0.037354
      8          1           0       -0.457287    2.571513    0.241035
      9          1           0       -1.935684    1.607290    0.479172
     10          1           0       -1.148490    1.654652   -1.114319
     11         17           0       -1.057450   -1.117392   -0.054550
     12          1           0        0.044624    0.372762    1.416632
 ---------------------------------------------------------------------

 SCF Done:  E(RHF) =  -653.221123777     A.U. after    2 cycles

 The electronic state is 1-A.
 Alpha  occ. eigenvalues --  -99.86234 -21.07614 -11.49428 -11.41598 -11.38468
 Alpha  occ. eigenvalues --  -10.43443  -9.63355  -9.62786  -9.62631  -1.79468
 Alpha  occ. eigenvalues --   -1.28793  -1.12344  -0.99726  -0.87224  -0.68335
 Alpha  occ. eigenvalues --   -0.64639  -0.64279  -0.60329  -0.55271  -0.53007
 Alpha  occ. eigenvalues --   -0.51164  -0.48625  -0.46291  -0.41031  -0.33796
 Alpha virt. eigenvalues --    0.03694   0.05128   0.05498   0.05853   0.06393
 Alpha virt. eigenvalues --    0.07025   0.07476   0.09049   0.10862   0.13125
 Alpha virt. eigenvalues --    0.13385   0.14196   0.14890   0.15379   0.16140

 Mulliken charges:
               1
     1  C   -2.772357
     2  O   -2.880256
     3  H    1.307587
     4  H    1.347142
     5  H    1.258920
     6  C   -0.412115
     7  C   -3.491058
     8  H    1.270614
     9  H    1.187287
    10  H    1.288078
    11  Cl  -0.021134
    12  H    1.917292
 Sum of Mulliken charges =   0.00000

 Dipole moment (field-independent basis, Debye):
    X=              2.1403    Y=              2.2587    Z=              0.6719  Tot=              3.1834

 Test job not archived.
 1\1\GINC-SE071\SP\RHF\Aug-CC-pVDZ\C3H7Cl1O1\OHZDE\08-Apr-2025\0\\#t hf
  aug-cc-pvdz iop(5/13=1,5/36=2,99/5=2) pseudo=read geom=check guess=(r
 ead,tcheck) scf=(maxcycle=1)\\title\\0,1\C,0,2.075272,-0.389427,0.0696
 63\O,0,1.066982,0.528234,-0.353154\H,0,2.97214,-0.13974,-0.49432\H,0,1
 .775675,-1.418229,-0.14647\H,0,2.274403,-0.283198,1.142853\C,0,-0.1120
 47,0.472695,0.339025\C,0,-0.977323,1.650855,-0.037354\H,0,-0.457288,2.
 571513,0.241035\H,0,-1.935684,1.60729,0.479172\H,0,-1.14849,1.654652,-
 1.114319\Cl,0,-1.05745,-1.117392,-0.05455\H,0,0.044624,0.372762,1.4166

 Normal termination of Gaussian 16 at Tue Apr  8 22:41:36 2025.
