 Gaussian 16, Revision C.01,

 ----------------------------------------------------------------------
 #t hf aug-cc-pvdz symm=none int=(grid=ultrafine) guess=(read,tcheck) s
 table=(opt,rrhf)
 ----------------------------------------------------------------------
 -----
 title
 -----
 Symbolic Z-matrix:
 Charge =  0 Multiplicity = 1

 SCF Done:  E(RHF) =  -878.993560715     A.U. after   12 cycles

 1\1\GINC-SE044\Stability\RHF\Aug-CC-pVDZ\C5H14P2\OHZDE\08-Apr-2025\0\\
 #t hf aug-cc-pvdz symm=none int=(grid=ultrafine) guess=(read,tcheck) s
 table=(opt,rrhf)\\title\\0,1\C,0,0.,2.817821,1.019827\P,0,-0.024985,1.
 559547,-0.34728\H,0,0.797066,2.633002,1.74691\H,0,-0.961439,2.813571,1
 .538938\H,0,0.139842,3.812417,0.588449\C,0,1.754869,1.632427,-0.865862
 \H,0,1.939425,2.577496,-1.382719\H,0,1.962908,0.819971,-1.564812\H,0,2
 .441103,1.553501,-0.016422\C,0,0.,0.,0.682211\P,0,0.024985,-1.559547,-
 0.34728\H,0,-0.885764,0.008171,1.328431\H,0,0.885764,-0.008171,1.32843

 Normal termination of Gaussian 16 at Tue Apr  8 23:30:11 2025.
 Gaussian 16:  ES64L-G16RevC.01  3-Jul-2019

 ----------------------------------------------------------------------
 #t hf aug-cc-pvdz iop(5/13=1,5/36=2,99/5=2) pseudo=read geom=check gue
 ss=(read,tcheck) scf=(maxcycle=1)
 ----------------------------------------------------------------------
 -----
 title
 -----
 Structure from the checkpoint file:  "BDE49_nonexpt_1316_mol1.chk"
 Charge =  0 Multiplicity = 1

                         Standard orientation:
 ---------------------------------------------------------------------
 Center     Atomic      Atomic             Coordinates (Angstroms)
 Number     Number       Type             X           Y           Z
 ---------------------------------------------------------------------
      1          6           0        0.000000    2.817821    1.019827
      2         15           0       -0.024985    1.559547   -0.347280
      3          1           0        0.797066    2.633002    1.746910
      4          1           0       -0.961439    2.813571    1.538938
      5          1           0        0.139842    3.812417    0.588449
      6          6           0        1.754869    1.632427   -0.865862
      7          1           0        1.939425    2.577496   -1.382719
      8          1           0        1.962908    0.819971   -1.564812
      9          1           0        2.441103    1.553501   -0.016422
     10          6           0        0.000000    0.000000    0.682211
     11         15           0        0.024985   -1.559547   -0.347280
     12          1           0       -0.885764    0.008171    1.328431
     13          1           0        0.885764   -0.008171    1.328431
     14          6           0       -1.754869   -1.632427   -0.865862
     15          1           0       -2.441103   -1.553501   -0.016422
     16          1           0       -1.939425   -2.577496   -1.382719
     17          1           0       -1.962908   -0.819971   -1.564812
     18          6           0       -0.000000   -2.817821    1.019827
     19          1           0       -0.139842   -3.812417    0.588449
     20          1           0       -0.797066   -2.633002    1.746910
     21          1           0        0.961439   -2.813571    1.538938
 ---------------------------------------------------------------------

 SCF Done:  E(RHF) =  -880.448404971     A.U. after    2 cycles

 The electronic state is 1-A.
 Alpha  occ. eigenvalues -- -105.15673-105.15396 -11.36721 -11.36698 -11.36689
 Alpha  occ. eigenvalues --  -11.36314 -11.36132  -2.74633  -2.73856  -1.48354
 Alpha  occ. eigenvalues --   -1.46735  -1.46620  -1.46164  -1.44331  -1.42759
 Alpha  occ. eigenvalues --   -1.06398  -1.02051  -0.96217  -0.96100  -0.91829
 Alpha  occ. eigenvalues --   -0.64361  -0.63446  -0.58959  -0.56914  -0.56868
 Alpha  occ. eigenvalues --   -0.56569  -0.55543  -0.55025  -0.54358  -0.53993
 Alpha  occ. eigenvalues --   -0.53698  -0.27154  -0.20125  -0.19677  -0.16654
 Alpha  occ. eigenvalues --   -0.01951   0.00459
 Alpha virt. eigenvalues --    0.05236   0.05763   0.05917   0.06190   0.06371
 Alpha virt. eigenvalues --    0.06518   0.06592   0.06947   0.07187   0.08040
 Alpha virt. eigenvalues --    0.08345   0.08391   0.09094   0.09385   0.10697

 Mulliken charges:
               1
     1  C   -6.139427
     2  P    8.098016
     3  H    0.952292
     4  H    1.072521
     5  H    1.172622
     6  C   -6.736534
     7  H    0.950690
     8  H    1.286601
     9  H    1.072559
    10  C   -5.991394
    11  P    8.098016
    12  H    1.266356
    13  H    1.266356
    14  C   -6.736534
    15  H    1.072559
    16  H    0.950690
    17  H    1.286601
    18  C   -6.139427
    19  H    1.172622
    20  H    0.952292
    21  H    1.072521
 Sum of Mulliken charges =  -0.00000

 Dipole moment (field-independent basis, Debye):
    X=              0.0000    Y=              0.0000    Z=             -3.5758  Tot=              3.5758

 Test job not archived.
 1\1\GINC-SE044\SP\RHF\Aug-CC-pVDZ\C5H14P2\OHZDE\08-Apr-2025\0\\#t hf a
 ug-cc-pvdz iop(5/13=1,5/36=2,99/5=2) pseudo=read geom=check guess=(rea
 d,tcheck) scf=(maxcycle=1)\\title\\0,1\C,0,0.,2.817821,1.019827\P,0,-0
 .024985,1.559547,-0.34728\H,0,0.797066,2.633002,1.74691\H,0,-0.961439,
 2.813571,1.538938\H,0,0.139842,3.812417,0.588449\C,0,1.754869,1.632427
 ,-0.865862\H,0,1.939425,2.577496,-1.382719\H,0,1.962908,0.819971,-1.56
 4812\H,0,2.441103,1.553501,-0.016422\C,0,0.,0.,0.682211\P,0,0.024985,-
 1.559547,-0.34728\H,0,-0.885764,0.008171,1.328431\H,0,0.885764,-0.0081

 Normal termination of Gaussian 16 at Tue Apr  8 23:30:17 2025.
