 Gaussian 16, Revision C.01,

 ----------------------------------------------------------------------
 #t hf aug-cc-pvdz symm=none int=(grid=ultrafine) guess=(read,tcheck) s
 table=(opt,rrhf)
 ----------------------------------------------------------------------
 -----
 title
 -----
 Symbolic Z-matrix:
 Charge =  0 Multiplicity = 1

 SCF Done:  E(RHF) =  -2152.40944696     A.U. after   12 cycles
 Normal termination of Gaussian 16 at Tue Apr  8 23:44:16 2025.
 Gaussian 16:  ES64L-G16RevC.01  3-Jul-2019

 ----------------------------------------------------------------------
 #t hf aug-cc-pvdz iop(5/13=1,5/36=2,99/5=2) pseudo=read geom=check gue
 ss=(read,tcheck) scf=(maxcycle=1)
 ----------------------------------------------------------------------
 -----
 title
 -----
 Structure from the checkpoint file:  "BDE49_nonexpt_170_mol1.chk"
 Charge =  0 Multiplicity = 1

                         Standard orientation:
 ---------------------------------------------------------------------
 Center     Atomic      Atomic             Coordinates (Angstroms)
 Number     Number       Type             X           Y           Z
 ---------------------------------------------------------------------
      1         17           0       -1.480476   -0.113290    1.703785
      2         17           0       -2.415438    0.075422   -1.175327
      3          5           0       -1.112363   -0.003207   -0.001824
      4         14           0        0.803764    0.036878   -0.651915
      5         17           0        1.746682    1.693887    0.159941
      6         17           0        1.758629   -1.692384   -0.026709
      7          1           0        0.949363    0.117949   -2.112818
 ---------------------------------------------------------------------

 SCF Done:  E(RHF) =  -2153.63087651     A.U. after    2 cycles

 The electronic state is 1-A.
 Alpha  occ. eigenvalues --  -99.92454 -99.92143 -99.90420 -99.90418 -76.31155
 Alpha  occ. eigenvalues --  -10.49763 -10.49398 -10.47866 -10.47831  -9.69675
 Alpha  occ. eigenvalues --   -9.69311  -9.69227  -9.69078  -9.68981  -9.68740
 Alpha  occ. eigenvalues --   -9.67725  -9.67688  -9.67144  -9.67098  -9.67086
 Alpha  occ. eigenvalues --   -9.66978  -7.73615  -5.64769  -2.26984  -2.26605
 Alpha  occ. eigenvalues --   -2.26154  -1.41465  -1.32278  -1.31927  -1.29524
 Alpha  occ. eigenvalues --   -0.87457  -0.77194  -0.65585  -0.63033  -0.60927
 Alpha  occ. eigenvalues --   -0.59332  -0.59140  -0.56779  -0.55238  -0.53829
 Alpha  occ. eigenvalues --   -0.52750  -0.52373  -0.51362  -0.42906
 Alpha virt. eigenvalues --   -0.00209   0.03369   0.03828   0.04128   0.04326
 Alpha virt. eigenvalues --    0.07635   0.08351   0.08861   0.09047   0.09951
 Alpha virt. eigenvalues --    0.10685   0.11841   0.12587   0.12857   0.13510

 Mulliken charges:
               1
     1  Cl  -1.086522
     2  Cl  -1.114416
     3  B    0.401839
     4  Si   5.436186
     5  Cl  -0.843636
     6  Cl  -0.843904
     7  H   -1.949549
 Sum of Mulliken charges =  -0.00000

 Dipole moment (field-independent basis, Debye):
    X=             -0.7791    Y=              0.0344    Z=             -0.7378  Tot=              1.0735

 Test job not archived.
 1\1\GINC-SE252\SP\RHF\Aug-CC-pVDZ\B1Cl4H1Si1\OHZDE\08-Apr-2025\0\\#t h
 f aug-cc-pvdz iop(5/13=1,5/36=2,99/5=2) pseudo=read geom=check guess=(
 read,tcheck) scf=(maxcycle=1)\\title\\0,1\Cl,0,1.480476,0.11329,1.7037
 85\Cl,0,2.415438,-0.075422,-1.175327\B,0,1.112363,0.003207,-0.001824\S
 i,0,-0.803764,-0.036878,-0.651915\Cl,0,-1.746682,-1.693887,0.159941\Cl
 ,0,-1.758629,1.692384,-0.026709\H,0,-0.949363,-0.117949,-2.112818\\Ver
 sion=ES64L-G16RevC.01\State=1-A\HF=-2153.6308765\RMSD=6.039e-02\Dipole
 =0.3065214,-0.0135332,-0.2902586\Quadrupole=-1.7169161,0.3450619,1.371

 Normal termination of Gaussian 16 at Tue Apr  8 23:44:19 2025.
