 Gaussian 16, Revision C.01,

 ----------------------------------------------------------------------
 #t hf aug-cc-pvdz symm=none int=(grid=ultrafine) guess=(read,tcheck) s
 table=opt
 ----------------------------------------------------------------------
 -----
 title
 -----
 Symbolic Z-matrix:
 Charge =  0 Multiplicity = 2

 SCF Done:  E(UHF) =  -748.416133155     A.U. after   19 cycles
 Normal termination of Gaussian 16 at Wed Apr  9 00:06:37 2025.
 Gaussian 16:  ES64L-G16RevC.01  3-Jul-2019

 ----------------------------------------------------------------------
 #t hf aug-cc-pvdz iop(5/13=1,5/36=2,99/5=2) pseudo=read geom=check gue
 ss=(read,tcheck) scf=(maxcycle=1)
 ----------------------------------------------------------------------
 -----
 title
 -----
 Structure from the checkpoint file:  "BDE49_nonexpt_223_mol2.chk"
 Charge =  0 Multiplicity = 2

                         Standard orientation:
 ---------------------------------------------------------------------
 Center     Atomic      Atomic             Coordinates (Angstroms)
 Number     Number       Type             X           Y           Z
 ---------------------------------------------------------------------
      1          5           0       -0.575318   -0.749832   -0.307894
      2         17           0       -2.128564   -0.044750   -0.023736
      3          6           0        0.831747   -0.035415   -0.033886
      4          8           0        1.886668   -0.610099   -0.749257
      5          1           0        1.771542   -1.565972   -0.710444
      6          8           0        1.023407   -0.144283    1.358035
      7          1           0        1.941658    0.114066    1.528026
      8          8           0        0.853242    1.302759   -0.457618
      9          1           0        0.251968    1.787299    0.119435
 ---------------------------------------------------------------------

 SCF Done:  E(UHF) =  -749.824714757     A.U. after    2 cycles

 The electronic state is 2-A.
 Alpha  occ. eigenvalues --  -99.91977 -21.09762 -21.09631 -21.09245 -11.47880
 Alpha  occ. eigenvalues --  -10.49245  -9.69226  -9.68819  -9.68522  -7.70222
 Alpha  occ. eigenvalues --   -1.86926  -1.68235  -1.67002  -1.36912  -0.96885
 Alpha  occ. eigenvalues --   -0.80413  -0.70882  -0.63642  -0.61054  -0.57410
 Alpha  occ. eigenvalues --   -0.56561  -0.53717  -0.50936  -0.41725  -0.40552
 Alpha  occ. eigenvalues --   -0.35091  -0.31835  -0.30321
 Alpha virt. eigenvalues --    0.03808   0.03942   0.04122   0.04256   0.06408
 Alpha virt. eigenvalues --    0.06464   0.08380   0.10793   0.12836   0.13802
 Alpha virt. eigenvalues --    0.15751   0.16089   0.16588   0.16800   0.18489

  Beta  occ. eigenvalues --  -99.91908 -21.09755 -21.09634 -21.09153 -11.47709
  Beta  occ. eigenvalues --  -10.49165  -9.69169  -9.68561  -9.68498  -7.68272
  Beta  occ. eigenvalues --   -1.86778  -1.68179  -1.66871  -1.36000  -0.95011
  Beta  occ. eigenvalues --   -0.78790  -0.69673  -0.62882  -0.59234  -0.56766
  Beta  occ. eigenvalues --   -0.56047  -0.53593  -0.50679  -0.40498  -0.38052
  Beta  occ. eigenvalues --   -0.32936  -0.31807
  Beta virt. eigenvalues --    0.02199   0.04067   0.04186   0.04552   0.06049
  Beta virt. eigenvalues --    0.06897   0.08366   0.08912   0.12034   0.12953
  Beta virt. eigenvalues --    0.14314   0.15985   0.16419   0.16688   0.16983

 Mulliken charges and spin densities:
               1          2
     1  B    1.168514   0.918314
     2  Cl  -0.924424   0.046972
     3  C    6.471429  -0.031332
     4  O   -3.116781   0.006633
     5  H    0.934122  -0.002669
     6  O   -2.808920   0.021333
     7  H    0.557721   0.001178
     8  O   -3.050074   0.043176
     9  H    0.768414  -0.003606
 Sum of Mulliken charges =  -0.00000   1.00000

 Dipole moment (field-independent basis, Debye):
    X=              0.7006    Y=              0.1079    Z=              0.3906  Tot=              0.8094
                          Isotropic Fermi Contact Couplings
        Atom                 a.u.       MegaHertz       Gauss      10(-4) cm-1
     1  B(11)              0.23870     342.37610     122.16831     114.20437
     2  Cl(35)             0.10770      47.22374      16.85060      15.75214
     3  C(13)              0.03042      34.19869      12.20294      11.40745
     4  O(17)              0.00088      -0.53317      -0.19025      -0.17785
     5  H(1)              -0.00029      -1.30257      -0.46479      -0.43449
     6  O(17)              0.00132      -0.80193      -0.28615      -0.26749
     7  H(1)               0.00065       2.89875       1.03435       0.96692
     8  O(17)              0.00540      -3.27088      -1.16713      -1.09105

 1\1\GINC-SE457\SP\UHF\Aug-CC-pVDZ\C1H3B1Cl1O3(2)\OHZDE\09-Apr-2025\0\\
 #t hf aug-cc-pvdz iop(5/13=1,5/36=2,99/5=2) pseudo=read geom=check gue
 ss=(read,tcheck) scf=(maxcycle=1)\\title\\0,2\B,0,-0.575318,-0.749832,
 -0.307894\Cl,0,-2.128564,-0.04475,-0.023736\C,0,0.831747,-0.035415,-0.
 033886\O,0,1.886668,-0.610099,-0.749257\H,0,1.771542,-1.565972,-0.7104
 44\O,0,1.023407,-0.144283,1.358035\H,0,1.941658,0.114066,1.528026\O,0,
 0.853242,1.302759,-0.457618\H,0,0.251968,1.787299,0.119435\\Version=ES
 64L-G16RevC.01\State=2-A\HF=-749.8247148\S2=0.755577\S2-1=0.\S2A=0.750

 Normal termination of Gaussian 16 at Wed Apr  9 00:06:40 2025.
