 Gaussian 16, Revision C.01,

 ----------------------------------------------------------------------
 #t hf aug-cc-pvdz symm=none int=(grid=ultrafine) guess=(read,tcheck) s
 table=(opt,rrhf)
 ----------------------------------------------------------------------
 -----
 title
 -----
 Symbolic Z-matrix:
 Charge =  0 Multiplicity = 1

 SCF Done:  E(RHF) =  -498.735128978     A.U. after   15 cycles
 Normal termination of Gaussian 16 at Wed Apr  9 00:41:29 2025.
 Gaussian 16:  ES64L-G16RevC.01  3-Jul-2019

 ----------------------------------------------------------------------
 #t hf aug-cc-pvdz iop(5/13=1,5/36=2,99/5=2) pseudo=read geom=check gue
 ss=(read,tcheck) scf=(maxcycle=1)
 ----------------------------------------------------------------------
 -----
 title
 -----
 Structure from the checkpoint file:  "BDE49_nonexpt_619_mol1.chk"
 Charge =  0 Multiplicity = 1

                         Standard orientation:
 ---------------------------------------------------------------------
 Center     Atomic      Atomic             Coordinates (Angstroms)
 Number     Number       Type             X           Y           Z
 ---------------------------------------------------------------------
      1          6           0       -3.012297   -0.069186   -0.020960
      2          7           0       -1.639956    0.241032   -0.003647
      3          8           0       -3.465593   -1.167226   -0.137035
      4          8           0       -3.829461    1.014935    0.098083
      5          5           0       -0.585144   -0.714737    0.029362
      6          6           0        0.908138   -0.282725    0.012468
      7          1           0       -3.340123    1.807755    0.342782
      8          6           0        1.896332   -1.283324    0.058419
      9          6           0        1.347098    1.053556   -0.046822
     10          6           0        2.698564    1.376859   -0.059785
     11          6           0        3.655320    0.361943   -0.013212
     12          6           0        3.252708   -0.970126    0.045917
     13          1           0        3.994036   -1.760517    0.081857
     14          1           0        1.587951   -2.322326    0.104051
     15          1           0        0.627015    1.866976   -0.084366
     16          1           0        3.010544    2.414287   -0.106327
     17          1           0        4.710601    0.611573   -0.023382
     18          1           0       -0.888277   -1.859567    0.079816
     19          1           0       -1.411082    1.224614   -0.060246
 ---------------------------------------------------------------------

 SCF Done:  E(RHF) =  -500.968576063     A.U. after    2 cycles

 The electronic state is 1-A.
 Alpha  occ. eigenvalues --  -21.13213 -21.04418 -15.76028 -11.53909 -11.52781
 Alpha  occ. eigenvalues --  -11.44611 -11.43827 -11.41816 -11.41484 -11.36863
 Alpha  occ. eigenvalues --   -7.65045  -1.83502  -1.66338  -1.40935  -1.33589
 Alpha  occ. eigenvalues --   -1.11455  -1.10185  -0.92941  -0.87613  -0.84372
 Alpha  occ. eigenvalues --   -0.79163  -0.74394  -0.71438  -0.65327  -0.60668
 Alpha  occ. eigenvalues --   -0.60394  -0.59215  -0.56520  -0.52964  -0.51351
 Alpha  occ. eigenvalues --   -0.49623  -0.47592  -0.44434  -0.42306  -0.41361
 Alpha  occ. eigenvalues --   -0.35071  -0.34027  -0.33153  -0.31211
 Alpha virt. eigenvalues --    0.02299   0.03422   0.04741   0.05092   0.05349
 Alpha virt. eigenvalues --    0.05598   0.06699   0.07092   0.07440   0.07694
 Alpha virt. eigenvalues --    0.09219   0.09924   0.10712   0.12000   0.12931

 Mulliken charges:
               1
     1  C    6.070638
     2  N   -3.217675
     3  O   -2.997542
     4  O   -2.996527
     5  B    4.840236
     6  C   -0.869885
     7  H    1.039126
     8  C   -2.387456
     9  C    1.326619
    10  C   -1.794567
    11  C   -2.590750
    12  C   -1.554376
    13  H    1.571600
    14  H    1.836761
    15  H    1.904560
    16  H    1.551735
    17  H    1.521249
    18  H   -4.176836
    19  H    0.923091
 Sum of Mulliken charges =  -0.00000

 Dipole moment (field-independent basis, Debye):
    X=              2.6145    Y=              2.6891    Z=              0.2393  Tot=              3.7582

 Test job not archived.
 1\1\GINC-SE015\SP\RHF\Aug-CC-pVDZ\C7H8B1N1O2\OHZDE\09-Apr-2025\0\\#t h
 f aug-cc-pvdz iop(5/13=1,5/36=2,99/5=2) pseudo=read geom=check guess=(
 read,tcheck) scf=(maxcycle=1)\\title\\0,1\C,0,-3.012297,-0.069186,-0.0
 2096\N,0,-1.639956,0.241032,-0.003647\O,0,-3.465593,-1.167226,-0.13703
 5\O,0,-3.829461,1.014935,0.098083\B,0,-0.585144,-0.714737,0.029362\C,0
 ,0.908138,-0.282725,0.012468\H,0,-3.340123,1.807755,0.342782\C,0,1.896
 332,-1.283324,0.058419\C,0,1.347098,1.053556,-0.046822\C,0,2.698564,1.
 376859,-0.059785\C,0,3.65532,0.361943,-0.013212\C,0,3.252708,-0.970126

 Normal termination of Gaussian 16 at Wed Apr  9 00:41:40 2025.
