 Gaussian 16, Revision C.01,

 ----------------------------------------------------------------------
 #t hf aug-cc-pvdz symm=none int=(grid=ultrafine) guess=(read,tcheck) s
 table=(opt,rrhf)
 ----------------------------------------------------------------------
 -----
 title
 -----
 Symbolic Z-matrix:
 Charge =  0 Multiplicity = 1

 SCF Done:  E(RHF) =  -1770.01414192     A.U. after   15 cycles
 Normal termination of Gaussian 16 at Tue Apr  8 22:54:55 2025.
 Gaussian 16:  ES64L-G16RevC.01  3-Jul-2019

 ----------------------------------------------------------------------
 #t hf aug-cc-pvdz iop(5/13=1,5/36=2,99/5=2) pseudo=read geom=check gue
 ss=(read,tcheck) scf=(maxcycle=1)
 ----------------------------------------------------------------------
 -----
 title
 -----
 Structure from the checkpoint file:  "BDE49_expt_1798_mol1.chk"
 Charge =  0 Multiplicity = 1

                         Standard orientation:
 ---------------------------------------------------------------------
 Center     Atomic      Atomic             Coordinates (Angstroms)
 Number     Number       Type             X           Y           Z
 ---------------------------------------------------------------------
      1          8           0        1.216408    0.767585   -0.636549
      2          7           0        2.440981   -0.086979   -0.208049
      3          8           0        2.298506   -1.259297   -0.230843
      4          8           0        3.334061    0.647901    0.047190
      5          8           0        0.154264   -0.102332   -0.981322
      6          6           0       -0.879593   -0.007077   -0.041969
      7         17           0       -2.073876   -1.163560   -0.664057
      8         17           0       -1.566230    1.646514    0.004264
      9         17           0       -0.350202   -0.469986    1.608049
 ---------------------------------------------------------------------

 SCF Done:  E(RHF) =  -1772.37229179     A.U. after    2 cycles

 The electronic state is 1-A.
 Alpha  occ. eigenvalues --  -99.94011 -99.93642 -99.93357 -21.20320 -21.18882
 Alpha  occ. eigenvalues --  -21.17870 -21.17407 -16.10607 -11.60863 -10.51455
 Alpha  occ. eigenvalues --  -10.51005 -10.50708  -9.71337  -9.70867  -9.70557
 Alpha  occ. eigenvalues --   -9.70423  -9.70364  -9.70114  -9.70009  -9.69758
 Alpha  occ. eigenvalues --   -9.69714  -2.13114  -2.01281  -1.79373  -1.56722
 Alpha  occ. eigenvalues --   -1.40733  -1.33268  -1.32843  -0.98848  -0.92799
 Alpha  occ. eigenvalues --   -0.79005  -0.77263  -0.75430  -0.73553  -0.72027
 Alpha  occ. eigenvalues --   -0.67564  -0.60098  -0.59296  -0.54387  -0.53598
 Alpha  occ. eigenvalues --   -0.53012  -0.52050  -0.51707  -0.45882  -0.41339
 Alpha  occ. eigenvalues --   -0.38289  -0.37242  -0.35793
 Alpha virt. eigenvalues --   -0.01109   0.04690   0.05456   0.05909   0.09069
 Alpha virt. eigenvalues --    0.09247   0.10704   0.11349   0.12628   0.12981
 Alpha virt. eigenvalues --    0.13921   0.14096   0.15639   0.15931   0.17139

 Mulliken charges:
               1
     1  O   -0.897704
     2  N    6.385637
     3  O   -2.705110
     4  O   -2.656503
     5  O   -1.114551
     6  C   -0.322707
     7  Cl   0.396397
     8  Cl   0.517122
     9  Cl   0.397419
 Sum of Mulliken charges =  -0.00000

 Dipole moment (field-independent basis, Debye):
    X=              0.8308    Y=             -0.0442    Z=             -0.9360  Tot=              1.2523

 Test job not archived.
 1\1\GINC-SE044\SP\RHF\Aug-CC-pVDZ\C1Cl3N1O4\OHZDE\08-Apr-2025\0\\#t hf
  aug-cc-pvdz iop(5/13=1,5/36=2,99/5=2) pseudo=read geom=check guess=(r
 ead,tcheck) scf=(maxcycle=1)\\title\\0,1\O,0,1.216408,0.767585,-0.6365
 49\N,0,2.440981,-0.086979,-0.208049\O,0,2.298506,-1.259297,-0.230843\O
 ,0,3.334061,0.647901,0.04719\O,0,0.154264,-0.102332,-0.981322\C,0,-0.8
 79593,-0.007077,-0.041969\Cl,0,-2.073876,-1.163559,-0.664057\Cl,0,-1.5
 6623,1.646514,0.004264\Cl,0,-0.350202,-0.469986,1.608049\\Version=ES64
 L-G16RevC.01\State=1-A\HF=-1772.3722918\RMSD=6.210e-02\Dipole=0.326877

 Normal termination of Gaussian 16 at Tue Apr  8 22:55:00 2025.
