 Gaussian 16, Revision C.01,

 ----------------------------------------------------------------------
 #t hf aug-cc-pvdz symm=none int=(grid=ultrafine) guess=(read,tcheck) s
 table=(opt,rrhf)
 ----------------------------------------------------------------------
 -----
 title
 -----
 Symbolic Z-matrix:
 Charge =  0 Multiplicity = 1

 SCF Done:  E(RHF) =  -2325.27666310     A.U. after   14 cycles
 Normal termination of Gaussian 16 at Wed Apr  9 00:15:37 2025.
 Gaussian 16:  ES64L-G16RevC.01  3-Jul-2019

 ----------------------------------------------------------------------
 #t hf aug-cc-pvdz iop(5/13=1,5/36=2,99/5=2) pseudo=read geom=check gue
 ss=(read,tcheck) scf=(maxcycle=1)
 ----------------------------------------------------------------------
 -----
 title
 -----
 Structure from the checkpoint file:  "BDE49_nonexpt_2441_mol1.chk"
 Charge =  0 Multiplicity = 1

                         Standard orientation:
 ---------------------------------------------------------------------
 Center     Atomic      Atomic             Coordinates (Angstroms)
 Number     Number       Type             X           Y           Z
 ---------------------------------------------------------------------
      1         14           0        1.154088    1.894400   -0.245836
      2         14           0       -1.154155    1.894412    0.245863
      3          6           0       -1.919010    0.233387   -0.285263
      4          1           0       -1.825685    2.950927   -0.547228
      5          1           0       -1.411075    2.143291    1.684513
      6         16           0       -1.633059   -0.306696   -1.815546
      7         16           0       -2.877069   -0.544609    0.927322
      8          6           0       -3.481701   -2.056844    0.126064
      9          1           0       -4.089416   -2.569725    0.871964
     10          1           0       -2.640574   -2.680619   -0.175148
     11          1           0       -4.081524   -1.804525   -0.747802
     12          6           0        1.918911    0.233341    0.285229
     13          1           0        1.825637    2.950877    0.547292
     14          1           0        1.411013    2.143325   -1.684477
     15         16           0        1.633092   -0.306709    1.815549
     16         16           0        2.877090   -0.544548   -0.927329
     17          6           0        3.481783   -2.056768   -0.126088
     18          1           0        4.089579   -2.569579   -0.871970
     19          1           0        2.640683   -2.680614    0.175053
     20          1           0        4.081536   -1.804435    0.747822
 ---------------------------------------------------------------------

 SCF Done:  E(RHF) =  -2327.25860163     A.U. after    2 cycles

 The electronic state is 1-A.
 Alpha  occ. eigenvalues --  -76.23430 -76.23405 -75.71875 -75.71856 -75.67128
 Alpha  occ. eigenvalues --  -75.67098 -13.16103 -13.15726 -13.14373 -13.14239
 Alpha  occ. eigenvalues --  -13.12982 -13.12848 -13.06502 -13.05993 -13.04963
 Alpha  occ. eigenvalues --  -13.04495 -13.00804 -12.99663 -11.46177 -11.45971
 Alpha  occ. eigenvalues --  -11.40825 -11.40822  -8.06135  -8.06121  -8.01151
 Alpha  occ. eigenvalues --   -8.01126  -5.56958  -5.56944  -2.20904  -2.20822
 Alpha  occ. eigenvalues --   -2.19233  -2.19214  -2.18830  -2.17937  -1.29094
 Alpha  occ. eigenvalues --   -1.28432  -1.12790  -1.12666  -0.98846  -0.98743
 Alpha  occ. eigenvalues --   -0.85363  -0.80677  -0.71119  -0.66749  -0.61169
 Alpha  occ. eigenvalues --   -0.60920  -0.60015  -0.59961  -0.51894  -0.51241
 Alpha  occ. eigenvalues --   -0.49674  -0.48820  -0.47246  -0.46589  -0.42991
 Alpha  occ. eigenvalues --   -0.40714  -0.36616  -0.36578  -0.34604  -0.23757
 Alpha  occ. eigenvalues --   -0.22474  -0.21207  -0.21076
 Alpha virt. eigenvalues --    0.02301   0.03032   0.03816   0.05008   0.05212
 Alpha virt. eigenvalues --    0.05267   0.05965   0.06511   0.06732   0.07645
 Alpha virt. eigenvalues --    0.07879   0.08097   0.08376   0.08765   0.09065

 Mulliken charges:
               1
     1  Si   4.884485
     2  Si   4.884418
     3  C   -2.361298
     4  H   -2.040196
     5  H   -1.763365
     6  S    0.664420
     7  S    1.344143
     8  C   -5.056084
     9  H    1.279831
    10  H    1.526320
    11  H    1.521756
    12  C   -2.361186
    13  H   -2.040207
    14  H   -1.763381
    15  S    0.664399
    16  S    1.344114
    17  C   -5.056079
    18  H    1.279824
    19  H    1.526296
    20  H    1.521790
 Sum of Mulliken charges =  -0.00000

 Dipole moment (field-independent basis, Debye):
    X=              0.0004    Y=             -3.4762    Z=              0.0002  Tot=              3.4762

 Test job not archived.
 1\1\GINC-SE250\SP\RHF\Aug-CC-pVDZ\C4H10S4Si2\OHZDE\09-Apr-2025\0\\#t h
 f aug-cc-pvdz iop(5/13=1,5/36=2,99/5=2) pseudo=read geom=check guess=(
 read,tcheck) scf=(maxcycle=1)\\title\\0,1\Si,0,1.154088,1.8944,-0.2458
 36\Si,0,-1.154155,1.894412,0.245863\C,0,-1.91901,0.233387,-0.285263\H,
 0,-1.825685,2.950927,-0.547228\H,0,-1.411075,2.143291,1.684513\S,0,-1.
 633059,-0.306696,-1.815546\S,0,-2.877069,-0.544609,0.927322\C,0,-3.481
 701,-2.056844,0.126064\H,0,-4.089416,-2.569725,0.871964\H,0,-2.640574,
 -2.680619,-0.175148\H,0,-4.081524,-1.804525,-0.747802\C,0,1.918911,0.2

 Normal termination of Gaussian 16 at Wed Apr  9 00:15:51 2025.
