 Gaussian 16, Revision C.01,

 ----------------------------------------------------------------------
 #t hf aug-cc-pvdz symm=none int=(grid=ultrafine) guess=(read,tcheck) s
 table=(opt,rrhf)
 ----------------------------------------------------------------------
 -----
 title
 -----
 Symbolic Z-matrix:
 Charge =  0 Multiplicity = 1

 SCF Done:  E(RHF) =  -403.813411384     A.U. after   13 cycles
 Normal termination of Gaussian 16 at Wed Apr  9 00:27:25 2025.
 Gaussian 16:  ES64L-G16RevC.01  3-Jul-2019

 ----------------------------------------------------------------------
 #t hf aug-cc-pvdz iop(5/13=1,5/36=2,99/5=2) pseudo=read geom=check gue
 ss=(read,tcheck) scf=(maxcycle=1)
 ----------------------------------------------------------------------
 -----
 title
 -----
 Structure from the checkpoint file:  "BDE49_nonexpt_275_mol1.chk"
 Charge =  0 Multiplicity = 1

                         Standard orientation:
 ---------------------------------------------------------------------
 Center     Atomic      Atomic             Coordinates (Angstroms)
 Number     Number       Type             X           Y           Z
 ---------------------------------------------------------------------
      1          8           0       -0.808827   -1.034253    0.000005
      2          6           0       -2.125376   -0.714215   -0.000040
      3          6           0       -0.089653    0.151050   -0.000011
      4          6           0       -2.290526    0.636428    0.000053
      5          6           0       -0.975540    1.192328   -0.000039
      6          1           0       -3.229899    1.166050    0.000103
      7          1           0       -2.814448   -1.542526   -0.000058
      8          1           0       -0.708187    2.237340   -0.000062
      9          5           0        1.454243    0.023010   -0.000019
     10          8           0        2.209671    1.157509    0.000002
     11          8           0        2.071079   -1.198408    0.000027
     12          1           0        1.440936   -1.925869    0.000039
     13          1           0        3.151558    0.957622    0.000023
 ---------------------------------------------------------------------

 SCF Done:  E(RHF) =  -405.553504546     A.U. after    2 cycles

 The electronic state is 1-A.
 Alpha  occ. eigenvalues --  -21.11554 -21.05914 -21.05429 -11.48438 -11.44338
 Alpha  occ. eigenvalues --  -11.41669 -11.36958  -7.65390  -1.85494  -1.80703
 Alpha  occ. eigenvalues --   -1.65608  -1.19907  -1.06794  -0.85234  -0.80912
 Alpha  occ. eigenvalues --   -0.75218  -0.70712  -0.63121  -0.57914  -0.56955
 Alpha  occ. eigenvalues --   -0.53019  -0.52443  -0.48195  -0.44400  -0.42136
 Alpha  occ. eigenvalues --   -0.37671  -0.36335  -0.33462  -0.32208
 Alpha virt. eigenvalues --    0.03262   0.04956   0.05128   0.05524   0.05924
 Alpha virt. eigenvalues --    0.06027   0.07577   0.09429   0.09759   0.10679
 Alpha virt. eigenvalues --    0.12662   0.13460   0.13605   0.14360   0.14612

 Mulliken charges:
               1
     1  O   -3.926563
     2  C    0.142942
     3  C    0.877333
     4  C   -1.139651
     5  C   -0.158236
     6  H    1.292260
     7  H    1.510703
     8  H    1.549231
     9  B    6.418665
    10  O   -4.567214
    11  O   -4.405270
    12  H    1.494837
    13  H    0.910963
 Sum of Mulliken charges =   0.00000

 Dipole moment (field-independent basis, Debye):
    X=             -0.7136    Y=             -0.7383    Z=              0.0000  Tot=              1.0268

 Test job not archived.
 1\1\GINC-SE273\SP\RHF\Aug-CC-pVDZ\C4H5B1O3\OHZDE\09-Apr-2025\0\\#t hf
 aug-cc-pvdz iop(5/13=1,5/36=2,99/5=2) pseudo=read geom=check guess=(re
 ad,tcheck) scf=(maxcycle=1)\\title\\0,1\O,0,0.808827,-1.034253,-0.0000
 05\C,0,2.125376,-0.714215,0.00004\C,0,0.089653,0.15105,0.000011\C,0,2.
 290526,0.636428,-0.000053\C,0,0.97554,1.192328,0.000039\H,0,3.229899,1
 .16605,-0.000103\H,0,2.814448,-1.542526,0.000058\H,0,0.708187,2.23734,
 0.000062\B,0,-1.454243,0.02301,0.000019\O,0,-2.209671,1.157509,-0.0000
 02\O,0,-2.071079,-1.198408,-0.000027\H,0,-1.440936,-1.925869,-0.000039

 Normal termination of Gaussian 16 at Wed Apr  9 00:27:31 2025.
