 Gaussian 16, Revision C.01,

 ----------------------------------------------------------------------
 #t hf aug-cc-pvdz symm=none int=(grid=ultrafine) guess=(read,tcheck) s
 table=(opt,rrhf)
 ----------------------------------------------------------------------
 -----
 title
 -----
 Symbolic Z-matrix:
 Charge =  0 Multiplicity = 1

 SCF Done:  E(RHF) =  -909.231749089     A.U. after   11 cycles
 Normal termination of Gaussian 16 at Tue Apr  8 22:31:42 2025.
 Gaussian 16:  ES64L-G16RevC.01  3-Jul-2019

 ----------------------------------------------------------------------
 #t hf aug-cc-pvdz iop(5/13=1,5/36=2,99/5=2) pseudo=read geom=check gue
 ss=(read,tcheck) scf=(maxcycle=1)
 ----------------------------------------------------------------------
 -----
 title
 -----
 Structure from the checkpoint file:  "BDE49_expt_1020_mol1.chk"
 Charge =  0 Multiplicity = 1

                         Standard orientation:
 ---------------------------------------------------------------------
 Center     Atomic      Atomic             Coordinates (Angstroms)
 Number     Number       Type             X           Y           Z
 ---------------------------------------------------------------------
      1          6           0       -1.315395   -0.234974   -0.000007
      2          6           0        0.000000    0.591252    0.000001
      3          9           0       -1.384729   -1.008464    1.087682
      4          9           0       -1.384712   -1.008470   -1.087692
      5          9           0       -2.355883    0.602245   -0.000018
      6          6           0        1.315395   -0.234974    0.000007
      7          9           0       -0.000006    1.374253    1.099867
      8          9           0        0.000006    1.374255   -1.099864
      9          9           0        1.384723   -1.008469   -1.087679
     10          9           0        1.384717   -1.008465    1.087695
     11          9           0        2.355883    0.602245    0.000008
 ---------------------------------------------------------------------

 SCF Done:  E(RHF) =  -912.400802776     A.U. after    2 cycles

 The electronic state is 1-A.
 Alpha  occ. eigenvalues --  -29.34956 -29.34955 -29.34915 -29.34907 -29.34757
 Alpha  occ. eigenvalues --  -29.34756 -29.34677 -29.34634 -11.67479 -11.65872
 Alpha  occ. eigenvalues --  -11.58352  -1.56094  -1.45029  -1.27326  -1.00892
 Alpha  occ. eigenvalues --   -0.98088  -0.94936  -0.92524  -0.84551  -0.82536
 Alpha  occ. eigenvalues --   -0.81702  -0.53875  -0.51544  -0.50729  -0.49731
 Alpha  occ. eigenvalues --   -0.49586  -0.46652  -0.46217  -0.45519  -0.45153
 Alpha  occ. eigenvalues --   -0.42675  -0.39723  -0.38777  -0.38558  -0.36718
 Alpha  occ. eigenvalues --   -0.35996  -0.31862  -0.31347  -0.31028  -0.29279
 Alpha  occ. eigenvalues --   -0.27552  -0.26761  -0.23810  -0.23590  -0.23425
 Alpha virt. eigenvalues --    0.09583   0.09902   0.10326   0.11525   0.12417
 Alpha virt. eigenvalues --    0.12599   0.12624   0.13815   0.14812   0.15015
 Alpha virt. eigenvalues --    0.19830   0.20542   0.22091   0.22611   0.23904

 Mulliken charges:
               1
     1  C   -1.048534
     2  C   -1.782782
     3  F    0.454696
     4  F    0.454699
     5  F    0.603126
     6  C   -1.048534
     7  F    0.427403
     8  F    0.427405
     9  F    0.454697
    10  F    0.454698
    11  F    0.603126
 Sum of Mulliken charges =   0.00000

 Dipole moment (field-independent basis, Debye):
    X=             -0.0000    Y=              0.1941    Z=             -0.0000  Tot=              0.1941

 Test job not archived.
 1\1\GINC-SE366\SP\RHF\Aug-CC-pVDZ\C3F8\OHZDE\08-Apr-2025\0\\#t hf aug-
 cc-pvdz iop(5/13=1,5/36=2,99/5=2) pseudo=read geom=check guess=(read,t
 check) scf=(maxcycle=1)\\title\\0,1\C,0,1.315395,-0.234974,0.000007\C,
 0,0.,0.591252,-0.000001\F,0,1.384729,-1.008464,-1.087682\F,0,1.384712,
 -1.00847,1.087692\F,0,2.355883,0.602245,0.000018\C,0,-1.315395,-0.2349
 74,-0.000007\F,0,0.000006,1.374253,-1.099867\F,0,-0.000006,1.374255,1.
 099864\F,0,-1.384723,-1.008469,1.087679\F,0,-1.384717,-1.008465,-1.087
 695\F,0,-2.355883,0.602245,-0.000008\\Version=ES64L-G16RevC.01\State=1

 Normal termination of Gaussian 16 at Tue Apr  8 22:31:48 2025.
