 Gaussian 16, Revision C.01,

 ----------------------------------------------------------------------
 #t hf aug-cc-pvdz symm=none int=(grid=ultrafine) guess=(read,tcheck) s
 table=(opt,rrhf)
 ----------------------------------------------------------------------
 -----
 title
 -----
 Symbolic Z-matrix:
 Charge =  0 Multiplicity = 1

 SCF Done:  E(RHF) =  -626.648523366     A.U. after   14 cycles
 Normal termination of Gaussian 16 at Tue Apr  8 22:56:34 2025.
 Gaussian 16:  ES64L-G16RevC.01  3-Jul-2019

 ----------------------------------------------------------------------
 #t hf aug-cc-pvdz iop(5/13=1,5/36=2,99/5=2) pseudo=read geom=check gue
 ss=(read,tcheck) scf=(maxcycle=1)
 ----------------------------------------------------------------------
 -----
 title
 -----
 Structure from the checkpoint file:  "BDE49_expt_1837_mol1.chk"
 Charge =  0 Multiplicity = 1

                         Standard orientation:
 ---------------------------------------------------------------------
 Center     Atomic      Atomic             Coordinates (Angstroms)
 Number     Number       Type             X           Y           Z
 ---------------------------------------------------------------------
      1          7           0        0.000000    0.697191    0.000000
      2         17           0       -1.433649   -0.264500    0.000000
      3          6           0        1.106867    0.167669    0.000000
      4          8           0        2.216354   -0.173732    0.000000
 ---------------------------------------------------------------------

 SCF Done:  E(RHF) =  -627.579866339     A.U. after    2 cycles

 The electronic state is 1-A'.
 Alpha  occ. eigenvalues --  -99.96030 -21.16710 -15.81726 -11.60056 -10.53000
 Alpha  occ. eigenvalues --   -9.72783  -9.71854  -9.71763  -1.80746  -1.48947
 Alpha  occ. eigenvalues --   -1.23835  -0.78414  -0.66618  -0.65995  -0.64392
 Alpha  occ. eigenvalues --   -0.55906  -0.53992  -0.42866  -0.36907
 Alpha virt. eigenvalues --    0.01438   0.05295   0.09746   0.10084   0.10255
 Alpha virt. eigenvalues --    0.12307   0.14233   0.14852   0.17302   0.18414
 Alpha virt. eigenvalues --    0.18920   0.21280   0.21859   0.24928   0.27056

 Mulliken charges:
               1
     1  N   -2.178538
     2  Cl   0.604836
     3  C    3.615831
     4  O   -2.042129
 Sum of Mulliken charges =   0.00000

 Dipole moment (field-independent basis, Debye):
    X=              2.0654    Y=             -0.7348    Z=              0.0000  Tot=              2.1922

 Test job not archived.
 1\1\GINC-SE087\SP\RHF\Aug-CC-pVDZ\C1Cl1N1O1\OHZDE\08-Apr-2025\0\\#t hf
  aug-cc-pvdz iop(5/13=1,5/36=2,99/5=2) pseudo=read geom=check guess=(r
 ead,tcheck) scf=(maxcycle=1)\\title\\0,1\N,0,0.,0.697191,0.\Cl,0,-1.43
 3649,-0.2645,0.\C,0,1.106867,0.167669,0.\O,0,2.216354,-0.173732,0.\\Ve
 rsion=ES64L-G16RevC.01\State=1-A'\HF=-627.5798663\RMSD=4.335e-02\Dipol
 e=0.8125964,-0.2890849,0.\Quadrupole=2.1665632,-1.0994508,-1.0671123,0
 .9218395,0.,0.\PG=CS [SG(C1Cl1N1O1)]\\@

 Normal termination of Gaussian 16 at Tue Apr  8 22:56:36 2025.
