 Gaussian 16, Revision C.01,

 ----------------------------------------------------------------------
 #t hf aug-cc-pvdz symm=none int=(grid=ultrafine) guess=(read,tcheck) s
 table=(opt,rrhf)
 ----------------------------------------------------------------------
 -----
 title
 -----
 Symbolic Z-matrix:
 Charge =  0 Multiplicity = 1

 SCF Done:  E(RHF) =  -647.931462196     A.U. after   16 cycles
 Normal termination of Gaussian 16 at Tue Apr  8 22:52:04 2025.
 Gaussian 16:  ES64L-G16RevC.01  3-Jul-2019

 ----------------------------------------------------------------------
 #t hf aug-cc-pvdz iop(5/13=1,5/36=2,99/5=2) pseudo=read geom=check gue
 ss=(read,tcheck) scf=(maxcycle=1)
 ----------------------------------------------------------------------
 -----
 title
 -----
 Structure from the checkpoint file:  "BDE49_expt_1456_mol1.chk"
 Charge =  0 Multiplicity = 1

                         Standard orientation:
 ---------------------------------------------------------------------
 Center     Atomic      Atomic             Coordinates (Angstroms)
 Number     Number       Type             X           Y           Z
 ---------------------------------------------------------------------
      1          8           0        0.429048    0.409954    0.122333
      2          6           0       -0.432525   -0.612546   -0.172886
      3          6           0        1.812472    0.226502    0.071932
      4          8           0       -0.079113   -1.717566   -0.491304
      5          6           0       -1.851050   -0.175208   -0.051593
      6          6           0        2.451042   -0.839849    0.698300
      7          6           0        2.537874    1.222588   -0.572945
      8          6           0        3.928107    1.150885   -0.594497
      9          6           0        4.584034    0.088210    0.023075
     10          6           0        3.842221   -0.900948    0.665883
     11          1           0        4.346573   -1.730366    1.148327
     12          1           0        1.873783   -1.610851    1.187901
     13          1           0        4.496028    1.926225   -1.095739
     14          1           0        5.666080    0.030993    0.004363
     15          1           0        2.006253    2.039326   -1.045702
     16          6           0       -2.212319    1.114897    0.353039
     17          6           0       -2.844660   -1.111928   -0.357943
     18          6           0       -4.185997   -0.761985   -0.262057
     19          6           0       -4.543424    0.524267    0.142025
     20          6           0       -3.556622    1.459868    0.449358
     21          1           0       -1.441257    1.835325    0.590085
     22          1           0       -3.835119    2.459034    0.764061
     23          1           0       -2.543734   -2.104760   -0.668104
     24          1           0       -4.952897   -1.489680   -0.501072
     25          1           0       -5.590122    0.797126    0.217503
 ---------------------------------------------------------------------

 SCF Done:  E(RHF) =  -650.895351172     A.U. after    2 cycles

 The electronic state is 1-A.
 Alpha  occ. eigenvalues --  -21.10387 -21.05398 -11.55088 -11.53976 -11.53023
 Alpha  occ. eigenvalues --  -11.46292 -11.44869 -11.44460 -11.43250 -11.42746
 Alpha  occ. eigenvalues --  -11.41984 -11.41340 -11.40803 -11.37855 -11.36978
 Alpha  occ. eigenvalues --   -1.85685  -1.67917  -1.35305  -1.32602  -1.13277
 Alpha  occ. eigenvalues --   -1.10562  -1.09862  -1.07651  -0.93131  -0.88100
 Alpha  occ. eigenvalues --   -0.87643  -0.85481  -0.78451  -0.72910  -0.70195
 Alpha  occ. eigenvalues --   -0.67451  -0.63765  -0.62443  -0.60495  -0.59827
 Alpha  occ. eigenvalues --   -0.59288  -0.58702  -0.55724  -0.55271  -0.52650
 Alpha  occ. eigenvalues --   -0.49491  -0.48733  -0.47423  -0.45815  -0.45499
 Alpha  occ. eigenvalues --   -0.42141  -0.37366  -0.34184  -0.33687  -0.33194
 Alpha  occ. eigenvalues --   -0.30057  -0.29145
 Alpha virt. eigenvalues --    0.02979   0.04606   0.05105   0.05118   0.05490
 Alpha virt. eigenvalues --    0.05576   0.06845   0.07140   0.07504   0.07822
 Alpha virt. eigenvalues --    0.08507   0.09229   0.10007   0.11104   0.11663

 Mulliken charges:
               1
     1  O   -5.632762
     2  C    3.409541
     3  C    6.770415
     4  O   -3.635092
     5  C    3.121904
     6  C   -3.810836
     7  C   -3.273549
     8  C   -0.549415
     9  C   -2.624491
    10  C   -0.510325
    11  H    1.495421
    12  H    1.786289
    13  H    1.512337
    14  H    1.563153
    15  H    1.841260
    16  C   -0.646844
    17  C   -2.728157
    18  C   -1.338975
    19  C   -3.203143
    20  C   -1.795653
    21  H    2.006727
    22  H    1.520794
    23  H    1.709839
    24  H    1.475122
    25  H    1.536440
 Sum of Mulliken charges =  -0.00000

 Dipole moment (field-independent basis, Debye):
    X=             -0.5720    Y=              0.9654    Z=              0.2963  Tot=              1.1606

 Test job not archived.
 1\1\GINC-SE041\SP\RHF\Aug-CC-pVDZ\C13H10O2\OHZDE\08-Apr-2025\0\\#t hf
 aug-cc-pvdz iop(5/13=1,5/36=2,99/5=2) pseudo=read geom=check guess=(re
 ad,tcheck) scf=(maxcycle=1)\\title\\0,1\O,0,-0.429048,-0.409954,0.1223
 33\C,0,0.432525,0.612546,-0.172886\C,0,-1.812472,-0.226502,0.071932\O,
 0,0.079113,1.717566,-0.491304\C,0,1.85105,0.175208,-0.051593\C,0,-2.45
 1042,0.839849,0.6983\C,0,-2.537874,-1.222588,-0.572945\C,0,-3.928107,-
 1.150885,-0.594497\C,0,-4.584034,-0.08821,0.023075\C,0,-3.842221,0.900
 948,0.665883\H,0,-4.346573,1.730366,1.148327\H,0,-1.873783,1.610851,1.

 Normal termination of Gaussian 16 at Tue Apr  8 22:52:28 2025.
