 Gaussian 16, Revision C.01,

 ----------------------------------------------------------------------
 #t hf aug-cc-pvdz symm=none int=(grid=ultrafine) guess=(read,tcheck) s
 table=(opt,rrhf)
 ----------------------------------------------------------------------
 -----
 title
 -----
 Symbolic Z-matrix:
 Charge =  0 Multiplicity = 1

 SCF Done:  E(RHF) =  -951.512366039     A.U. after   17 cycles
 Normal termination of Gaussian 16 at Wed Apr  9 00:48:08 2025.
 Gaussian 16:  ES64L-G16RevC.01  3-Jul-2019

 ----------------------------------------------------------------------
 #t hf aug-cc-pvdz iop(5/13=1,5/36=2,99/5=2) pseudo=read geom=check gue
 ss=(read,tcheck) scf=(maxcycle=1)
 ----------------------------------------------------------------------
 -----
 title
 -----
 Structure from the checkpoint file:  "BDE49_nonexpt_799_mol1.chk"
 Charge =  0 Multiplicity = 1

                         Standard orientation:
 ---------------------------------------------------------------------
 Center     Atomic      Atomic             Coordinates (Angstroms)
 Number     Number       Type             X           Y           Z
 ---------------------------------------------------------------------
      1         14           0        0.006094   -0.129988   -0.298751
      2          5           0       -2.007798   -0.400831   -0.430797
      3          7           0        0.663042   -1.104236    1.157563
      4          7           0        0.258190    1.627436    0.345646
      5          6           0        1.122192   -0.350314   -1.770066
      6          8           0        1.350207    1.958351    0.774170
      7          8           0        0.218303   -0.789533    2.257357
      8          8           0       -2.419517   -1.653981   -0.739620
      9          8           0        1.439512   -2.030180    0.948686
     10          8           0       -2.863334    0.621946   -0.237800
     11          8           0       -0.707478    2.400109    0.245479
     12          6           0        2.623344   -0.065515   -1.579216
     13          1           0        0.703175    0.270510   -2.572596
     14          1           0        0.963565   -1.388744   -2.087207
     15          1           0        2.802003    0.966860   -1.275557
     16          1           0        3.158699   -0.241917   -2.515116
     17          1           0        3.048823   -0.719933   -0.817623
     18          1           0       -2.404479    1.453454   -0.027788
     19          1           0       -3.381497   -1.737372   -0.780559
 ---------------------------------------------------------------------

 SCF Done:  E(RHF) =  -954.456134814     A.U. after    2 cycles

 The electronic state is 1-A.
 Alpha  occ. eigenvalues --  -76.31237 -21.12782 -21.11579 -21.11366 -21.11166
 Alpha  occ. eigenvalues --  -21.09647 -21.08427 -15.98858 -15.98196 -11.43698
 Alpha  occ. eigenvalues --  -11.38900  -7.69130  -5.65319  -2.29737  -2.29434
 Alpha  occ. eigenvalues --   -2.28484  -2.00000  -1.99020  -1.84288  -1.71032
 Alpha  occ. eigenvalues --   -1.69915  -1.69251  -1.19276  -1.06434  -0.98030
 Alpha  occ. eigenvalues --   -0.92839  -0.80590  -0.76633  -0.71785  -0.68304
 Alpha  occ. eigenvalues --   -0.67690  -0.66018  -0.64454  -0.62935  -0.61998
 Alpha  occ. eigenvalues --   -0.61305  -0.60359  -0.54395  -0.52479  -0.52436
 Alpha  occ. eigenvalues --   -0.50920  -0.46336  -0.39531  -0.39065  -0.35671
 Alpha  occ. eigenvalues --   -0.34203  -0.33936  -0.33099  -0.32403  -0.32024
 Alpha virt. eigenvalues --    0.02632   0.03341   0.04488   0.04890   0.06091
 Alpha virt. eigenvalues --    0.06597   0.06839   0.07460   0.07738   0.08333
 Alpha virt. eigenvalues --    0.08604   0.08734   0.09536   0.09824   0.10199

 Mulliken charges:
               1
     1  Si   4.289409
     2  B    6.865251
     3  N    3.395477
     4  N    2.498275
     5  C   -4.846749
     6  O   -2.276625
     7  O   -2.444662
     8  O   -4.125125
     9  O   -2.262627
    10  O   -4.516671
    11  O   -2.149310
    12  C   -3.961446
    13  H    1.268309
    14  H    1.407717
    15  H    1.345143
    16  H    1.085828
    17  H    1.398072
    18  H    1.791869
    19  H    1.237866
 Sum of Mulliken charges =   0.00000

 Dipole moment (field-independent basis, Debye):
    X=             -0.5529    Y=             -0.4269    Z=             -3.0209  Tot=              3.1006

 Test job not archived.
 1\1\GINC-SE461\SP\RHF\Aug-CC-pVDZ\C2H7B1N2O6Si1\OHZDE\09-Apr-2025\0\\#
 t hf aug-cc-pvdz iop(5/13=1,5/36=2,99/5=2) pseudo=read geom=check gues
 s=(read,tcheck) scf=(maxcycle=1)\\title\\0,1\Si,0,0.006094,-0.129988,-
 0.298751\B,0,-2.007798,-0.400831,-0.430797\N,0,0.663042,-1.104236,1.15
 7563\N,0,0.25819,1.627436,0.345646\C,0,1.122192,-0.350314,-1.770066\O,
 0,1.350207,1.958351,0.77417\O,0,0.218303,-0.789533,2.257357\O,0,-2.419
 517,-1.653981,-0.73962\O,0,1.439511,-2.03018,0.948686\O,0,-2.863334,0.
 621946,-0.2378\O,0,-0.707478,2.400109,0.245479\C,0,2.623344,-0.065516,

 Normal termination of Gaussian 16 at Wed Apr  9 00:48:19 2025.
