 Gaussian 16, Revision C.01,

 ----------------------------------------------------------------------
 #t hf aug-cc-pvdz symm=none int=(grid=ultrafine) guess=(read,tcheck) s
 table=(opt,rrhf)
 ----------------------------------------------------------------------
 -----
 title
 -----
 Symbolic Z-matrix:
 Charge =  0 Multiplicity = 1

 SCF Done:  E(RHF) =  -572.887180690     A.U. after   14 cycles
 Normal termination of Gaussian 16 at Wed Apr  9 00:08:45 2025.
 Gaussian 16:  ES64L-G16RevC.01  3-Jul-2019

 ----------------------------------------------------------------------
 #t hf aug-cc-pvdz iop(5/13=1,5/36=2,99/5=2) pseudo=read geom=check gue
 ss=(read,tcheck) scf=(maxcycle=1)
 ----------------------------------------------------------------------
 -----
 title
 -----
 Structure from the checkpoint file:  "BDE49_nonexpt_2282_mol1.chk"
 Charge =  0 Multiplicity = 1

                         Standard orientation:
 ---------------------------------------------------------------------
 Center     Atomic      Atomic             Coordinates (Angstroms)
 Number     Number       Type             X           Y           Z
 ---------------------------------------------------------------------
      1          6           0        2.534727   -0.812066    0.343404
      2          6           0        1.919453    0.396972   -0.384388
      3          1           0        1.975387   -1.725823    0.130690
      4          1           0        2.535385   -0.668542    1.427656
      5          1           0        3.570168   -0.973910    0.032280
      6         14           0        0.149383    0.773398    0.080713
      7          1           0        2.504369    1.303383   -0.182297
      8          1           0        1.959009    0.250115   -1.469501
      9          8           0       -0.706071   -0.654950   -0.371563
     10          7           0       -2.082807   -0.784867   -0.174645
     11          8           0       -2.590215    0.163154    0.314077
     12          1           0       -0.394349    1.921073   -0.674859
     13          1           0       -0.016470    0.985143    1.534355
 ---------------------------------------------------------------------

 SCF Done:  E(RHF) =  -574.294082876     A.U. after    2 cycles

 The electronic state is 1-A.
 Alpha  occ. eigenvalues --  -76.24423 -21.14945 -21.08969 -15.93855 -11.40253
 Alpha  occ. eigenvalues --  -11.35664  -5.58113  -2.23900  -2.21640  -2.19989
 Alpha  occ. eigenvalues --   -1.96497  -1.68890  -1.15982  -0.97022  -0.90033
 Alpha  occ. eigenvalues --   -0.72282  -0.66785  -0.62435  -0.61642  -0.60331
 Alpha  occ. eigenvalues --   -0.58217  -0.51722  -0.49900  -0.47940  -0.40825
 Alpha  occ. eigenvalues --   -0.39296  -0.37211  -0.30835
 Alpha virt. eigenvalues --    0.03570   0.05247   0.05785   0.05866   0.06412
 Alpha virt. eigenvalues --    0.07297   0.07667   0.07895   0.09580   0.10147
 Alpha virt. eigenvalues --    0.11945   0.12867   0.13523   0.14069   0.14808

 Mulliken charges:
               1
     1  C   -3.468115
     2  C   -4.073514
     3  H    1.312446
     4  H    1.297413
     5  H    1.151527
     6  Si   6.248997
     7  H    1.339156
     8  H    1.450966
     9  O   -1.935449
    10  N    2.167097
    11  O   -1.663626
    12  H   -1.933945
    13  H   -1.892952
 Sum of Mulliken charges =  -0.00000

 Dipole moment (field-independent basis, Debye):
    X=              1.8236    Y=              0.6748    Z=             -0.0244  Tot=              1.9446

 Test job not archived.
 1\1\GINC-SE403\SP\RHF\Aug-CC-pVDZ\C2H7N1O2Si1\OHZDE\09-Apr-2025\0\\#t
 hf aug-cc-pvdz iop(5/13=1,5/36=2,99/5=2) pseudo=read geom=check guess=
 (read,tcheck) scf=(maxcycle=1)\\title\\0,1\C,0,2.534727,-0.812066,0.34
 3404\C,0,1.919453,0.396972,-0.384388\H,0,1.975387,-1.725823,0.13069\H,
 0,2.535385,-0.668542,1.427656\H,0,3.570168,-0.97391,0.03228\Si,0,0.149
 383,0.773398,0.080713\H,0,2.504369,1.303383,-0.182297\H,0,1.959009,0.2
 50115,-1.469501\O,0,-0.706071,-0.65495,-0.371563\N,0,-2.082807,-0.7848
 67,-0.174645\O,0,-2.590215,0.163154,0.314077\H,0,-0.394349,1.921073,-0

 Normal termination of Gaussian 16 at Wed Apr  9 00:08:49 2025.
