 Gaussian 16, Revision C.01,

 ----------------------------------------------------------------------
 #t hf aug-cc-pvdz symm=none int=(grid=ultrafine) guess=(read,tcheck) s
 table=(opt,rrhf)
 ----------------------------------------------------------------------
 -----
 title
 -----
 Symbolic Z-matrix:
 Charge =  0 Multiplicity = 1

 SCF Done:  E(RHF) =  -585.087994248     A.U. after   16 cycles
 Normal termination of Gaussian 16 at Tue Apr  8 22:45:48 2025.
 Gaussian 16:  ES64L-G16RevC.01  3-Jul-2019

 ----------------------------------------------------------------------
 #t hf aug-cc-pvdz iop(5/13=1,5/36=2,99/5=2) pseudo=read geom=check gue
 ss=(read,tcheck) scf=(maxcycle=1)
 ----------------------------------------------------------------------
 -----
 title
 -----
 Structure from the checkpoint file:  "BDE49_expt_1532_mol1.chk"
 Charge =  0 Multiplicity = 1

                         Standard orientation:
 ---------------------------------------------------------------------
 Center     Atomic      Atomic             Coordinates (Angstroms)
 Number     Number       Type             X           Y           Z
 ---------------------------------------------------------------------
      1          6           0       -0.128723    1.806853   -0.539538
      2          6           0        0.005611    0.520633    0.218692
      3          7           0        1.210244   -0.308146   -0.304032
      4          7           0       -1.214389   -0.432865    0.047307
      5          8           0       -2.128673   -0.040302   -0.646760
      6          8           0       -1.137105   -1.477362    0.657377
      7          8           0        2.143397   -0.456578    0.446501
      8          8           0        1.093472   -0.699351   -1.450239
      9          9           0        0.163996    0.694901    1.534577
     10          1           0       -0.244854    1.605992   -1.601998
     11          1           0        0.769253    2.403087   -0.367128
     12          1           0       -1.001406    2.347717   -0.174952
 ---------------------------------------------------------------------

 SCF Done:  E(RHF) =  -587.501675046     A.U. after    2 cycles

 The electronic state is 1-A.
 Alpha  occ. eigenvalues --  -29.35920 -21.14650 -21.14309 -21.13959 -21.13639
 Alpha  occ. eigenvalues --  -16.04069 -16.03998 -11.63343 -11.44943  -2.05475
 Alpha  occ. eigenvalues --   -2.03144  -1.74559  -1.74209  -1.39528  -1.10958
 Alpha  occ. eigenvalues --   -1.04343  -0.95700  -0.79124  -0.78215  -0.74530
 Alpha  occ. eigenvalues --   -0.69817  -0.65768  -0.64926  -0.61814  -0.61640
 Alpha  occ. eigenvalues --   -0.60998  -0.48527  -0.44325  -0.40162  -0.36871
 Alpha  occ. eigenvalues --   -0.36578  -0.35443  -0.34660  -0.31248  -0.30980
 Alpha virt. eigenvalues --    0.03492   0.05085   0.05795   0.08592   0.09689
 Alpha virt. eigenvalues --    0.10212   0.10990   0.12182   0.13297   0.13945
 Alpha virt. eigenvalues --    0.14565   0.15355   0.16354   0.16925   0.17242

 Mulliken charges:
               1
     1  C   -3.140884
     2  C    2.033674
     3  N    4.155588
     4  N    4.182175
     5  O   -2.824239
     6  O   -3.020375
     7  O   -2.832312
     8  O   -3.068119
     9  F    0.868436
    10  H    1.284527
    11  H    1.187664
    12  H    1.173866
 Sum of Mulliken charges =   0.00000

 Dipole moment (field-independent basis, Debye):
    X=              0.3533    Y=              2.6361    Z=              2.4575  Tot=              3.6212

 Test job not archived.
 1\1\GINC-SE361\SP\RHF\Aug-CC-pVDZ\C2H3F1N2O4\OHZDE\08-Apr-2025\0\\#t h
 f aug-cc-pvdz iop(5/13=1,5/36=2,99/5=2) pseudo=read geom=check guess=(
 read,tcheck) scf=(maxcycle=1)\\title\\0,1\C,0,-0.128722,1.806853,-0.53
 9538\C,0,0.005611,0.520633,0.218692\N,0,1.210244,-0.308146,-0.304032\N
 ,0,-1.214389,-0.432865,0.047307\O,0,-2.128673,-0.040301,-0.64676\O,0,-
 1.137105,-1.477362,0.657377\O,0,2.143397,-0.456579,0.446501\O,0,1.0934
 72,-0.699351,-1.450239\F,0,0.163996,0.694901,1.534577\H,0,-0.244853,1.
 605992,-1.601998\H,0,0.769254,2.403087,-0.367128\H,0,-1.001405,2.34771

 Normal termination of Gaussian 16 at Tue Apr  8 22:45:53 2025.
