 Gaussian 16, Revision C.01,

 ----------------------------------------------------------------------
 #t hf aug-cc-pvdz symm=none int=(grid=ultrafine) guess=(read,tcheck) s
 table=opt
 ----------------------------------------------------------------------
 -----
 title
 -----
 Symbolic Z-matrix:
 Charge =  0 Multiplicity = 2

 SCF Done:  E(UHF) =  -291.342846958     A.U. after   20 cycles
 Normal termination of Gaussian 16 at Wed Apr  9 00:33:18 2025.
 Gaussian 16:  ES64L-G16RevC.01  3-Jul-2019

 ----------------------------------------------------------------------
 #t hf aug-cc-pvdz iop(5/13=1,5/36=2,99/5=2) pseudo=read geom=check gue
 ss=(read,tcheck) scf=(maxcycle=1)
 ----------------------------------------------------------------------
 -----
 title
 -----
 Structure from the checkpoint file:  "BDE49_nonexpt_409_mol2.chk"
 Charge =  0 Multiplicity = 2

                         Standard orientation:
 ---------------------------------------------------------------------
 Center     Atomic      Atomic             Coordinates (Angstroms)
 Number     Number       Type             X           Y           Z
 ---------------------------------------------------------------------
      1          9           0       -2.206798   -0.225292    0.000000
      2          5           0       -0.953196   -0.581543    0.000000
      3          6           0        1.277408    0.194003   -0.000000
      4          7           0        2.423244    0.060125   -0.000000
      5          8           0       -0.000000    0.418806    0.000000
 ---------------------------------------------------------------------

 SCF Done:  E(UHF) =  -292.439185623     A.U. after    2 cycles

 The electronic state is 2-A'.
 Alpha  occ. eigenvalues --  -29.30503 -21.17481 -15.78074 -11.51030  -7.77169
 Alpha  occ. eigenvalues --   -1.91707  -1.31456  -1.03679  -0.76498  -0.69300
 Alpha  occ. eigenvalues --   -0.63331  -0.55589  -0.53520  -0.48671  -0.46288
 Alpha  occ. eigenvalues --   -0.42322  -0.38953  -0.28551
 Alpha virt. eigenvalues --    0.03319   0.03507   0.04847   0.07093   0.11714
 Alpha virt. eigenvalues --    0.11998   0.12442   0.12725   0.13408   0.17117
 Alpha virt. eigenvalues --    0.18130   0.18248   0.19683   0.20065   0.22245

  Beta  occ. eigenvalues --  -29.30219 -21.17185 -15.78163 -11.50970  -7.74858
  Beta  occ. eigenvalues --   -1.90814  -1.31528  -1.00954  -0.75063  -0.66466
  Beta  occ. eigenvalues --   -0.62958  -0.54811  -0.48003  -0.47571  -0.44819
  Beta  occ. eigenvalues --   -0.40064  -0.39239
  Beta virt. eigenvalues --    0.01129   0.03525   0.03715   0.06341   0.08901
  Beta virt. eigenvalues --    0.12656   0.12766   0.13216   0.14933   0.15353
  Beta virt. eigenvalues --    0.17745   0.18479   0.19167   0.19858   0.20437

 Mulliken charges and spin densities:
               1          2
     1  F   -0.612168  -0.142225
     2  B    1.290538   1.235061
     3  C    4.268913   0.092340
     4  N   -2.446740  -0.025564
     5  O   -2.500543  -0.159611
 Sum of Mulliken charges =   0.00000   1.00000

 Dipole moment (field-independent basis, Debye):
    X=             -6.0513    Y=              0.7348    Z=              0.0000  Tot=              6.0958
                          Isotropic Fermi Contact Couplings
        Atom                 a.u.       MegaHertz       Gauss      10(-4) cm-1
     1  F(19)              0.10883     457.88155     163.38352     152.73285
     2  B(11)              0.31628     453.65752     161.87629     151.32386
     3  C(13)              0.00627       7.04829       2.51500       2.35106
     4  N(14)             -0.00490      -1.58421      -0.56529      -0.52844
     5  O(17)              0.09964     -60.40218     -21.55300     -20.14800
 --------------------------------------------------------
       Center         ----  Spin Dipole Couplings  ----
                      3XX-RR        3YY-RR        3ZZ-RR

 Normal termination of Gaussian 16 at Wed Apr  9 00:33:20 2025.
