 Gaussian 16, Revision C.01,

 ----------------------------------------------------------------------
 #t hf aug-cc-pvdz symm=none int=(grid=ultrafine) guess=(read,tcheck) s
 table=(opt,rrhf)
 ----------------------------------------------------------------------
 -----
 title
 -----
 Symbolic Z-matrix:
 Charge =  0 Multiplicity = 1

 SCF Done:  E(RHF) =  -680.272104108     A.U. after   11 cycles

 1\1\GINC-SE402\Stability\RHF\Aug-CC-pVDZ\F1H5Si2\OHZDE\08-Apr-2025\0\\
 #t hf aug-cc-pvdz symm=none int=(grid=ultrafine) guess=(read,tcheck) s
 table=(opt,rrhf)\\title\\0,1\Si,0,0.772746,-1.329421,0.\Si,0,0.,0.8979
 13,0.\F,0,-1.619883,0.909775,0.\H,0,0.451584,1.629578,1.205819\H,0,0.4
 51584,1.629578,-1.205819\H,0,0.300356,-2.047022,1.207449\H,0,2.256611,
 -1.311982,0.\H,0,0.300356,-2.047022,-1.207449\\Version=ES64L-G16RevC.0
 1\HF=-680.2721041\RMSD=1.939e-09\Dipole=0.6043679,-0.0985486,0.\Quadru
 pole=-1.5377832,0.6067345,0.9310487,1.1814444,0.,0.\PG=Unknown\\@

 Normal termination of Gaussian 16 at Tue Apr  8 23:57:20 2025.
 Gaussian 16:  ES64L-G16RevC.01  3-Jul-2019

 ----------------------------------------------------------------------
 #t hf aug-cc-pvdz iop(5/13=1,5/36=2,99/5=2) pseudo=read geom=check gue
 ss=(read,tcheck) scf=(maxcycle=1)
 ----------------------------------------------------------------------
 -----
 title
 -----
 Structure from the checkpoint file:  "BDE49_nonexpt_2020_mol1.chk"
 Charge =  0 Multiplicity = 1

                         Standard orientation:
 ---------------------------------------------------------------------
 Center     Atomic      Atomic             Coordinates (Angstroms)
 Number     Number       Type             X           Y           Z
 ---------------------------------------------------------------------
      1         14           0        0.772747   -1.329421    0.000000
      2         14           0        0.000000    0.897913    0.000000
      3          9           0       -1.619883    0.909775    0.000000
      4          1           0        0.451584    1.629578    1.205819
      5          1           0        0.451584    1.629578   -1.205819
      6          1           0        0.300357   -2.047022    1.207449
      7          1           0        2.256612   -1.311981    0.000000
      8          1           0        0.300357   -2.047022   -1.207449
 ---------------------------------------------------------------------

 SCF Done:  E(RHF) =  -680.941036579     A.U. after    2 cycles

 The electronic state is 1-A'.
 Alpha  occ. eigenvalues --  -76.25753 -76.22524 -29.26331  -5.59942  -5.55997
 Alpha  occ. eigenvalues --   -2.24478  -2.20867  -2.19991  -2.18053  -2.18048
 Alpha  occ. eigenvalues --   -2.16968  -0.88518  -0.76646  -0.59220  -0.51622
 Alpha  occ. eigenvalues --   -0.48183  -0.47693  -0.42003  -0.33279  -0.32402
 Alpha  occ. eigenvalues --   -0.28757
 Alpha virt. eigenvalues --    0.04156   0.04770   0.06347   0.07158   0.07685
 Alpha virt. eigenvalues --    0.07972   0.08010   0.09421   0.09564   0.09845
 Alpha virt. eigenvalues --    0.10173   0.12730   0.13588   0.15747   0.16975

 Mulliken charges:
               1
     1  Si   4.443752
     2  Si   4.295251
     3  F   -0.984875
     4  H   -1.657101
     5  H   -1.657101
     6  H   -1.475317
     7  H   -1.489292
     8  H   -1.475317
 Sum of Mulliken charges =  -0.00000

 Dipole moment (field-independent basis, Debye):
    X=             -2.3997    Y=             -0.0095    Z=              0.0000  Tot=              2.3998

 Test job not archived.
 1\1\GINC-SE402\SP\RHF\Aug-CC-pVDZ\F1H5Si2\OHZDE\08-Apr-2025\0\\#t hf a
 ug-cc-pvdz iop(5/13=1,5/36=2,99/5=2) pseudo=read geom=check guess=(rea
 d,tcheck) scf=(maxcycle=1)\\title\\0,1\Si,0,0.772746,-1.329421,0.\Si,0
 ,0.,0.897913,0.\F,0,-1.619883,0.909775,0.\H,0,0.451584,1.629578,1.2058
 19\H,0,0.451584,1.629578,-1.205819\H,0,0.300356,-2.047022,1.207449\H,0
 ,2.256611,-1.311982,0.\H,0,0.300356,-2.047022,-1.207449\\Version=ES64L
 -G16RevC.01\State=1-A'\HF=-680.9410366\RMSD=1.104e-01\Dipole=-0.944131
 4,-0.0037312,0.\Quadrupole=1.8079288,-1.2304214,-0.5775074,-0.9570947,

 Normal termination of Gaussian 16 at Tue Apr  8 23:57:21 2025.
