 Gaussian 16, Revision C.01,

 ----------------------------------------------------------------------
 #t hf aug-cc-pvdz symm=none int=(grid=ultrafine) guess=(read,tcheck) s
 table=(opt,rrhf)
 ----------------------------------------------------------------------
 -----
 title
 -----
 Symbolic Z-matrix:
 Charge =  0 Multiplicity = 1

 SCF Done:  E(RHF) =  -1187.60846223     A.U. after   15 cycles

 1\1\GINC-SE227\Stability\RHF\Aug-CC-pVDZ\C7H6Cl2\OHZDE\08-Apr-2025\0\\
 #t hf aug-cc-pvdz symm=none int=(grid=ultrafine) guess=(read,tcheck) s
 table=(opt,rrhf)\\title\\0,1\C,0,-0.839425,0.000008,-1.087263\C,0,-2.2
 06482,0.00001,-1.331266\C,0,-3.11072,0.000002,-0.267525\C,0,-2.641094,
 -0.000008,1.041814\C,0,-1.269397,-0.000009,1.289322\C,0,-0.363737,-0.0
 00001,0.22754\H,0,-0.137046,0.000015,-1.912311\H,0,-2.570193,0.000017,
 -2.352243\C,0,1.103677,-0.000003,0.534127\H,0,-0.905015,-0.000016,2.31
 1123\Cl,0,1.93528,1.480166,-0.1029\Cl,0,1.935279,-1.480166,-0.102916\H

 Normal termination of Gaussian 16 at Tue Apr  8 22:51:29 2025.
 Gaussian 16:  ES64L-G16RevC.01  3-Jul-2019

 ----------------------------------------------------------------------
 #t hf aug-cc-pvdz iop(5/13=1,5/36=2,99/5=2) pseudo=read geom=check gue
 ss=(read,tcheck) scf=(maxcycle=1)
 ----------------------------------------------------------------------
 -----
 title
 -----
 Structure from the checkpoint file:  "BDE49_expt_1698_mol1.chk"
 Charge =  0 Multiplicity = 1

                         Standard orientation:
 ---------------------------------------------------------------------
 Center     Atomic      Atomic             Coordinates (Angstroms)
 Number     Number       Type             X           Y           Z
 ---------------------------------------------------------------------
      1          6           0       -0.839425    0.000008   -1.087263
      2          6           0       -2.206482    0.000010   -1.331266
      3          6           0       -3.110720    0.000002   -0.267525
      4          6           0       -2.641094   -0.000008    1.041814
      5          6           0       -1.269397   -0.000009    1.289322
      6          6           0       -0.363737   -0.000001    0.227540
      7          1           0       -0.137046    0.000015   -1.912311
      8          1           0       -2.570193    0.000017   -2.352243
      9          6           0        1.103677   -0.000003    0.534127
     10          1           0       -0.905015   -0.000016    2.311123
     11         17           0        1.935280    1.480166   -0.102900
     12         17           0        1.935279   -1.480166   -0.102916
     13          1           0        1.290697   -0.000009    1.602039
     14          1           0       -3.337832   -0.000014    1.871979
     15          1           0       -4.177050    0.000003   -0.462214
 ---------------------------------------------------------------------

 SCF Done:  E(RHF) =  -1189.39606007     A.U. after    2 cycles

 The electronic state is 1-A.
 Alpha  occ. eigenvalues --  -99.89592 -99.89589 -11.53332 -11.51612 -11.45041
 Alpha  occ. eigenvalues --  -11.44724 -11.42460 -11.41965 -11.37779 -10.46919
 Alpha  occ. eigenvalues --  -10.46775  -9.66818  -9.66787  -9.66113  -9.66041
 Alpha  occ. eigenvalues --   -9.65963  -9.65951  -1.42506  -1.32469  -1.27885
 Alpha  occ. eigenvalues --   -1.13481  -1.10846  -0.98669  -0.88287  -0.85328
 Alpha  occ. eigenvalues --   -0.73290  -0.69390  -0.67223  -0.65111  -0.61502
 Alpha  occ. eigenvalues --   -0.59554  -0.56992  -0.53124  -0.52178  -0.50369
 Alpha  occ. eigenvalues --   -0.49047  -0.48871  -0.45781  -0.45038  -0.34545
 Alpha  occ. eigenvalues --   -0.34112
 Alpha virt. eigenvalues --    0.03026   0.03939   0.04739   0.05152   0.05982
 Alpha virt. eigenvalues --    0.06847   0.06970   0.07572   0.09544   0.09962
 Alpha virt. eigenvalues --    0.10510   0.11121   0.12898   0.13020   0.13362

 Mulliken charges:
               1
     1  C   -2.232646
     2  C   -0.390721
     3  C   -2.788417
     4  C   -1.587963
     5  C   -3.346983
     6  C    5.843089
     7  H    1.728405
     8  H    1.500619
     9  C   -5.393468
    10  H    1.753232
    11  Cl   0.200379
    12  Cl   0.200380
    13  H    1.501556
    14  H    1.474883
    15  H    1.537656
 Sum of Mulliken charges =  -0.00000

 Dipole moment (field-independent basis, Debye):
    X=             -2.8883    Y=             -0.0000    Z=              0.8309  Tot=              3.0055

 Test job not archived.
 1\1\GINC-SE227\SP\RHF\Aug-CC-pVDZ\C7H6Cl2\OHZDE\08-Apr-2025\0\\#t hf a
 ug-cc-pvdz iop(5/13=1,5/36=2,99/5=2) pseudo=read geom=check guess=(rea
 d,tcheck) scf=(maxcycle=1)\\title\\0,1\C,0,-0.839425,0.000008,-1.08726
 3\C,0,-2.206482,0.00001,-1.331266\C,0,-3.11072,0.000002,-0.267525\C,0,
 -2.641094,-0.000008,1.041814\C,0,-1.269397,-0.000009,1.289322\C,0,-0.3
 63737,-0.000001,0.22754\H,0,-0.137046,0.000015,-1.912311\H,0,-2.570193
 ,0.000017,-2.352243\C,0,1.103677,-0.000003,0.534127\H,0,-0.905015,-0.0
 00016,2.311123\Cl,0,1.93528,1.480166,-0.1029\Cl,0,1.935279,-1.480166,-

 Normal termination of Gaussian 16 at Tue Apr  8 22:51:36 2025.
