 Gaussian 16, Revision C.01,

 ----------------------------------------------------------------------
 #t hf aug-cc-pvdz symm=none int=(grid=ultrafine) guess=(read,tcheck) s
 table=(opt,rrhf)
 ----------------------------------------------------------------------
 -----
 title
 -----
 Symbolic Z-matrix:
 Charge =  0 Multiplicity = 1

 SCF Done:  E(RHF) =  -1326.60527755     A.U. after   18 cycles
 Normal termination of Gaussian 16 at Wed Apr  9 00:19:10 2025.
 Gaussian 16:  ES64L-G16RevC.01  3-Jul-2019

 ----------------------------------------------------------------------
 #t hf aug-cc-pvdz iop(5/13=1,5/36=2,99/5=2) pseudo=read geom=check gue
 ss=(read,tcheck) scf=(maxcycle=1)
 ----------------------------------------------------------------------
 -----
 title
 -----
 Structure from the checkpoint file:  "BDE49_nonexpt_250_mol1.chk"
 Charge =  0 Multiplicity = 1

                         Standard orientation:
 ---------------------------------------------------------------------
 Center     Atomic      Atomic             Coordinates (Angstroms)
 Number     Number       Type             X           Y           Z
 ---------------------------------------------------------------------
      1         17           0        2.100427   -1.784686    0.737386
      2         17           0        3.266909    0.598868   -0.648964
      3          6           0        0.449585    0.529615    0.000838
      4          5           0        1.818229   -0.193464    0.007841
      5          6           0       -0.844382   -0.109049   -0.075685
      6          6           0       -1.025311   -1.490108   -0.350535
      7          1           0       -0.162799   -2.120408   -0.508964
      8          6           0       -2.280030   -2.047703   -0.432117
      9          1           0       -2.381946   -3.105826   -0.645218
     10          6           0       -3.434807   -1.258821   -0.247575
     11          1           0       -4.416984   -1.712850   -0.311179
     12          6           0       -3.304706    0.084584   -0.001265
     13          1           0       -4.182562    0.709297    0.125809
     14          6           0       -2.024550    0.691192    0.080552
     15          6           0       -1.901561    2.086734    0.299003
     16          1           0       -2.805133    2.674292    0.425369
     17          6           0       -0.669506    2.688171    0.334857
     18          1           0       -0.581809    3.757149    0.489871
     19          6           0        0.492354    1.911119    0.171308
     20          1           0        1.452854    2.410169    0.205629
 ---------------------------------------------------------------------

 SCF Done:  E(RHF) =  -1329.02567584     A.U. after    2 cycles

 The electronic state is 1-A.
 Alpha  occ. eigenvalues --  -99.89466 -99.89304 -11.53511 -11.50196 -11.46362
 Alpha  occ. eigenvalues --  -11.44927 -11.44025 -11.42990 -11.42238 -11.42008
 Alpha  occ. eigenvalues --  -11.40061 -11.37303 -10.46846 -10.46527  -9.66825
 Alpha  occ. eigenvalues --   -9.66570  -9.66408  -9.66216  -9.66175  -9.66021
 Alpha  occ. eigenvalues --   -7.74900  -1.42790  -1.36993  -1.29093  -1.24778
 Alpha  occ. eigenvalues --   -1.15712  -1.09175  -1.06246  -0.91834  -0.88569
 Alpha  occ. eigenvalues --   -0.87375  -0.79010  -0.73512  -0.70652  -0.68554
 Alpha  occ. eigenvalues --   -0.64953  -0.63152  -0.59716  -0.58191  -0.56995
 Alpha  occ. eigenvalues --   -0.55482  -0.54453  -0.54032  -0.52484  -0.51330
 Alpha  occ. eigenvalues --   -0.49421  -0.47994  -0.45559  -0.42968  -0.41123
 Alpha  occ. eigenvalues --   -0.39476  -0.32454  -0.29126
 Alpha virt. eigenvalues --    0.02804   0.03946   0.04037   0.04287   0.05208
 Alpha virt. eigenvalues --    0.05413   0.05680   0.06520   0.06747   0.07420
 Alpha virt. eigenvalues --    0.09300   0.09886   0.10280   0.10541   0.11140

 Mulliken charges:
               1
     1  Cl  -1.443045
     2  Cl  -1.587177
     3  C   -1.385569
     4  B    1.568630
     5  C    6.472894
     6  C   -1.487662
     7  H    1.741380
     8  C   -4.417298
     9  H    1.509087
    10  C   -3.787518
    11  H    1.518749
    12  C   -3.350690
    13  H    1.721432
    14  C    5.937345
    15  C   -3.476617
    16  H    1.752650
    17  C   -2.268018
    18  H    1.580466
    19  C   -2.460170
    20  H    1.861131
 Sum of Mulliken charges =   0.00000

 Dipole moment (field-independent basis, Debye):
    X=             -2.8374    Y=              1.2017    Z=              0.0407  Tot=              3.0816

 Test job not archived.
 1\1\GINC-SE366\SP\RHF\Aug-CC-pVDZ\C10H7B1Cl2\OHZDE\09-Apr-2025\0\\#t h
 f aug-cc-pvdz iop(5/13=1,5/36=2,99/5=2) pseudo=read geom=check guess=(
 read,tcheck) scf=(maxcycle=1)\\title\\0,1\Cl,0,2.100427,-1.784686,0.73
 7386\Cl,0,3.266909,0.598868,-0.648964\C,0,0.449585,0.529615,0.000838\B
 ,0,1.818229,-0.193464,0.007841\C,0,-0.844382,-0.109049,-0.075685\C,0,-
 1.025311,-1.490108,-0.350535\H,0,-0.162799,-2.120408,-0.508964\C,0,-2.
 28003,-2.047703,-0.432117\H,0,-2.381946,-3.105826,-0.645218\C,0,-3.434
 807,-1.258821,-0.247575\H,0,-4.416984,-1.71285,-0.311179\C,0,-3.304706

 Normal termination of Gaussian 16 at Wed Apr  9 00:19:24 2025.
