 Gaussian 16, Revision C.01,

 ----------------------------------------------------------------------
 #t hf aug-cc-pvdz symm=none int=(grid=ultrafine) guess=(read,tcheck) s
 table=(opt,rrhf)
 ----------------------------------------------------------------------
 -----
 title
 -----
 Symbolic Z-matrix:
 Charge =  0 Multiplicity = 1

 SCF Done:  E(RHF) =  -933.287087668     A.U. after   15 cycles
 Normal termination of Gaussian 16 at Tue Apr  8 23:27:17 2025.
 Gaussian 16:  ES64L-G16RevC.01  3-Jul-2019

 ----------------------------------------------------------------------
 #t hf aug-cc-pvdz iop(5/13=1,5/36=2,99/5=2) pseudo=read geom=check gue
 ss=(read,tcheck) scf=(maxcycle=1)
 ----------------------------------------------------------------------
 -----
 title
 -----
 Structure from the checkpoint file:  "BDE49_nonexpt_1204_mol1.chk"
 Charge =  0 Multiplicity = 1

                         Standard orientation:
 ---------------------------------------------------------------------
 Center     Atomic      Atomic             Coordinates (Angstroms)
 Number     Number       Type             X           Y           Z
 ---------------------------------------------------------------------
      1          8           0        0.790335   -1.565588   -0.120472
      2         16           0       -0.853917   -1.679777    0.266310
      3          6           0       -1.494117   -0.329488   -0.739485
      4          6           0        1.521856   -0.536949    0.454804
      5          8           0        1.071035    0.242358    1.239918
      6          8           0       -0.780548    0.380356   -1.392880
      7          6           0       -3.415213    1.220956   -0.198945
      8          6           0        3.740617    0.676437    0.218508
      9          6           0        2.946321   -0.605687   -0.050624
     10          6           0       -3.000907   -0.199640   -0.625886
     11          1           0        3.409324   -1.466332    0.446282
     12          1           0        2.918330   -0.849955   -1.115939
     13          1           0       -3.396424   -0.946096    0.073212
     14          1           0       -3.409635   -0.431237   -1.615282
     15          6           0        3.293276    1.859458   -0.645061
     16          1           0        4.798960    0.464885    0.035875
     17          1           0        3.646457    0.933818    1.276935
     18          1           0        3.415029    1.638822   -1.710111
     19          1           0        3.884160    2.750982   -0.420001
     20          1           0        2.242872    2.101225   -0.469736
     21          6           0       -2.987277    1.577722    1.227289
     22          1           0       -4.502131    1.302426   -0.295977
     23          1           0       -2.978376    1.927978   -0.909258
     24          1           0       -3.434004    0.895953    1.957753
     25          1           0       -3.304023    2.591763    1.482974
     26          1           0       -1.901777    1.528334    1.346185
 ---------------------------------------------------------------------

 SCF Done:  E(RHF) =  -935.980682701     A.U. after    2 cycles

 The electronic state is 1-A.
 Alpha  occ. eigenvalues --  -75.75226 -21.10901 -21.07191 -21.05989 -13.24621
 Alpha  occ. eigenvalues --  -13.16770 -13.10948 -11.54234 -11.51924 -11.43930
 Alpha  occ. eigenvalues --  -11.43171 -11.40444 -11.39377 -11.36251 -11.35310
 Alpha  occ. eigenvalues --   -8.09036  -1.84474  -1.73086  -1.67756  -1.24773
 Alpha  occ. eigenvalues --   -1.22443  -1.13782  -1.04818  -1.01874  -0.88838
 Alpha  occ. eigenvalues --   -0.86789  -0.77299  -0.72606  -0.67801  -0.65442
 Alpha  occ. eigenvalues --   -0.64075  -0.63536  -0.59284  -0.58641  -0.57510
 Alpha  occ. eigenvalues --   -0.56968  -0.54000  -0.52403  -0.51089  -0.48492
 Alpha  occ. eigenvalues --   -0.48416  -0.47778  -0.46861  -0.46076  -0.44677
 Alpha  occ. eigenvalues --   -0.43703  -0.40194  -0.35901  -0.30553  -0.26894
 Alpha  occ. eigenvalues --   -0.25955
 Alpha virt. eigenvalues --    0.03571   0.04576   0.04801   0.05244   0.05482
 Alpha virt. eigenvalues --    0.05816   0.05945   0.06153   0.06864   0.06957
 Alpha virt. eigenvalues --    0.07402   0.07913   0.08456   0.09161   0.10726

 Mulliken charges:
               1
     1  O   -2.910213
     2  S    1.308399
     3  C    3.324761
     4  C    5.908380
     5  O   -3.186105
     6  O   -3.478793
     7  C   -3.315285
     8  C   -2.804964
     9  C   -3.639626
    10  C   -3.107446
    11  H    1.478579
    12  H    1.558545
    13  H    1.798394
    14  H    1.337568
    15  C   -3.837126
    16  H    1.258564
    17  H    1.448162
    18  H    1.290161
    19  H    1.162862
    20  H    1.462245
    21  C   -3.864141
    22  H    1.331344
    23  H    1.469235
    24  H    1.263461
    25  H    1.147350
    26  H    1.595691
 Sum of Mulliken charges =   0.00000

 Dipole moment (field-independent basis, Debye):
    X=             -0.5707    Y=             -0.6374    Z=              0.5809  Tot=              1.0341

 Test job not archived.
 1\1\GINC-SE072\SP\RHF\Aug-CC-pVDZ\C8H14O3S1\OHZDE\08-Apr-2025\0\\#t hf
  aug-cc-pvdz iop(5/13=1,5/36=2,99/5=2) pseudo=read geom=check guess=(r
 ead,tcheck) scf=(maxcycle=1)\\title\\0,1\O,0,0.790335,-1.565588,-0.120
 472\S,0,-0.853917,-1.679777,0.26631\C,0,-1.494117,-0.329488,-0.739485\
 C,0,1.521856,-0.536949,0.454804\O,0,1.071035,0.242358,1.239918\O,0,-0.
 780548,0.380356,-1.39288\C,0,-3.415213,1.220956,-0.198945\C,0,3.740617
 ,0.676437,0.218508\C,0,2.946321,-0.605687,-0.050624\C,0,-3.000907,-0.1
 9964,-0.625886\H,0,3.409324,-1.466332,0.446282\H,0,2.91833,-0.849955,-

 Normal termination of Gaussian 16 at Tue Apr  8 23:27:37 2025.
