 Gaussian 16, Revision C.01,

 ----------------------------------------------------------------------
 #t hf aug-cc-pvdz symm=none int=(grid=ultrafine) guess=(read,tcheck) s
 table=(opt,rrhf)
 ----------------------------------------------------------------------
 -----
 title
 -----
 Symbolic Z-matrix:
 Charge =  0 Multiplicity = 1

 SCF Done:  E(RHF) =  -621.429957263     A.U. after   15 cycles
 Normal termination of Gaussian 16 at Tue Apr  8 23:10:08 2025.
 Gaussian 16:  ES64L-G16RevC.01  3-Jul-2019

 ----------------------------------------------------------------------
 #t hf aug-cc-pvdz iop(5/13=1,5/36=2,99/5=2) pseudo=read geom=check gue
 ss=(read,tcheck) scf=(maxcycle=1)
 ----------------------------------------------------------------------
 -----
 title
 -----
 Structure from the checkpoint file:  "BDE49_expt_462_mol1.chk"
 Charge =  0 Multiplicity = 1

                         Standard orientation:
 ---------------------------------------------------------------------
 Center     Atomic      Atomic             Coordinates (Angstroms)
 Number     Number       Type             X           Y           Z
 ---------------------------------------------------------------------
      1          6           0        2.829710   -0.281259    0.009147
      2          6           0        2.154302    0.929134    0.011768
      3          6           0        0.749329    0.981478   -0.003566
      4          6           0        2.129759   -1.487473   -0.011004
      5          6           0        0.741957   -1.456193   -0.023287
      6          6           0        0.046259   -0.245899   -0.018165
      7          1           0        3.914072   -0.282205    0.019270
      8          1           0        2.710591    1.860793    0.027020
      9          7           0        0.105271    2.204338    0.053511
     10          1           0        0.667365    3.005807   -0.186371
     11          1           0        0.177709   -2.379377   -0.038193
     12          1           0       -0.835906    2.252221   -0.303389
     13          1           0        2.655509   -2.433805   -0.016535
     14          6           0       -1.451233   -0.256129    0.008399
     15          9           0       -1.971190   -1.488196   -0.143406
     16          9           0       -1.954688    0.244454    1.162927
     17          9           0       -1.988204    0.515326   -0.987980
 ---------------------------------------------------------------------

 SCF Done:  E(RHF) =  -623.962040017     A.U. after    2 cycles

 The electronic state is 1-A.
 Alpha  occ. eigenvalues --  -29.30661 -29.29996 -29.29797 -15.77108 -11.61794
 Alpha  occ. eigenvalues --  -11.53915 -11.47945 -11.44993 -11.43263 -11.41620
 Alpha  occ. eigenvalues --  -11.37637  -1.47155  -1.37551  -1.27741  -1.10796
 Alpha  occ. eigenvalues --   -1.07179  -0.92191  -0.89385  -0.86906  -0.84052
 Alpha  occ. eigenvalues --   -0.75734  -0.70729  -0.68688  -0.62894  -0.59915
 Alpha  occ. eigenvalues --   -0.56506  -0.55034  -0.49725  -0.48238  -0.46238
 Alpha  occ. eigenvalues --   -0.45488  -0.42489  -0.42422  -0.38189  -0.35556
 Alpha  occ. eigenvalues --   -0.32933  -0.29660  -0.28509  -0.24864  -0.23587
 Alpha  occ. eigenvalues --   -0.20791
 Alpha virt. eigenvalues --    0.03428   0.04739   0.05083   0.06094   0.06911
 Alpha virt. eigenvalues --    0.08760   0.09777   0.10701   0.11461   0.11940
 Alpha virt. eigenvalues --    0.12614   0.13015   0.13223   0.14175   0.14582

 Mulliken charges:
               1
     1  C   -1.654273
     2  C   -2.009514
     3  C    0.168952
     4  C   -1.677625
     5  C   -2.605830
     6  C    2.839417
     7  H    1.546879
     8  H    1.684254
     9  N   -3.852083
    10  H    0.718024
    11  H    1.896312
    12  H    0.565864
    13  H    1.567936
    14  C   -0.039113
    15  F    0.533095
    16  F    0.140826
    17  F    0.176879
 Sum of Mulliken charges =  -0.00000

 Dipole moment (field-independent basis, Debye):
    X=             -1.3477    Y=              1.1610    Z=             -0.5807  Tot=              1.8712

 Test job not archived.
 1\1\GINC-SE227\SP\RHF\Aug-CC-pVDZ\C7H6F3N1\OHZDE\08-Apr-2025\0\\#t hf
 aug-cc-pvdz iop(5/13=1,5/36=2,99/5=2) pseudo=read geom=check guess=(re
 ad,tcheck) scf=(maxcycle=1)\\title\\0,1\C,0,2.82971,-0.281259,0.009147
 \C,0,2.154302,0.929134,0.011768\C,0,0.749329,0.981478,-0.003566\C,0,2.
 129759,-1.487473,-0.011004\C,0,0.741957,-1.456193,-0.023287\C,0,0.0462
 59,-0.245899,-0.018165\H,0,3.914072,-0.282205,0.01927\H,0,2.710591,1.8
 60793,0.02702\N,0,0.105271,2.204338,0.053511\H,0,0.667365,3.005807,-0.
 186371\H,0,0.177709,-2.379377,-0.038193\H,0,-0.835906,2.252221,-0.3033

 Normal termination of Gaussian 16 at Tue Apr  8 23:10:18 2025.
