 Gaussian 16, Revision C.01,

 ----------------------------------------------------------------------
 #t hf aug-cc-pvdz symm=none int=(grid=ultrafine) guess=(read,tcheck) s
 table=(opt,rrhf)
 ----------------------------------------------------------------------
 -----
 title
 -----
 Symbolic Z-matrix:
 Charge =  0 Multiplicity = 1

 SCF Done:  E(RHF) =  -356.259544954     A.U. after   13 cycles
 Normal termination of Gaussian 16 at Wed Apr  9 00:34:50 2025.
 Gaussian 16:  ES64L-G16RevC.01  3-Jul-2019

 ----------------------------------------------------------------------
 #t hf aug-cc-pvdz iop(5/13=1,5/36=2,99/5=2) pseudo=read geom=check gue
 ss=(read,tcheck) scf=(maxcycle=1)
 ----------------------------------------------------------------------
 -----
 title
 -----
 Structure from the checkpoint file:  "BDE49_nonexpt_444_mol1.chk"
 Charge =  0 Multiplicity = 1

                         Standard orientation:
 ---------------------------------------------------------------------
 Center     Atomic      Atomic             Coordinates (Angstroms)
 Number     Number       Type             X           Y           Z
 ---------------------------------------------------------------------
      1          5           0       -1.082617   -0.000001   -0.043848
      2          9           0       -1.778668    1.137467   -0.007785
      3          9           0       -1.778674   -1.137464   -0.007787
      4          7           0        0.305930   -0.000001   -0.230113
      5          6           0        1.373989   -0.000003    0.432669
      6          6           0        2.735952    0.000001   -0.192875
      7          1           0        2.661603    0.000005   -1.279855
      8          1           0        3.299924   -0.878583    0.138792
      9          1           0        3.299922    0.878583    0.138800
     10          1           0        1.366563   -0.000005    1.533680
 ---------------------------------------------------------------------

 SCF Done:  E(RHF) =  -357.655929550     A.U. after    2 cycles

 The electronic state is 1-A.
 Alpha  occ. eigenvalues --  -29.24393 -29.24310 -15.71547 -11.47725 -11.39439
 Alpha  occ. eigenvalues --   -7.70845  -1.42644  -1.17289  -1.03429  -0.82753
 Alpha  occ. eigenvalues --   -0.74856  -0.70908  -0.59770  -0.59585  -0.55549
 Alpha  occ. eigenvalues --   -0.50122  -0.48082  -0.43635  -0.43111  -0.36004
 Alpha  occ. eigenvalues --   -0.32618  -0.29883  -0.26066
 Alpha virt. eigenvalues --    0.02586   0.03912   0.04286   0.05622   0.06259
 Alpha virt. eigenvalues --    0.06728   0.07035   0.07421   0.10132   0.11862
 Alpha virt. eigenvalues --    0.13524   0.14481   0.15070   0.15389   0.15614

 Mulliken charges:
               1
     1  B    1.587285
     2  F   -0.921940
     3  F   -0.921941
     4  N   -2.526752
     5  C    1.441241
     6  C   -3.820452
     7  H    1.259231
     8  H    1.215302
     9  H    1.215302
    10  H    1.472722
 Sum of Mulliken charges =  -0.00000

 Dipole moment (field-independent basis, Debye):
    X=             -0.7626    Y=             -0.0000    Z=              1.2894  Tot=              1.4980

 Test job not archived.
 1\1\GINC-SE332\SP\RHF\Aug-CC-pVDZ\C2H4B1F2N1\OHZDE\09-Apr-2025\0\\#t h
 f aug-cc-pvdz iop(5/13=1,5/36=2,99/5=2) pseudo=read geom=check guess=(
 read,tcheck) scf=(maxcycle=1)\\title\\0,1\B,0,1.082617,0.000001,-0.043
 848\F,0,1.778668,-1.137467,-0.007785\F,0,1.778674,1.137464,-0.007787\N
 ,0,-0.30593,0.000001,-0.230113\C,0,-1.373989,0.000003,0.432669\C,0,-2.
 735952,-0.000001,-0.192875\H,0,-2.661603,-0.000005,-1.279855\H,0,-3.29
 9924,0.878583,0.138792\H,0,-3.299922,-0.878583,0.1388\H,0,-1.366563,0.
 000005,1.53368\\Version=ES64L-G16RevC.01\State=1-A\HF=-357.6559296\RMS

 Normal termination of Gaussian 16 at Wed Apr  9 00:34:53 2025.
