 Gaussian 16, Revision C.01,

 ----------------------------------------------------------------------
 #t hf aug-cc-pvdz symm=none int=(grid=ultrafine) guess=(read,tcheck) s
 table=(opt,rrhf)
 ----------------------------------------------------------------------
 -----
 title
 -----
 Symbolic Z-matrix:
 Charge =  0 Multiplicity = 1

 SCF Done:  E(RHF) =  -766.919726154     A.U. after   12 cycles
 Normal termination of Gaussian 16 at Wed Apr  9 00:14:37 2025.
 Gaussian 16:  ES64L-G16RevC.01  3-Jul-2019

 ----------------------------------------------------------------------
 #t hf aug-cc-pvdz iop(5/13=1,5/36=2,99/5=2) pseudo=read geom=check gue
 ss=(read,tcheck) scf=(maxcycle=1)
 ----------------------------------------------------------------------
 -----
 title
 -----
 Structure from the checkpoint file:  "BDE49_nonexpt_2474_mol1.chk"
 Charge =  0 Multiplicity = 1

                         Standard orientation:
 ---------------------------------------------------------------------
 Center     Atomic      Atomic             Coordinates (Angstroms)
 Number     Number       Type             X           Y           Z
 ---------------------------------------------------------------------
      1         16           0        1.691050    0.034062   -0.158677
      2         14           0       -0.411281   -0.010167    0.411727
      3          6           0       -1.139060    1.592612   -0.231587
      4          1           0        2.015415   -1.120423    0.450441
      5          1           0       -1.054385    1.656690   -1.319921
      6          1           0       -0.633528    2.458872    0.202079
      7          6           0       -1.282255   -1.513161   -0.295296
      8          1           0       -2.335846   -1.517163    0.003670
      9          1           0       -0.829518   -2.440193    0.066675
     10          1           0       -1.234389   -1.517644   -1.387367
     11          1           0       -2.200089    1.656166    0.028322
     12          1           0       -0.498635   -0.055665    1.892048
 ---------------------------------------------------------------------

 SCF Done:  E(RHF) =  -767.735232649     A.U. after    2 cycles

 The electronic state is 1-A.
 Alpha  occ. eigenvalues --  -76.22641 -75.67426 -13.13217 -13.06213 -13.02317
 Alpha  occ. eigenvalues --  -11.35330 -11.35250  -8.01392  -5.56368  -2.20036
 Alpha  occ. eigenvalues --   -2.18956  -2.18084  -1.11055  -1.04913  -1.01599
 Alpha  occ. eigenvalues --   -0.68791  -0.57663  -0.57202  -0.55641  -0.55336
 Alpha  occ. eigenvalues --   -0.49638  -0.44105  -0.40595  -0.33119  -0.26346
 Alpha virt. eigenvalues --    0.02623   0.04420   0.05110   0.05283   0.06666
 Alpha virt. eigenvalues --    0.07000   0.07452   0.07692   0.09124   0.09395
 Alpha virt. eigenvalues --    0.10512   0.12182   0.13423   0.14737   0.15550

 Mulliken charges:
               1
     1  S   -2.636378
     2  Si   6.178090
     3  C   -5.051986
     4  H    0.998043
     5  H    1.263797
     6  H    1.234890
     7  C   -5.014289
     8  H    1.322717
     9  H    1.224066
    10  H    1.253342
    11  H    1.289053
    12  H   -2.061344
 Sum of Mulliken charges =  -0.00000

 Dipole moment (field-independent basis, Debye):
    X=             -0.1052    Y=              0.8872    Z=             -1.1297  Tot=              1.4402

 Test job not archived.
 1\1\GINC-SE333\SP\RHF\Aug-CC-pVDZ\C2H8S1Si1\OHZDE\09-Apr-2025\0\\#t hf
  aug-cc-pvdz iop(5/13=1,5/36=2,99/5=2) pseudo=read geom=check guess=(r
 ead,tcheck) scf=(maxcycle=1)\\title\\0,1\S,0,1.69105,0.034062,-0.15867
 7\Si,0,-0.411281,-0.010167,0.411727\C,0,-1.13906,1.592612,-0.231587\H,
 0,2.015415,-1.120423,0.450441\H,0,-1.054385,1.65669,-1.319921\H,0,-0.6
 33528,2.458872,0.202079\C,0,-1.282255,-1.513161,-0.295296\H,0,-2.33584
 6,-1.517163,0.00367\H,0,-0.829518,-2.440193,0.066675\H,0,-1.234389,-1.
 517644,-1.387367\H,0,-2.200089,1.656166,0.028322\H,0,-0.498635,-0.0556

 Normal termination of Gaussian 16 at Wed Apr  9 00:14:40 2025.
