 Gaussian 16, Revision C.01,

 ----------------------------------------------------------------------
 #t hf aug-cc-pvdz symm=none int=(grid=ultrafine) guess=(read,tcheck) s
 table=(opt,rrhf)
 ----------------------------------------------------------------------
 -----
 title
 -----
 Symbolic Z-matrix:
 Charge =  0 Multiplicity = 1

 SCF Done:  E(RHF) =  -955.975196129     A.U. after   12 cycles

 1\1\GINC-SE457\Stability\RHF\Aug-CC-pVDZ\H6O5Si2\OHZDE\09-Apr-2025\0\\
 #t hf aug-cc-pvdz symm=none int=(grid=ultrafine) guess=(read,tcheck) s
 table=(opt,rrhf)\\title\\0,1\Si,0,0.982077,-0.005525,0.032339\Si,0,-1.
 326948,-0.085214,0.439063\O,0,1.320854,1.458358,-0.650372\H,0,0.601997
 ,2.09833,-0.613524\O,0,-2.074464,-1.364718,-0.292103\H,0,-1.6863,-1.70
 6298,-1.101846\O,0,1.501412,-1.131796,-1.060106\H,0,1.753878,-0.782967
 ,-1.919379\O,0,-1.755618,1.38702,-0.214574\H,0,-2.669038,1.67911,-0.14
 5589\O,0,1.749198,-0.272272,1.453919\H,0,2.690393,-0.467767,1.448477\H

 Normal termination of Gaussian 16 at Wed Apr  9 00:09:53 2025.
 Gaussian 16:  ES64L-G16RevC.01  3-Jul-2019

 ----------------------------------------------------------------------
 #t hf aug-cc-pvdz iop(5/13=1,5/36=2,99/5=2) pseudo=read geom=check gue
 ss=(read,tcheck) scf=(maxcycle=1)
 ----------------------------------------------------------------------
 -----
 title
 -----
 Structure from the checkpoint file:  "BDE49_nonexpt_2333_mol1.chk"
 Charge =  0 Multiplicity = 1

                         Standard orientation:
 ---------------------------------------------------------------------
 Center     Atomic      Atomic             Coordinates (Angstroms)
 Number     Number       Type             X           Y           Z
 ---------------------------------------------------------------------
      1         14           0        0.982077   -0.005525    0.032339
      2         14           0       -1.326948   -0.085214    0.439063
      3          8           0        1.320854    1.458358   -0.650372
      4          1           0        0.601997    2.098330   -0.613524
      5          8           0       -2.074464   -1.364718   -0.292103
      6          1           0       -1.686300   -1.706298   -1.101846
      7          8           0        1.501412   -1.131796   -1.060106
      8          1           0        1.753878   -0.782967   -1.919379
      9          8           0       -1.755618    1.387020   -0.214574
     10          1           0       -2.669038    1.679110   -0.145589
     11          8           0        1.749198   -0.272272    1.453919
     12          1           0        2.690393   -0.467767    1.448477
     13          1           0       -1.793801   -0.162807    1.838101
 ---------------------------------------------------------------------

 SCF Done:  E(RHF) =  -957.832216354     A.U. after    2 cycles

 The electronic state is 1-A.
 Alpha  occ. eigenvalues --  -76.25200 -76.24697 -21.08307 -21.07869 -21.07793
 Alpha  occ. eigenvalues --  -21.07736 -21.07354  -5.59969  -5.58756  -2.27924
 Alpha  occ. eigenvalues --   -2.26606  -2.26453  -2.22276  -2.21710  -2.19546
 Alpha  occ. eigenvalues --   -1.70569  -1.68576  -1.64298  -1.64060  -1.63767
 Alpha  occ. eigenvalues --   -0.76869  -0.70559  -0.63083  -0.61470  -0.60868
 Alpha  occ. eigenvalues --   -0.54343  -0.50320  -0.48068  -0.45934  -0.44885
 Alpha  occ. eigenvalues --   -0.43484  -0.39588  -0.39368  -0.37761  -0.36192
 Alpha  occ. eigenvalues --   -0.35413  -0.31145
 Alpha virt. eigenvalues --    0.03720   0.04813   0.06053   0.06572   0.06868
 Alpha virt. eigenvalues --    0.07470   0.07847   0.08160   0.08523   0.09171
 Alpha virt. eigenvalues --    0.09662   0.10423   0.13060   0.13894   0.15244

 Mulliken charges:
               1
     1  Si   5.761323
     2  Si   5.521493
     3  O   -3.567998
     4  H    1.307821
     5  O   -2.836813
     6  H    1.157014
     7  O   -2.867595
     8  H    0.881489
     9  O   -2.476421
    10  H    1.067411
    11  O   -3.001785
    12  H    1.072493
    13  H   -2.018434
 Sum of Mulliken charges =  -0.00000

 Dipole moment (field-independent basis, Debye):
    X=              0.0271    Y=              0.3071    Z=             -1.2536  Tot=              1.2909

 Test job not archived.
 1\1\GINC-SE457\SP\RHF\Aug-CC-pVDZ\H6O5Si2\OHZDE\09-Apr-2025\0\\#t hf a
 ug-cc-pvdz iop(5/13=1,5/36=2,99/5=2) pseudo=read geom=check guess=(rea
 d,tcheck) scf=(maxcycle=1)\\title\\0,1\Si,0,0.982077,-0.005525,0.03233
 9\Si,0,-1.326948,-0.085214,0.439063\O,0,1.320854,1.458358,-0.650372\H,
 0,0.601997,2.09833,-0.613524\O,0,-2.074464,-1.364718,-0.292103\H,0,-1.
 6863,-1.706298,-1.101846\O,0,1.501412,-1.131796,-1.060106\H,0,1.753878
 ,-0.782967,-1.919379\O,0,-1.755618,1.38702,-0.214574\H,0,-2.669038,1.6
 7911,-0.145589\O,0,1.749198,-0.272272,1.453919\H,0,2.690393,-0.467767,

 Normal termination of Gaussian 16 at Wed Apr  9 00:10:20 2025.
