 Gaussian 16, Revision C.01,

 ----------------------------------------------------------------------
 #t hf aug-cc-pvdz symm=none int=(grid=ultrafine) guess=(read,tcheck) s
 table=(opt,rrhf)
 ----------------------------------------------------------------------
 -----
 title
 -----
 Symbolic Z-matrix:
 Charge =  0 Multiplicity = 1

 SCF Done:  E(RHF) =  -956.997773382     A.U. after   13 cycles
 Normal termination of Gaussian 16 at Wed Apr  9 00:00:32 2025.
 Gaussian 16:  ES64L-G16RevC.01  3-Jul-2019

 ----------------------------------------------------------------------
 #t hf aug-cc-pvdz iop(5/13=1,5/36=2,99/5=2) pseudo=read geom=check gue
 ss=(read,tcheck) scf=(maxcycle=1)
 ----------------------------------------------------------------------
 -----
 title
 -----
 Structure from the checkpoint file:  "BDE49_nonexpt_2102_mol1.chk"
 Charge =  0 Multiplicity = 1

                         Standard orientation:
 ---------------------------------------------------------------------
 Center     Atomic      Atomic             Coordinates (Angstroms)
 Number     Number       Type             X           Y           Z
 ---------------------------------------------------------------------
      1         14           0       -0.138241   -0.384255    0.000003
      2          7           0        1.712583   -0.280835   -0.000017
      3          8           0        2.256644    0.800564   -0.000026
      4          6           0       -0.563959   -1.299894    1.565298
      5          1           0       -0.304925   -0.711613    2.448464
      6          1           0       -0.021212   -2.248139    1.608517
      7          6           0       -0.563991   -1.299906   -1.565276
      8         17           0       -1.024334    1.498956    0.000005
      9          1           0       -0.021244   -2.248151   -1.608500
     10          1           0       -0.304978   -0.711632   -2.448453
     11          1           0       -1.636080   -1.511519   -1.598481
     12          1           0       -1.636047   -1.511505    1.598527
 ---------------------------------------------------------------------

 SCF Done:  E(RHF) =  -958.339523967     A.U. after    2 cycles

 The electronic state is 1-A.
 Alpha  occ. eigenvalues --  -99.88950 -76.27041 -21.13438 -15.83381 -11.37502
 Alpha  occ. eigenvalues --  -11.37400 -10.46346  -9.66245  -9.65714  -9.65649
 Alpha  occ. eigenvalues --   -5.61189  -2.24587  -2.24530  -2.23784  -1.83896
 Alpha  occ. eigenvalues --   -1.29560  -1.09959  -1.04081  -0.99334  -0.71549
 Alpha  occ. eigenvalues --   -0.61336  -0.60061  -0.58714  -0.58134  -0.57989
 Alpha  occ. eigenvalues --   -0.55144  -0.53789  -0.52500  -0.51157  -0.48869
 Alpha  occ. eigenvalues --   -0.42137  -0.24708
 Alpha virt. eigenvalues --    0.02365   0.04896   0.05675   0.06343   0.06747
 Alpha virt. eigenvalues --    0.07159   0.07363   0.08356   0.09248   0.10147
 Alpha virt. eigenvalues --    0.11266   0.12950   0.13183   0.15390   0.15989

 Mulliken charges:
               1
     1  Si   5.009212
     2  N    0.379012
     3  O   -1.607657
     4  C   -5.076106
     5  H    1.150311
     6  H    1.284714
     7  C   -5.076106
     8  Cl  -0.954362
     9  H    1.284714
    10  H    1.150311
    11  H    1.227978
    12  H    1.227979
 Sum of Mulliken charges =  -0.00000

 Dipole moment (field-independent basis, Debye):
    X=             -1.1093    Y=             -1.6501    Z=              0.0000  Tot=              1.9883

 Test job not archived.
 1\1\GINC-SE345\SP\RHF\Aug-CC-pVDZ\C2H6Cl1N1O1Si1\OHZDE\09-Apr-2025\0\\
 #t hf aug-cc-pvdz iop(5/13=1,5/36=2,99/5=2) pseudo=read geom=check gue
 ss=(read,tcheck) scf=(maxcycle=1)\\title\\0,1\Si,0,-0.13824,-0.384255,
 0.000003\N,0,1.712584,-0.280832,-0.000017\O,0,2.256642,0.800568,-0.000
 026\C,0,-0.563956,-1.299895,1.565298\H,0,-0.304923,-0.711614,2.448464\
 H,0,-0.021207,-2.248139,1.608517\C,0,-0.563988,-1.299907,-1.565276\Cl,
 0,-1.024337,1.498954,0.000005\H,0,-0.021239,-2.248151,-1.6085\H,0,-0.3
 04976,-0.711633,-2.448453\H,0,-1.636077,-1.511522,-1.598481\H,0,-1.636

 Normal termination of Gaussian 16 at Wed Apr  9 00:00:36 2025.
