 Gaussian 16, Revision C.01,

 ----------------------------------------------------------------------
 #t hf aug-cc-pvdz symm=none int=(grid=ultrafine) guess=(read,tcheck) s
 table=opt
 ----------------------------------------------------------------------
 -----
 title
 -----
 Symbolic Z-matrix:
 Charge =  0 Multiplicity = 2

 SCF Done:  E(UHF) =  -696.218394837     A.U. after   16 cycles

 1\1\GINC-SE328\Stability\UHF\Aug-CC-pVDZ\C1Cl1F2\OHZDE\08-Apr-2025\0\\
 #t hf aug-cc-pvdz symm=none int=(grid=ultrafine) guess=(read,tcheck) s
 table=opt\\title\\0,2\C,0,0.432369,-0.000002,0.332206\Cl,0,-1.278302,0
 .000032,-0.031587\F,0,1.063097,-1.088312,-0.080902\F,0,1.063226,1.0882
 53,-0.080904\\Version=ES64L-G16RevC.01\HF=-696.2183948\S2=0.757572\S2-
 1=0.\S2A=0.750042\RMSD=5.776e-09\Dipole=-0.1533899,-0.0000103,0.165238
 4\Quadrupole=0.3783721,-0.9105672,0.532195,-0.0000702,0.5329349,-0.000
 0123\PG=Unknown\\@

 Normal termination of Gaussian 16 at Tue Apr  8 22:30:17 2025.
 Gaussian 16:  ES64L-G16RevC.01  3-Jul-2019

 ----------------------------------------------------------------------
 #t hf aug-cc-pvdz iop(5/13=1,5/36=2,99/5=2) pseudo=read geom=check gue
 ss=(read,tcheck) scf=(maxcycle=1)
 ----------------------------------------------------------------------
 -----
 title
 -----
 Structure from the checkpoint file:  "BDE49_expt_1004_mol2.chk"
 Charge =  0 Multiplicity = 2

                         Standard orientation:
 ---------------------------------------------------------------------
 Center     Atomic      Atomic             Coordinates (Angstroms)
 Number     Number       Type             X           Y           Z
 ---------------------------------------------------------------------
      1          6           0       -0.432369    0.000002    0.332206
      2         17           0        1.278302   -0.000032   -0.031587
      3          9           0       -1.063097    1.088312   -0.080902
      4          9           0       -1.063226   -1.088253   -0.080904
 ---------------------------------------------------------------------

 SCF Done:  E(UHF) =  -697.282367909     A.U. after    2 cycles

 The electronic state is 2-A.
 Alpha  occ. eigenvalues --  -99.93497 -29.34322 -29.34274 -11.57178 -10.50974
 Alpha  occ. eigenvalues --   -9.70769  -9.69875  -9.69835  -1.44410  -1.22228
 Alpha  occ. eigenvalues --   -0.87863  -0.76878  -0.71324  -0.55449  -0.53564
 Alpha  occ. eigenvalues --   -0.48515  -0.43007  -0.37746  -0.33884  -0.26636
 Alpha  occ. eigenvalues --   -0.23453
 Alpha virt. eigenvalues --    0.06521   0.07935   0.09388   0.12463   0.13662
 Alpha virt. eigenvalues --    0.14921   0.15314   0.19114   0.20596   0.23301
 Alpha virt. eigenvalues --    0.25066   0.27621   0.28440   0.28908   0.29420

  Beta  occ. eigenvalues --  -99.93369 -29.33919 -29.33871 -11.54340 -10.50831
  Beta  occ. eigenvalues --   -9.70508  -9.69765  -9.69549  -1.41411  -1.18289
  Beta  occ. eigenvalues --   -0.86298  -0.74557  -0.60285  -0.55173  -0.47728
  Beta  occ. eigenvalues --   -0.46296  -0.42004  -0.37610  -0.32231  -0.26457
  Beta virt. eigenvalues --    0.05965   0.08176   0.09429   0.10870   0.12503
  Beta virt. eigenvalues --    0.14096   0.15014   0.15955   0.19667   0.22390
  Beta virt. eigenvalues --    0.23503   0.25460   0.27934   0.28803   0.29826

 Mulliken charges and spin densities:
               1          2
     1  C   -1.397514   0.793480
     2  Cl  -0.178589   0.021220
     3  F    0.788070   0.092653
     4  F    0.788034   0.092647
 Sum of Mulliken charges =  -0.00000   1.00000

 Dipole moment (field-independent basis, Debye):
    X=             -3.9989    Y=              0.0002    Z=             -1.0340  Tot=              4.1304
                          Isotropic Fermi Contact Couplings
        Atom                 a.u.       MegaHertz       Gauss      10(-4) cm-1
     1  C(13)              0.24964     280.64789     100.14215      93.61406
     2  Cl(35)             0.13832      60.64821      21.64079      20.23007
     3  F(19)              0.04261     179.29233      63.97596      59.80548
     4  F(19)              0.04262     179.30367      63.98001      59.80927
 --------------------------------------------------------
       Center         ----  Spin Dipole Couplings  ----
                      3XX-RR        3YY-RR        3ZZ-RR
 --------------------------------------------------------

 Normal termination of Gaussian 16 at Tue Apr  8 22:30:19 2025.
