 Gaussian 16, Revision C.01,

 ----------------------------------------------------------------------
 #t hf aug-cc-pvdz symm=none int=(grid=ultrafine) guess=(read,tcheck) s
 table=(opt,rrhf)
 ----------------------------------------------------------------------
 -----
 title
 -----
 Symbolic Z-matrix:
 Charge =  0 Multiplicity = 1

 SCF Done:  E(RHF) =  -628.562935598     A.U. after   14 cycles
 Normal termination of Gaussian 16 at Tue Apr  8 22:48:52 2025.
 Gaussian 16:  ES64L-G16RevC.01  3-Jul-2019

 ----------------------------------------------------------------------
 #t hf aug-cc-pvdz iop(5/13=1,5/36=2,99/5=2) pseudo=read geom=check gue
 ss=(read,tcheck) scf=(maxcycle=1)
 ----------------------------------------------------------------------
 -----
 title
 -----
 Structure from the checkpoint file:  "BDE49_expt_1607_mol1.chk"
 Charge =  0 Multiplicity = 1

                         Standard orientation:
 ---------------------------------------------------------------------
 Center     Atomic      Atomic             Coordinates (Angstroms)
 Number     Number       Type             X           Y           Z
 ---------------------------------------------------------------------
      1          6           0       -1.614199   -0.140712   -0.542642
      2         16           0       -0.096967   -1.040024   -0.047069
      3          6           0        1.086930    0.314671   -0.071035
      4          6           0        2.485028   -0.096693    0.340010
      5          6           0       -2.323457    0.549428    0.618520
      6          1           0       -2.247921   -0.893311   -1.015741
      7          1           0       -1.303960    0.579715   -1.300217
      8          1           0       -2.611063   -0.165343    1.392770
      9          1           0       -3.229808    1.047081    0.259274
     10          1           0       -1.678108    1.306286    1.066597
     11          8           0        0.788846    1.440309   -0.381510
     12          1           0        2.587384   -1.174331    0.470156
     13          1           0        2.729270    0.403670    1.280804
     14          1           0        3.189096    0.253970   -0.417581
 ---------------------------------------------------------------------

 SCF Done:  E(RHF) =  -629.882159048     A.U. after    2 cycles

 The electronic state is 1-A.
 Alpha  occ. eigenvalues --  -75.69225 -21.05966 -13.14335 -13.10650 -13.03264
 Alpha  occ. eigenvalues --  -11.50293 -11.42294 -11.39676 -11.36814  -8.03490
 Alpha  occ. eigenvalues --   -1.72092  -1.24380  -1.13025  -1.04608  -0.88299
 Alpha  occ. eigenvalues --   -0.74062  -0.65484  -0.60869  -0.60388  -0.57787
 Alpha  occ. eigenvalues --   -0.55641  -0.52043  -0.50625  -0.46916  -0.44709
 Alpha  occ. eigenvalues --   -0.38123  -0.26626  -0.24762
 Alpha virt. eigenvalues --    0.03417   0.04000   0.05385   0.05807   0.06324
 Alpha virt. eigenvalues --    0.06759   0.07626   0.07854   0.10029   0.10611
 Alpha virt. eigenvalues --    0.12444   0.12776   0.13678   0.13839   0.14697

 Mulliken charges:
               1
     1  C   -4.239503
     2  S    1.089255
     3  C    3.232893
     4  C   -4.446343
     5  C   -3.540498
     6  H    1.456028
     7  H    1.683742
     8  H    1.355358
     9  H    1.156226
    10  H    1.357211
    11  O   -3.070349
    12  H    1.536006
    13  H    1.226541
    14  H    1.203432
 Sum of Mulliken charges =   0.00000

 Dipole moment (field-independent basis, Debye):
    X=             -0.2997    Y=             -1.5709    Z=              0.1849  Tot=              1.6099

 Test job not archived.
 1\1\GINC-SE048\SP\RHF\Aug-CC-pVDZ\C4H8O1S1\OHZDE\08-Apr-2025\0\\#t hf
 aug-cc-pvdz iop(5/13=1,5/36=2,99/5=2) pseudo=read geom=check guess=(re
 ad,tcheck) scf=(maxcycle=1)\\title\\0,1\C,0,-1.614199,-0.140712,-0.542
 642\S,0,-0.096967,-1.040024,-0.047069\C,0,1.08693,0.314671,-0.071035\C
 ,0,2.485028,-0.096693,0.34001\C,0,-2.323457,0.549428,0.61852\H,0,-2.24
 7921,-0.893311,-1.015741\H,0,-1.30396,0.579715,-1.300217\H,0,-2.611063
 ,-0.165343,1.39277\H,0,-3.229808,1.047081,0.259274\H,0,-1.678108,1.306
 286,1.066597\O,0,0.788846,1.440309,-0.38151\H,0,2.587384,-1.174331,0.4

 Normal termination of Gaussian 16 at Tue Apr  8 22:48:56 2025.
