 Gaussian 16, Revision C.01,

 ----------------------------------------------------------------------
 #t hf aug-cc-pvdz symm=none int=(grid=ultrafine) guess=(read,tcheck) s
 table=(opt,rrhf)
 ----------------------------------------------------------------------
 -----
 title
 -----
 Symbolic Z-matrix:
 Charge =  0 Multiplicity = 1

 SCF Done:  E(RHF) =  -228.349394567     A.U. after   12 cycles

 1\1\GINC-SE080\Stability\RHF\Aug-CC-pVDZ\C3H10N2\OHZDE\08-Apr-2025\0\\
 #t hf aug-cc-pvdz symm=none int=(grid=ultrafine) guess=(read,tcheck) s
 table=(opt,rrhf)\\title\\0,1\C,0,-0.735774,-0.750753,0.157052\C,0,0.48
 7419,0.020621,-0.353607\N,0,0.439867,1.38428,0.199739\H,0,-0.312421,1.
 892499,-0.25701\H,0,1.296932,1.879329,-0.028609\N,0,-1.973329,-0.00578
 ,-0.120031\H,0,-0.59099,-0.96365,1.227608\H,0,-0.785967,-1.710263,-0.3
 66911\H,0,-2.11352,0.68851,0.607453\H,0,-2.774685,-0.625869,-0.080358\
 C,0,1.786152,-0.660099,0.071988\H,0,0.432542,0.023191,-1.45461\H,0,1.8

 Normal termination of Gaussian 16 at Tue Apr  8 22:38:38 2025.
 Gaussian 16:  ES64L-G16RevC.01  3-Jul-2019

 ----------------------------------------------------------------------
 #t hf aug-cc-pvdz iop(5/13=1,5/36=2,99/5=2) pseudo=read geom=check gue
 ss=(read,tcheck) scf=(maxcycle=1)
 ----------------------------------------------------------------------
 -----
 title
 -----
 Structure from the checkpoint file:  "BDE49_expt_1198_mol1.chk"
 Charge =  0 Multiplicity = 1

                         Standard orientation:
 ---------------------------------------------------------------------
 Center     Atomic      Atomic             Coordinates (Angstroms)
 Number     Number       Type             X           Y           Z
 ---------------------------------------------------------------------
      1          6           0       -0.735774   -0.750753    0.157052
      2          6           0        0.487419    0.020621   -0.353607
      3          7           0        0.439867    1.384280    0.199739
      4          1           0       -0.312421    1.892499   -0.257010
      5          1           0        1.296932    1.879329   -0.028609
      6          7           0       -1.973329   -0.005780   -0.120031
      7          1           0       -0.590990   -0.963650    1.227608
      8          1           0       -0.785967   -1.710263   -0.366911
      9          1           0       -2.113520    0.688510    0.607453
     10          1           0       -2.774685   -0.625869   -0.080358
     11          6           0        1.786152   -0.660099    0.071988
     12          1           0        0.432542    0.023191   -1.454610
     13          1           0        1.879437   -0.653030    1.161687
     14          1           0        2.655550   -0.142198   -0.344910
     15          1           0        1.820574   -1.696634   -0.274890
 ---------------------------------------------------------------------

 SCF Done:  E(RHF) =  -229.492605011     A.U. after    2 cycles

 The electronic state is 1-A.
 Alpha  occ. eigenvalues --  -15.72413 -15.71835 -11.42908 -11.39668 -11.35097
 Alpha  occ. eigenvalues --   -1.38068  -1.27199  -1.08956  -0.95755  -0.80755
 Alpha  occ. eigenvalues --   -0.68407  -0.65903  -0.59704  -0.59239  -0.55704
 Alpha  occ. eigenvalues --   -0.51616  -0.48903  -0.45410  -0.43588  -0.36365
 Alpha  occ. eigenvalues --   -0.33637
 Alpha virt. eigenvalues --    0.04279   0.05156   0.05854   0.06060   0.06272
 Alpha virt. eigenvalues --    0.06346   0.06534   0.07297   0.08662   0.09394
 Alpha virt. eigenvalues --    0.12744   0.14040   0.14955   0.15332   0.15413

 Mulliken charges:
               1
     1  C   -1.537739
     2  C   -0.743595
     3  N   -2.532949
     4  H    0.529934
     5  H    0.573080
     6  N   -2.310372
     7  H    1.489181
     8  H    1.433617
     9  H    0.580083
    10  H    0.552611
    11  C   -3.232261
    12  H    1.640384
    13  H    1.212933
    14  H    1.144348
    15  H    1.200746
 Sum of Mulliken charges =   0.00000

 Dipole moment (field-independent basis, Debye):
    X=             -0.1503    Y=             -0.2277    Z=             -0.1546  Tot=              0.3136

 Test job not archived.
 1\1\GINC-SE080\SP\RHF\Aug-CC-pVDZ\C3H10N2\OHZDE\08-Apr-2025\0\\#t hf a
 ug-cc-pvdz iop(5/13=1,5/36=2,99/5=2) pseudo=read geom=check guess=(rea
 d,tcheck) scf=(maxcycle=1)\\title\\0,1\C,0,-0.735774,-0.750753,0.15705
 2\C,0,0.487419,0.020621,-0.353607\N,0,0.439867,1.38428,0.199739\H,0,-0
 .312421,1.892499,-0.25701\H,0,1.296932,1.879329,-0.028609\N,0,-1.97332
 9,-0.00578,-0.120031\H,0,-0.59099,-0.96365,1.227608\H,0,-0.785967,-1.7
 10263,-0.366911\H,0,-2.11352,0.68851,0.607453\H,0,-2.774685,-0.625869,
 -0.080358\C,0,1.786152,-0.660099,0.071988\H,0,0.432542,0.023191,-1.454

 Normal termination of Gaussian 16 at Tue Apr  8 22:38:42 2025.
