 Gaussian 16, Revision C.01,

 ----------------------------------------------------------------------
 #t hf aug-cc-pvdz symm=none int=(grid=ultrafine) guess=(read,tcheck) s
 table=(opt,rrhf)
 ----------------------------------------------------------------------
 -----
 title
 -----
 Symbolic Z-matrix:
 Charge =  0 Multiplicity = 1

 SCF Done:  E(RHF) =  -2363.87454890     A.U. after   12 cycles
 Normal termination of Gaussian 16 at Tue Apr  8 23:50:29 2025.
 Gaussian 16:  ES64L-G16RevC.01  3-Jul-2019

 ----------------------------------------------------------------------
 #t hf aug-cc-pvdz iop(5/13=1,5/36=2,99/5=2) pseudo=read geom=check gue
 ss=(read,tcheck) scf=(maxcycle=1)
 ----------------------------------------------------------------------
 -----
 title
 -----
 Structure from the checkpoint file:  "BDE49_nonexpt_1857_mol1.chk"
 Charge =  0 Multiplicity = 1

                         Standard orientation:
 ---------------------------------------------------------------------
 Center     Atomic      Atomic             Coordinates (Angstroms)
 Number     Number       Type             X           Y           Z
 ---------------------------------------------------------------------
      1          6           0       -1.154426    0.622659   -0.000000
      2         14           0        0.632428   -0.094955   -0.000000
      3         17           0        0.891327   -1.220738    1.679590
      4         17           0        1.922380    1.487773   -0.000000
      5          9           0       -1.341856    1.401279   -1.090790
      6         17           0       -2.397625   -0.671567   -0.000000
      7         17           0        0.891328   -1.220739   -1.679588
      8          9           0       -1.341856    1.401280    1.090789
 ---------------------------------------------------------------------

 SCF Done:  E(RHF) =  -2365.83610998     A.U. after    2 cycles

 The electronic state is 1-A.
 Alpha  occ. eigenvalues --  -99.92885 -99.92881 -99.92736 -99.92589 -76.37241
 Alpha  occ. eigenvalues --  -29.32959 -29.32916 -11.57296 -10.50419 -10.50359
 Alpha  occ. eigenvalues --  -10.50209 -10.50030  -9.70229  -9.70218  -9.70082
 Alpha  occ. eigenvalues --   -9.69844  -9.69668  -9.69660  -9.69616  -9.69494
 Alpha  occ. eigenvalues --   -9.69441  -9.69328  -9.69076  -9.68994  -5.71161
 Alpha  occ. eigenvalues --   -2.33508  -2.33224  -2.33113  -1.43657  -1.36162
 Alpha  occ. eigenvalues --   -1.32386  -1.32294  -1.22132  -0.87808  -0.85928
 Alpha  occ. eigenvalues --   -0.76043  -0.70641  -0.64332  -0.64226  -0.59006
 Alpha  occ. eigenvalues --   -0.58902  -0.58515  -0.56017  -0.55702  -0.55161
 Alpha  occ. eigenvalues --   -0.53846  -0.53140  -0.47781  -0.41981  -0.37000
 Alpha  occ. eigenvalues --   -0.33583  -0.30141  -0.25660
 Alpha virt. eigenvalues --    0.03176   0.04960   0.05892   0.06164   0.06176
 Alpha virt. eigenvalues --    0.08466   0.09424   0.10123   0.10372   0.11498
 Alpha virt. eigenvalues --    0.13024   0.13100   0.13659   0.14569   0.15133

 Mulliken charges:
               1
     1  C   -0.800228
     2  Si   2.855249
     3  Cl  -0.725692
     4  Cl  -0.752735
     5  F    0.348728
     6  Cl  -0.548357
     7  Cl  -0.725693
     8  F    0.348728
 Sum of Mulliken charges =  -0.00000

 Dipole moment (field-independent basis, Debye):
    X=             -0.1049    Y=              4.7745    Z=             -0.0000  Tot=              4.7757

 Test job not archived.
 1\1\GINC-SE361\SP\RHF\Aug-CC-pVDZ\C1Cl4F2Si1\OHZDE\08-Apr-2025\0\\#t h
 f aug-cc-pvdz iop(5/13=1,5/36=2,99/5=2) pseudo=read geom=check guess=(
 read,tcheck) scf=(maxcycle=1)\\title\\0,1\C,0,-1.154426,0.622659,0.\Si
 ,0,0.632428,-0.094955,0.\Cl,0,0.891327,-1.220738,1.67959\Cl,0,1.92238,
 1.487773,0.\F,0,-1.341856,1.401279,-1.09079\Cl,0,-2.397625,-0.671567,0
 .\Cl,0,0.891328,-1.220739,-1.679588\F,0,-1.341856,1.40128,1.090789\\Ve
 rsion=ES64L-G16RevC.01\State=1-A\HF=-2365.83611\RMSD=3.833e-02\Dipole=
 -0.0412634,1.878433,-0.0000027\Quadrupole=-3.9214133,2.9854023,0.93601

 Normal termination of Gaussian 16 at Tue Apr  8 23:50:33 2025.
