 Gaussian 16, Revision C.01,

 ----------------------------------------------------------------------
 #t hf aug-cc-pvdz symm=none int=(grid=ultrafine) guess=(read,tcheck) s
 table=(opt,rrhf)
 ----------------------------------------------------------------------
 -----
 title
 -----
 Symbolic Z-matrix:
 Charge =  0 Multiplicity = 1

 SCF Done:  E(RHF) =  -816.962533124     A.U. after   15 cycles
 Normal termination of Gaussian 16 at Tue Apr  8 22:49:05 2025.
 Gaussian 16:  ES64L-G16RevC.01  3-Jul-2019

 ----------------------------------------------------------------------
 #t hf aug-cc-pvdz iop(5/13=1,5/36=2,99/5=2) pseudo=read geom=check gue
 ss=(read,tcheck) scf=(maxcycle=1)
 ----------------------------------------------------------------------
 -----
 title
 -----
 Structure from the checkpoint file:  "BDE49_expt_1603_mol1.chk"
 Charge =  0 Multiplicity = 1

                         Standard orientation:
 ---------------------------------------------------------------------
 Center     Atomic      Atomic             Coordinates (Angstroms)
 Number     Number       Type             X           Y           Z
 ---------------------------------------------------------------------
      1         16           0        0.091799   -1.480654   -0.000000
      2          6           0       -1.656760   -1.902588    0.000000
      3          8           0        0.644646   -1.925736    1.264166
      4          8           0        0.644646   -1.925736   -1.264166
      5          1           0       -2.120890   -1.500956    0.899638
      6          1           0       -1.701681   -2.992518   -0.000000
      7          1           0       -2.120890   -1.500956   -0.899638
      8          6           0        0.091099    0.315021    0.000000
      9          6           0        0.099838    0.996385    1.215838
     10          6           0        0.099838    0.996385   -1.215838
     11          6           0        0.099838    2.388829    1.209702
     12          6           0        0.099838    2.388829   -1.209702
     13          6           0        0.095860    3.082349    0.000000
     14          1           0        0.129355    0.438367    2.143248
     15          1           0        0.112487    2.931141    2.147944
     16          1           0        0.129355    0.438367   -2.143248
     17          1           0        0.112487    2.931141   -2.147944
     18          1           0        0.099341    4.166397    0.000000
 ---------------------------------------------------------------------

 SCF Done:  E(RHF) =  -819.165286928     A.U. after    2 cycles

 The electronic state is 1-A'.
 Alpha  occ. eigenvalues --  -75.88198 -21.03863 -21.03807 -13.51018 -13.40534
 Alpha  occ. eigenvalues --  -13.36095 -11.54179 -11.46062 -11.45698 -11.43706
 Alpha  occ. eigenvalues --  -11.43014 -11.42587 -11.39033  -8.23317  -1.82455
 Alpha  occ. eigenvalues --   -1.64487  -1.36851  -1.17120  -1.11704  -1.10817
 Alpha  occ. eigenvalues --   -0.94713  -0.89144  -0.84035  -0.73840  -0.67246
 Alpha  occ. eigenvalues --   -0.63984  -0.62915  -0.60818  -0.60047  -0.59779
 Alpha  occ. eigenvalues --   -0.56762  -0.52281  -0.47935  -0.47785  -0.42767
 Alpha  occ. eigenvalues --   -0.38878  -0.38682  -0.36466  -0.35159  -0.34859
 Alpha  occ. eigenvalues --   -0.34638
 Alpha virt. eigenvalues --    0.02483   0.04382   0.04877   0.04929   0.05510
 Alpha virt. eigenvalues --    0.06413   0.07273   0.07290   0.08477   0.09915
 Alpha virt. eigenvalues --    0.10038   0.11854   0.12049   0.12251   0.12908

 Mulliken charges:
               1
     1  S    6.444068
     2  C   -5.015236
     3  O   -2.733587
     4  O   -2.733587
     5  H    1.387322
     6  H    1.260354
     7  H    1.387322
     8  C    2.684272
     9  C   -3.401380
    10  C   -3.401380
    11  C   -0.733334
    12  C   -0.733334
    13  C   -2.721999
    14  H    1.876037
    15  H    1.503631
    16  H    1.876037
    17  H    1.503631
    18  H    1.551165
 Sum of Mulliken charges =  -0.00000

 Dipole moment (field-independent basis, Debye):
    X=             -1.6373    Y=              2.7182    Z=             -0.0000  Tot=              3.1732

 Test job not archived.
 1\1\GINC-SE095\SP\RHF\Aug-CC-pVDZ\C7H8O2S1\OHZDE\08-Apr-2025\0\\#t hf
 aug-cc-pvdz iop(5/13=1,5/36=2,99/5=2) pseudo=read geom=check guess=(re
 ad,tcheck) scf=(maxcycle=1)\\title\\0,1\S,0,-0.091799,-1.480654,0.\C,0
 ,1.65676,-1.902588,0.\O,0,-0.644646,-1.925736,-1.264166\O,0,-0.644646,
 -1.925736,1.264166\H,0,2.12089,-1.500956,-0.899638\H,0,1.701681,-2.992
 518,0.\H,0,2.12089,-1.500956,0.899638\C,0,-0.091099,0.315021,0.\C,0,-0
 .099838,0.996385,-1.215838\C,0,-0.099838,0.996385,1.215838\C,0,-0.0998
 38,2.388829,-1.209702\C,0,-0.099838,2.388829,1.209702\C,0,-0.09586,3.0

 Normal termination of Gaussian 16 at Tue Apr  8 22:49:11 2025.
