 Gaussian 16, Revision C.01,

 ----------------------------------------------------------------------
 #t hf aug-cc-pvdz symm=none int=(grid=ultrafine) guess=(read,tcheck) s
 table=opt
 ----------------------------------------------------------------------
 -----
 title
 -----
 Symbolic Z-matrix:
 Charge =  0 Multiplicity = 2

 SCF Done:  E(UHF) =  -391.553537011     A.U. after   17 cycles
 Normal termination of Gaussian 16 at Wed Apr  9 00:34:20 2025.
 Gaussian 16:  ES64L-G16RevC.01  3-Jul-2019

 ----------------------------------------------------------------------
 #t hf aug-cc-pvdz iop(5/13=1,5/36=2,99/5=2) pseudo=read geom=check gue
 ss=(read,tcheck) scf=(maxcycle=1)
 ----------------------------------------------------------------------
 -----
 title
 -----
 Structure from the checkpoint file:  "BDE49_nonexpt_418_mol2.chk"
 Charge =  0 Multiplicity = 2

                         Standard orientation:
 ---------------------------------------------------------------------
 Center     Atomic      Atomic             Coordinates (Angstroms)
 Number     Number       Type             X           Y           Z
 ---------------------------------------------------------------------
      1          9           0        2.383684   -0.712347    0.014457
      2          5           0        1.444908   -0.151719   -0.706984
      3          6           0        0.037748    0.326092   -0.098592
      4          8           0       -0.732318   -0.849381   -0.349347
      5          8           0       -0.485557    1.452488   -0.779640
      6          6           0       -2.086691   -0.839847    0.107174
      7          1           0       -2.149194   -0.958465    1.194278
      8          1           0       -2.572447   -1.691060   -0.369193
      9          1           0       -2.593252    0.081909   -0.190935
     10          6           0        0.111607    0.710762    1.376172
     11          1           0        0.423314   -0.144438    1.977983
     12          1           0       -0.859318    1.068145    1.726671
     13          1           0        0.831077    1.520324    1.514760
     14          1           0       -0.390862    1.286395   -1.725388
 ---------------------------------------------------------------------

 SCF Done:  E(UHF) =  -393.178911034     A.U. after    2 cycles

 The electronic state is 2-A.
 Alpha  occ. eigenvalues --  -29.26888 -21.07937 -21.05354 -11.46910 -11.40719
 Alpha  occ. eigenvalues --  -11.37481  -7.68726  -1.80872  -1.67391  -1.13910
 Alpha  occ. eigenvalues --   -1.02400  -0.96936  -0.81439  -0.68833  -0.64690
 Alpha  occ. eigenvalues --   -0.62335  -0.58303  -0.56883  -0.51605  -0.51328
 Alpha  occ. eigenvalues --   -0.49076  -0.47997  -0.42849  -0.41558  -0.35898
 Alpha  occ. eigenvalues --   -0.32604  -0.30062  -0.22059
 Alpha virt. eigenvalues --    0.03467   0.04562   0.04668   0.05354   0.05833
 Alpha virt. eigenvalues --    0.06190   0.06438   0.06648   0.09337   0.10142
 Alpha virt. eigenvalues --    0.11510   0.13234   0.13701   0.14708   0.15044

  Beta  occ. eigenvalues --  -29.26604 -21.07970 -21.05380 -11.46614 -11.40720
  Beta  occ. eigenvalues --  -11.37423  -7.66890  -1.80757  -1.67410  -1.12957
  Beta  occ. eigenvalues --   -1.01555  -0.94756  -0.80558  -0.67788  -0.64603
  Beta  occ. eigenvalues --   -0.62052  -0.57361  -0.56750  -0.51334  -0.50712
  Beta  occ. eigenvalues --   -0.48443  -0.42486  -0.41710  -0.41246  -0.35140
  Beta  occ. eigenvalues --   -0.30737  -0.29740
  Beta virt. eigenvalues --    0.03228   0.04182   0.04711   0.05330   0.05840
  Beta virt. eigenvalues --    0.06206   0.06451   0.06603   0.09104   0.09388
  Beta virt. eigenvalues --    0.10568   0.12508   0.13581   0.14263   0.15205

 Mulliken charges and spin densities:
               1          2
     1  F   -0.837520  -0.092363
     2  B    0.577100   1.020628
     3  C    5.262307   0.153005
     4  O   -3.636425   0.013600
     5  O   -3.285807  -0.005244
     6  C   -3.170498  -0.005055
     7  H    1.500479   0.003654
     8  H    1.302204  -0.002501
     9  H    1.281604   0.000295
    10  C   -3.618350  -0.045916
    11  H    1.274739   0.000723
    12  H    1.278843  -0.004529
    13  H    1.156334   0.001064
    14  H    0.914991  -0.037363
 Sum of Mulliken charges =  -0.00000   1.00000

 Dipole moment (field-independent basis, Debye):
    X=              1.7466    Y=             -1.5196    Z=              2.4356  Tot=              3.3604
                          Isotropic Fermi Contact Couplings
        Atom                 a.u.       MegaHertz       Gauss      10(-4) cm-1
     1  F(19)              0.05109     214.96683      76.70551      71.70522
     2  B(11)              0.19280     276.54345      98.67758      92.24497
     3  C(13)              0.05809      65.30489      23.30241      21.78337
     4  O(17)             -0.00850       5.15186       1.83831       1.71848
     5  O(17)              0.00687      -4.16371      -1.48572      -1.38886
     6  C(13)              0.00149       1.67858       0.59896       0.55991
     7  H(1)               0.00016       0.71709       0.25588       0.23920
     8  H(1)               0.00050       2.22365       0.79345       0.74173

 Normal termination of Gaussian 16 at Wed Apr  9 00:34:24 2025.
