 Gaussian 16, Revision C.01,

 ----------------------------------------------------------------------
 #t hf aug-cc-pvdz symm=none int=(grid=ultrafine) guess=(read,tcheck) s
 table=(opt,rrhf)
 ----------------------------------------------------------------------
 -----
 title
 -----
 Symbolic Z-matrix:
 Charge =  0 Multiplicity = 1

 SCF Done:  E(RHF) =  -1510.54153833     A.U. after   18 cycles
 Normal termination of Gaussian 16 at Tue Apr  8 23:49:16 2025.
 Gaussian 16:  ES64L-G16RevC.01  3-Jul-2019

 ----------------------------------------------------------------------
 #t hf aug-cc-pvdz iop(5/13=1,5/36=2,99/5=2) pseudo=read geom=check gue
 ss=(read,tcheck) scf=(maxcycle=1)
 ----------------------------------------------------------------------
 -----
 title
 -----
 Structure from the checkpoint file:  "BDE49_nonexpt_1718_mol1.chk"
 Charge =  0 Multiplicity = 1

                         Standard orientation:
 ---------------------------------------------------------------------
 Center     Atomic      Atomic             Coordinates (Angstroms)
 Number     Number       Type             X           Y           Z
 ---------------------------------------------------------------------
      1          6           0       -3.446194   -0.041211    0.017322
      2          6           0       -2.918368    1.243307   -0.053063
      3          6           0       -1.539840    1.392189   -0.084590
      4          6           0       -2.643748   -1.174456    0.058416
      5          6           0       -1.264466   -1.014908    0.024122
      6          6           0       -0.704527    0.266261   -0.051350
      7          1           0       -3.585011    2.093586   -0.081619
      8          1           0       -1.091513    2.375455   -0.135815
      9          1           0       -3.102408   -2.151052    0.119817
     10          1           0       -0.629759   -1.890215    0.069943
     11          6           0        0.769351    0.509133   -0.088130
     12         16           0        1.795979   -0.938420   -0.396180
     13         15           0        3.782881   -0.170810   -0.000720
     14          8           0        4.744607   -1.129961   -0.530273
     15          8           0        1.224829    1.631891    0.044760
     16          7           0       -4.922044   -0.208633    0.053822
     17          8           0       -5.602317    0.805154    0.012771
     18          8           0       -5.355897   -1.348659    0.122390
     19          8           0        3.818926    0.064857    1.581813
     20          1           0        4.075988   -0.731981    2.063248
     21          8           0        3.778480    1.291234   -0.562527
     22          1           0        2.925852    1.743495   -0.350500
 ---------------------------------------------------------------------

 SCF Done:  E(RHF) =  -1514.28619839     A.U. after    2 cycles

 The electronic state is 1-A.
 Alpha  occ. eigenvalues -- -105.34551 -75.74015 -21.14028 -21.12468 -21.11675
 Alpha  occ. eigenvalues --  -21.11553 -21.11328 -21.04895 -16.02219 -13.19635
 Alpha  occ. eigenvalues --  -13.16368 -13.08031 -11.58510 -11.57301 -11.51098
 Alpha  occ. eigenvalues --  -11.50100 -11.49636 -11.47329 -11.43433  -8.08334
 Alpha  occ. eigenvalues --   -2.96921  -2.03178  -2.02000  -1.94099  -1.80249
 Alpha  occ. eigenvalues --   -1.78218  -1.71322  -1.55345  -1.41751  -1.41084
 Alpha  occ. eigenvalues --   -1.27314  -1.23294  -1.16181  -1.14499  -1.04536
 Alpha  occ. eigenvalues --   -0.93500  -0.89452  -0.82429  -0.75896  -0.72727
 Alpha  occ. eigenvalues --   -0.69780  -0.68712  -0.67456  -0.66514  -0.64562
 Alpha  occ. eigenvalues --   -0.63607  -0.60470  -0.59014  -0.56894  -0.53940
 Alpha  occ. eigenvalues --   -0.53324  -0.52333  -0.49411  -0.45730  -0.44061
 Alpha  occ. eigenvalues --   -0.38885  -0.38190  -0.37797  -0.37414  -0.36518
 Alpha  occ. eigenvalues --   -0.33369  -0.33258  -0.32151  -0.31143  -0.29087
 Alpha  occ. eigenvalues --   -0.25430  -0.17069
 Alpha virt. eigenvalues --    0.02000   0.03120   0.04201   0.05407   0.05923
 Alpha virt. eigenvalues --    0.06326   0.06447   0.07449   0.08135   0.09199
 Alpha virt. eigenvalues --    0.09457   0.10092   0.10626   0.11002   0.11265

 Mulliken charges:
               1
     1  C    1.124863
     2  C   -2.616144
     3  C   -1.573697
     4  C   -3.747882
     5  C    1.807839
     6  C    3.208943
     7  H    1.855343
     8  H    1.848127
     9  H    1.829743
    10  H    2.065630
    11  C    0.635429
    12  S   -1.265052
    13  P    7.784436
    14  O   -2.847287
    15  O   -3.946641
    16  N    3.328811
    17  O   -2.999926
    18  O   -2.984965
    19  O   -2.620584
    20  H    0.867088
    21  O   -3.372534
    22  H    1.618460
 Sum of Mulliken charges =  -0.00000

 Dipole moment (field-independent basis, Debye):
    X=              0.7247    Y=              0.8136    Z=              1.5926  Tot=              1.9297

 Test job not archived.
 1\1\GINC-SE332\SP\RHF\Aug-CC-pVDZ\C7H6N1O6P1S1\OHZDE\08-Apr-2025\0\\#t
  hf aug-cc-pvdz iop(5/13=1,5/36=2,99/5=2) pseudo=read geom=check guess
 =(read,tcheck) scf=(maxcycle=1)\\title\\0,1\C,0,-3.446194,-0.041211,0.
 017322\C,0,-2.918368,1.243307,-0.053063\C,0,-1.53984,1.392189,-0.08459
 \C,0,-2.643748,-1.174456,0.058416\C,0,-1.264466,-1.014908,0.024122\C,0
 ,-0.704527,0.266261,-0.05135\H,0,-3.585011,2.093586,-0.081619\H,0,-1.0
 91513,2.375455,-0.135815\H,0,-3.102408,-2.151052,0.119817\H,0,-0.62975
 9,-1.890215,0.069943\C,0,0.769351,0.509133,-0.08813\S,0,1.795979,-0.93

 Normal termination of Gaussian 16 at Tue Apr  8 23:49:36 2025.
