 Gaussian 16, Revision C.01,

 ----------------------------------------------------------------------
 #t hf aug-cc-pvdz symm=none int=(grid=ultrafine) guess=(read,tcheck) s
 table=opt
 ----------------------------------------------------------------------
 -----
 title
 -----
 Symbolic Z-matrix:
 Charge =  0 Multiplicity = 2

 SCF Done:  E(UHF) =  -391.532437464     A.U. after   16 cycles
 Normal termination of Gaussian 16 at Wed Apr  9 00:34:18 2025.
 Gaussian 16:  ES64L-G16RevC.01  3-Jul-2019

 ----------------------------------------------------------------------
 #t hf aug-cc-pvdz iop(5/13=1,5/36=2,99/5=2) pseudo=read geom=check gue
 ss=(read,tcheck) scf=(maxcycle=1)
 ----------------------------------------------------------------------
 -----
 title
 -----
 Structure from the checkpoint file:  "BDE49_nonexpt_417_mol2.chk"
 Charge =  0 Multiplicity = 2

                         Standard orientation:
 ---------------------------------------------------------------------
 Center     Atomic      Atomic             Coordinates (Angstroms)
 Number     Number       Type             X           Y           Z
 ---------------------------------------------------------------------
      1          9           0        2.644206    0.075781   -0.025967
      2          5           0        1.509733   -0.545818   -0.243955
      3          6           0        0.146450    0.002919    0.405119
      4          8           0       -0.819794   -0.970648    0.711675
      5          8           0       -0.297887    0.974913   -0.519965
      6          6           0       -1.266823   -1.744463   -0.400923
      7          1           0       -1.944494   -2.496852    0.000957
      8          1           0       -0.423874   -2.237631   -0.899980
      9          1           0       -1.795376   -1.125503   -1.131709
     10          6           0       -1.240645    1.901276    0.019106
     11          1           0       -1.540439    2.556513   -0.798300
     12          1           0       -0.784953    2.502437    0.815979
     13          1           0       -2.118683    1.383424    0.416247
     14          1           0        0.368854    0.472164    1.376789
 ---------------------------------------------------------------------

 SCF Done:  E(UHF) =  -393.153004881     A.U. after    2 cycles

 The electronic state is 2-A.
 Alpha  occ. eigenvalues --  -29.26624 -21.05883 -21.05370 -11.43546 -11.41031
 Alpha  occ. eigenvalues --  -11.40157  -7.68306  -1.82031  -1.69510  -1.09322
 Alpha  occ. eigenvalues --   -0.99332  -0.97617  -0.83297  -0.69711  -0.65484
 Alpha  occ. eigenvalues --   -0.61351  -0.60531  -0.59303  -0.53486  -0.52114
 Alpha  occ. eigenvalues --   -0.47795  -0.45226  -0.42730  -0.40321  -0.36482
 Alpha  occ. eigenvalues --   -0.32229  -0.30308  -0.21481
 Alpha virt. eigenvalues --    0.03679   0.04286   0.04598   0.05322   0.05823
 Alpha virt. eigenvalues --    0.06208   0.06687   0.06941   0.08392   0.09863
 Alpha virt. eigenvalues --    0.11241   0.13255   0.13564   0.14719   0.15525

  Beta  occ. eigenvalues --  -29.26334 -21.05895 -21.05403 -11.43231 -11.41020
  Beta  occ. eigenvalues --  -11.40101  -7.66431  -1.81944  -1.69521  -1.07678
  Beta  occ. eigenvalues --   -0.98755  -0.96121  -0.81945  -0.68947  -0.65050
  Beta  occ. eigenvalues --   -0.61079  -0.59963  -0.59238  -0.52732  -0.51441
  Beta  occ. eigenvalues --   -0.45087  -0.42336  -0.41336  -0.39691  -0.35607
  Beta  occ. eigenvalues --   -0.30561  -0.29313
  Beta virt. eigenvalues --    0.03283   0.04340   0.04632   0.05328   0.05833
  Beta virt. eigenvalues --    0.06224   0.06532   0.06945   0.07781   0.09828
  Beta virt. eigenvalues --    0.10446   0.12707   0.13642   0.14485   0.14933

 Mulliken charges and spin densities:
               1          2
     1  F   -0.454790  -0.126350
     2  B    0.748000   1.076065
     3  C    1.854339   0.066650
     4  O   -3.082177   0.023663
     5  O   -3.014260   0.020883
     6  C   -3.026877  -0.039994
     7  H    1.181978  -0.003996
     8  H    1.475905  -0.018506
     9  H    1.416261  -0.010389
    10  C   -3.058587  -0.005674
    11  H    1.278372   0.003067
    12  H    1.336583   0.008528
    13  H    1.371338  -0.002549
    14  H    1.973914   0.008601
 Sum of Mulliken charges =  -0.00000   1.00000

 Dipole moment (field-independent basis, Debye):
    X=              2.1671    Y=              2.1225    Z=              0.7274  Tot=              3.1194
                          Isotropic Fermi Contact Couplings
        Atom                 a.u.       MegaHertz       Gauss      10(-4) cm-1
     1  F(19)              0.05351     225.15205      80.33985      75.10264
     2  B(11)              0.19197     275.35013      98.25177      91.84692
     3  C(13)              0.06112      68.70561      24.51587      22.91772
     4  O(17)              0.00514      -3.11378      -1.11107      -1.03865
     5  O(17)             -0.00465       2.81922       1.00597       0.94039
     6  C(13)              0.00287       3.22678       1.15140       1.07634
     7  H(1)              -0.00001      -0.05307      -0.01893      -0.01770
     8  H(1)               0.00116       5.18450       1.84996       1.72936

 Normal termination of Gaussian 16 at Wed Apr  9 00:34:22 2025.
