 Gaussian 16, Revision C.01,

 ----------------------------------------------------------------------
 #t hf aug-cc-pvdz symm=none int=(grid=ultrafine) guess=(read,tcheck) s
 table=(opt,rrhf)
 ----------------------------------------------------------------------
 -----
 title
 -----
 Symbolic Z-matrix:
 Charge =  0 Multiplicity = 1

 SCF Done:  E(RHF) =  -871.439459900     A.U. after   10 cycles
 Normal termination of Gaussian 16 at Tue Apr  8 22:59:39 2025.
 Gaussian 16:  ES64L-G16RevC.01  3-Jul-2019

 ----------------------------------------------------------------------
 #t hf aug-cc-pvdz iop(5/13=1,5/36=2,99/5=2) pseudo=read geom=check gue
 ss=(read,tcheck) scf=(maxcycle=1)
 ----------------------------------------------------------------------
 -----
 title
 -----
 Structure from the checkpoint file:  "BDE49_expt_1939_mol1.chk"
 Charge =  0 Multiplicity = 1

                         Standard orientation:
 ---------------------------------------------------------------------
 Center     Atomic      Atomic             Coordinates (Angstroms)
 Number     Number       Type             X           Y           Z
 ---------------------------------------------------------------------
      1         14           0        1.958631   -0.420723    0.000008
      2         14           0        0.000000    0.893405   -0.000004
      3          1           0        1.993879   -1.286270   -1.203701
      4          1           0        1.993872   -1.286259    1.203724
      5          1           0        3.166734    0.439499    0.000008
      6         14           0       -1.958631   -0.420723   -0.000004
      7          1           0        0.000004    1.769312   -1.200495
      8          1           0       -0.000004    1.769323    1.200479
      9          1           0       -1.993872   -1.286270   -1.203713
     10          1           0       -3.166734    0.439499   -0.000012
     11          1           0       -1.993880   -1.286259    1.203712
 ---------------------------------------------------------------------

 SCF Done:  E(RHF) =  -871.939319240     A.U. after    2 cycles

 The electronic state is 1-A.
 Alpha  occ. eigenvalues --  -76.21985 -76.21949 -76.21551  -5.55364  -5.55363
 Alpha  occ. eigenvalues --   -5.55121  -2.17442  -2.17437  -2.17408  -2.17397
 Alpha  occ. eigenvalues --   -2.17195  -2.17004  -2.16780  -2.15913  -2.15752
 Alpha  occ. eigenvalues --   -0.83186  -0.76789  -0.69121  -0.49431  -0.47861
 Alpha  occ. eigenvalues --   -0.47393  -0.47197  -0.45938  -0.38368  -0.32234
 Alpha virt. eigenvalues --    0.04111   0.04382   0.04822   0.06438   0.07301
 Alpha virt. eigenvalues --    0.07448   0.07821   0.08109   0.08730   0.09145
 Alpha virt. eigenvalues --    0.09372   0.09407   0.09821   0.10073   0.10391

 Mulliken charges:
               1
     1  Si   4.918190
     2  Si   2.508610
     3  H   -1.498025
     4  H   -1.498027
     5  H   -1.588071
     6  Si   4.918190
     7  H   -1.588371
     8  H   -1.588371
     9  H   -1.498026
    10  H   -1.588072
    11  H   -1.498027
 Sum of Mulliken charges =  -0.00000

 Dipole moment (field-independent basis, Debye):
    X=              0.0000    Y=              0.1134    Z=              0.0000  Tot=              0.1134

 Test job not archived.
 1\1\GINC-SE334\SP\RHF\Aug-CC-pVDZ\H8Si3\OHZDE\08-Apr-2025\0\\#t hf aug
 -cc-pvdz iop(5/13=1,5/36=2,99/5=2) pseudo=read geom=check guess=(read,
 tcheck) scf=(maxcycle=1)\\title\\0,1\Si,0,1.958631,-0.420723,0.000008\
 Si,0,0.,0.893405,-0.000004\H,0,1.993879,-1.28627,-1.203701\H,0,1.99387
 2,-1.286259,1.203724\H,0,3.166734,0.439499,0.000008\Si,0,-1.958631,-0.
 420723,-0.000004\H,0,0.000004,1.769312,-1.200495\H,0,-0.000004,1.76932
 3,1.200479\H,0,-1.993872,-1.28627,-1.203713\H,0,-3.166734,0.439499,-0.
 000012\H,0,-1.99388,-1.286259,1.203712\\Version=ES64L-G16RevC.01\State

 Normal termination of Gaussian 16 at Tue Apr  8 22:59:42 2025.
