 Gaussian 16, Revision C.01,

 ----------------------------------------------------------------------
 #t hf aug-cc-pvdz symm=none int=(grid=ultrafine) guess=(read,tcheck) s
 table=(opt,rrhf)
 ----------------------------------------------------------------------
 -----
 title
 -----
 Symbolic Z-matrix:
 Charge =  0 Multiplicity = 1

 SCF Done:  E(RHF) =  -835.266544336     A.U. after   13 cycles
 Normal termination of Gaussian 16 at Tue Apr  8 22:47:28 2025.
 Gaussian 16:  ES64L-G16RevC.01  3-Jul-2019

 ----------------------------------------------------------------------
 #t hf aug-cc-pvdz iop(5/13=1,5/36=2,99/5=2) pseudo=read geom=check gue
 ss=(read,tcheck) scf=(maxcycle=1)
 ----------------------------------------------------------------------
 -----
 title
 -----
 Structure from the checkpoint file:  "BDE49_expt_1590_mol1.chk"
 Charge =  0 Multiplicity = 1

                         Standard orientation:
 ---------------------------------------------------------------------
 Center     Atomic      Atomic             Coordinates (Angstroms)
 Number     Number       Type             X           Y           Z
 ---------------------------------------------------------------------
      1          6           0       -1.664501    0.690282   -0.004594
      2         16           0       -0.485713   -0.707072    0.014339
      3          1           0       -2.657222    0.234921   -0.048817
      4          1           0       -1.511281    1.310595   -0.886418
      5          1           0       -1.580040    1.286830    0.903136
      6         16           0        1.370544    0.244083   -0.087604
      7          1           0        1.578244    0.433797    1.231895
 ---------------------------------------------------------------------

 SCF Done:  E(RHF) =  -835.932493214     A.U. after    2 cycles

 The electronic state is 1-A.
 Alpha  occ. eigenvalues --  -75.71434 -75.70768 -13.14130 -13.10989 -13.08632
 Alpha  occ. eigenvalues --  -13.07085 -13.03545 -13.03020 -11.40225  -8.05168
 Alpha  occ. eigenvalues --   -8.04622  -1.24103  -1.07425  -0.90785  -0.59964
 Alpha  occ. eigenvalues --   -0.59495  -0.51857  -0.45110  -0.35234  -0.26193
 Alpha  occ. eigenvalues --   -0.24464
 Alpha virt. eigenvalues --    0.02611   0.03359   0.05380   0.05854   0.07239
 Alpha virt. eigenvalues --    0.10483   0.12446   0.13894   0.14246   0.14745
 Alpha virt. eigenvalues --    0.16056   0.16641   0.17712   0.18081   0.20075

 Mulliken charges:
               1
     1  C   -4.375612
     2  S    0.160293
     3  H    1.356952
     4  H    1.436442
     5  H    1.411065
     6  S   -1.202749
     7  H    1.213610
 Sum of Mulliken charges =  -0.00000

 Dipole moment (field-independent basis, Debye):
    X=             -0.1538    Y=             -0.4712    Z=             -0.8243  Tot=              0.9619

 Test job not archived.
 1\1\GINC-SE109\SP\RHF\Aug-CC-pVDZ\C1H4S2\OHZDE\08-Apr-2025\0\\#t hf au
 g-cc-pvdz iop(5/13=1,5/36=2,99/5=2) pseudo=read geom=check guess=(read
 ,tcheck) scf=(maxcycle=1)\\title\\0,1\C,0,-1.664501,0.690282,-0.004594
 \S,0,-0.485713,-0.707072,0.014339\H,0,-2.657222,0.234921,-0.048817\H,0
 ,-1.511281,1.310595,-0.886418\H,0,-1.58004,1.28683,0.903136\S,0,1.3705
 44,0.244083,-0.087604\H,0,1.578244,0.433797,1.231895\\Version=ES64L-G1
 6RevC.01\State=1-A\HF=-835.9324932\RMSD=8.937e-02\Dipole=-0.0605283,-0
 .185396,-0.3243073\Quadrupole=1.9607239,-1.0313046,-0.9294193,1.278378

 Normal termination of Gaussian 16 at Tue Apr  8 22:47:30 2025.
