 Gaussian 16, Revision C.01,

 ----------------------------------------------------------------------
 #t hf aug-cc-pvdz symm=none int=(grid=ultrafine) guess=(read,tcheck) s
 table=opt
 ----------------------------------------------------------------------
 -----
 title
 -----
 Symbolic Z-matrix:
 Charge =  0 Multiplicity = 2

 SCF Done:  E(UHF) =  -1416.32525479     A.U. after   15 cycles
 Normal termination of Gaussian 16 at Tue Apr  8 22:29:38 2025.
 Gaussian 16:  ES64L-G16RevC.01  3-Jul-2019

 ----------------------------------------------------------------------
 #t hf aug-cc-pvdz iop(5/13=1,5/36=2,99/5=2) pseudo=read geom=check gue
 ss=(read,tcheck) scf=(maxcycle=1)
 ----------------------------------------------------------------------
 -----
 title
 -----
 Structure from the checkpoint file:  "BDE49_expt_1000_mol2.chk"
 Charge =  0 Multiplicity = 2

                         Standard orientation:
 ---------------------------------------------------------------------
 Center     Atomic      Atomic             Coordinates (Angstroms)
 Number     Number       Type             X           Y           Z
 ---------------------------------------------------------------------
      1          6           0        0.000064    0.000002    0.271415
      2         17           0       -0.841186    1.475277   -0.031938
      3         17           0       -0.857201   -1.466032   -0.031936
      4         17           0        1.698364   -0.009246   -0.031919
 ---------------------------------------------------------------------

 SCF Done:  E(UHF) =  -1417.20903474     A.U. after    2 cycles

 The electronic state is 2-A.
 Alpha  occ. eigenvalues --  -99.93377 -99.93376 -99.93349 -11.53131 -10.51054
 Alpha  occ. eigenvalues --  -10.50671 -10.50670  -9.70579  -9.70579  -9.70275
 Alpha  occ. eigenvalues --   -9.69846  -9.69845  -9.69804  -9.69753  -9.69690
 Alpha  occ. eigenvalues --   -9.69690  -1.47733  -1.32665  -1.32664  -0.97437
 Alpha  occ. eigenvalues --   -0.72222  -0.72220  -0.69745  -0.56768  -0.56767
 Alpha  occ. eigenvalues --   -0.53951  -0.53949  -0.51719  -0.39841
 Alpha virt. eigenvalues --   -0.00503   0.05029   0.06588   0.06588   0.09962
 Alpha virt. eigenvalues --    0.09962   0.11917   0.14890   0.14972   0.14972
 Alpha virt. eigenvalues --    0.17555   0.17555   0.18342   0.18342   0.18369

  Beta  occ. eigenvalues --  -99.93333 -99.93333 -99.93306 -11.50220 -10.51004
  Beta  occ. eigenvalues --  -10.50621 -10.50621  -9.70758  -9.70757  -9.70414
  Beta  occ. eigenvalues --   -9.69777  -9.69668  -9.69668  -9.69484  -9.69484
  Beta  occ. eigenvalues --   -9.69425  -1.45531  -1.32275  -1.32274  -0.91253
  Beta  occ. eigenvalues --   -0.70979  -0.70977  -0.62106  -0.55255  -0.55253
  Beta  occ. eigenvalues --   -0.53452  -0.53451  -0.51561
  Beta virt. eigenvalues --    0.00551   0.01017   0.05412   0.07299   0.07299
  Beta virt. eigenvalues --    0.10269   0.10269   0.12232   0.15022   0.15022
  Beta virt. eigenvalues --    0.15502   0.17867   0.17868   0.18566   0.18866

 Mulliken charges and spin densities:
               1          2
     1  C   -1.741517   1.130187
     2  Cl   0.580487  -0.043389
     3  Cl   0.580482  -0.043390
     4  Cl   0.580549  -0.043407
 Sum of Mulliken charges =  -0.00000   1.00000

 Dipole moment (field-independent basis, Debye):
    X=             -0.0000    Y=              0.0000    Z=              0.0178  Tot=              0.0178
                          Isotropic Fermi Contact Couplings
        Atom                 a.u.       MegaHertz       Gauss      10(-4) cm-1
     1  C(13)              0.28908     324.98110     115.96134     108.40203
     2  Cl(35)             0.05280      23.15240       8.26135       7.72281
     3  Cl(35)             0.05280      23.15249       8.26138       7.72284
     4  Cl(35)             0.05282      23.15945       8.26387       7.72516
 --------------------------------------------------------
       Center         ----  Spin Dipole Couplings  ----
                      3XX-RR        3YY-RR        3ZZ-RR
 --------------------------------------------------------

 Normal termination of Gaussian 16 at Tue Apr  8 22:29:39 2025.
