 Gaussian 16, Revision C.01,

 ----------------------------------------------------------------------
 #t hf aug-cc-pvdz symm=none int=(grid=ultrafine) guess=(read,tcheck) s
 table=(opt,rrhf)
 ----------------------------------------------------------------------
 -----
 title
 -----
 Symbolic Z-matrix:
 Charge =  0 Multiplicity = 1

 SCF Done:  E(RHF) =  -834.759733207     A.U. after   12 cycles
 Normal termination of Gaussian 16 at Tue Apr  8 22:30:21 2025.
 Gaussian 16:  ES64L-G16RevC.01  3-Jul-2019

 ----------------------------------------------------------------------
 #t hf aug-cc-pvdz iop(5/13=1,5/36=2,99/5=2) pseudo=read geom=check gue
 ss=(read,tcheck) scf=(maxcycle=1)
 ----------------------------------------------------------------------
 -----
 title
 -----
 Structure from the checkpoint file:  "BDE49_expt_1003_mol1.chk"
 Charge =  0 Multiplicity = 1

                         Standard orientation:
 ---------------------------------------------------------------------
 Center     Atomic      Atomic             Coordinates (Angstroms)
 Number     Number       Type             X           Y           Z
 ---------------------------------------------------------------------
      1          6           0        0.942712   -0.226810   -0.325031
      2          6           0       -0.257903    0.424773    0.359100
      3          1           0        0.852465   -0.232447   -1.413024
      4          9           0        1.086095   -1.498820    0.129847
      5          9           0        2.054818    0.475176    0.028471
      6         17           0       -1.763104   -0.446969   -0.059953
      7          9           0       -0.345310    1.716609   -0.071079
      8          1           0       -0.148982    0.406461    1.442673
 ---------------------------------------------------------------------

 SCF Done:  E(RHF) =  -836.369927383     A.U. after    2 cycles

 The electronic state is 1-A.
 Alpha  occ. eigenvalues --  -99.91695 -29.31058 -29.30893 -29.30611 -11.57039
 Alpha  occ. eigenvalues --  -11.51670 -10.49083  -9.68922  -9.68129  -9.68070
 Alpha  occ. eigenvalues --   -1.43816  -1.30123  -1.10604  -0.85282  -0.81530
 Alpha  occ. eigenvalues --   -0.76102  -0.70240  -0.66510  -0.54193  -0.53014
 Alpha  occ. eigenvalues --   -0.45817  -0.43023  -0.40410  -0.35290  -0.33918
 Alpha  occ. eigenvalues --   -0.31559  -0.29870  -0.26784  -0.23208
 Alpha virt. eigenvalues --    0.04772   0.05302   0.06864   0.09935   0.11507
 Alpha virt. eigenvalues --    0.11765   0.12340   0.12847   0.15061   0.15347
 Alpha virt. eigenvalues --    0.16514   0.17091   0.21149   0.21975   0.23174

 Mulliken charges:
               1
     1  C   -1.231832
     2  C   -3.165340
     3  H    1.460997
     4  F    0.383501
     5  F    0.431121
     6  Cl  -0.129935
     7  F    0.605971
     8  H    1.645516
 Sum of Mulliken charges =  -0.00000

 Dipole moment (field-independent basis, Debye):
    X=              3.3037    Y=              2.1481    Z=              0.5404  Tot=              3.9775

 Test job not archived.
 1\1\GINC-SE247\SP\RHF\Aug-CC-pVDZ\C2H2Cl1F3\OHZDE\08-Apr-2025\0\\#t hf
  aug-cc-pvdz iop(5/13=1,5/36=2,99/5=2) pseudo=read geom=check guess=(r
 ead,tcheck) scf=(maxcycle=1)\\title\\0,1\C,0,0.942712,-0.22681,-0.3250
 31\C,0,-0.257903,0.424773,0.3591\H,0,0.852465,-0.232447,-1.413024\F,0,
 1.086096,-1.49882,0.129847\F,0,2.054818,0.475177,0.028471\Cl,0,-1.7631
 04,-0.44697,-0.059953\F,0,-0.34531,1.716609,-0.071079\H,0,-0.148982,0.
 406461,1.442673\\Version=ES64L-G16RevC.01\State=1-A\HF=-836.3699274\RM
 SD=1.664e-01\Dipole=1.2997819,0.8451101,0.2125954\Quadrupole=-1.01825,

 Normal termination of Gaussian 16 at Tue Apr  8 22:30:24 2025.
