 Gaussian 16, Revision C.01,

 ----------------------------------------------------------------------
 #t hf aug-cc-pvdz symm=none int=(grid=ultrafine) guess=(read,tcheck) s
 table=(opt,rrhf)
 ----------------------------------------------------------------------
 -----
 title
 -----
 Symbolic Z-matrix:
 Charge =  0 Multiplicity = 1

 SCF Done:  E(RHF) =  -1163.47799287     A.U. after   15 cycles
 Normal termination of Gaussian 16 at Wed Apr  9 00:20:32 2025.
 Gaussian 16:  ES64L-G16RevC.01  3-Jul-2019

 ----------------------------------------------------------------------
 #t hf aug-cc-pvdz iop(5/13=1,5/36=2,99/5=2) pseudo=read geom=check gue
 ss=(read,tcheck) scf=(maxcycle=1)
 ----------------------------------------------------------------------
 -----
 title
 -----
 Structure from the checkpoint file:  "BDE49_nonexpt_2585_mol1.chk"
 Charge =  0 Multiplicity = 1

                         Standard orientation:
 ---------------------------------------------------------------------
 Center     Atomic      Atomic             Coordinates (Angstroms)
 Number     Number       Type             X           Y           Z
 ---------------------------------------------------------------------
      1         17           0        2.515344   -0.062236    0.220071
      2         16           0        0.879340   -0.490939   -0.990081
      3          6           0       -0.549156   -0.201058    0.216640
      4          8           0       -1.570756   -0.334631   -0.745436
      5          8           0       -0.537088    1.037049    0.831984
      6          6           0       -2.907585   -0.459298   -0.249769
      7          1           0       -3.556350   -0.356633   -1.118246
      8          1           0       -3.133921    0.331965    0.470511
      9          1           0       -3.076046   -1.436950    0.211032
     10          6           0       -0.494791    2.197206   -0.008482
     11          1           0       -0.719861    3.039346    0.643998
     12          1           0       -1.235909    2.133248   -0.807255
     13          1           0        0.499574    2.322078   -0.442710
     14          6           0       -0.560429   -1.245918    1.319424
     15          1           0       -0.675875   -2.242068    0.892606
     16          1           0       -1.374496   -1.041578    2.018222
     17          1           0        0.377120   -1.201302    1.872685
 ---------------------------------------------------------------------

 SCF Done:  E(RHF) =  -1165.36392534     A.U. after    2 cycles

 The electronic state is 1-A.
 Alpha  occ. eigenvalues --  -99.89714 -75.72989 -21.07062 -21.06794 -13.19089
 Alpha  occ. eigenvalues --  -13.11225 -13.09892 -11.52216 -11.42446 -11.41044
 Alpha  occ. eigenvalues --  -11.38606 -10.46833  -9.66671  -9.66066  -9.65946
 Alpha  occ. eigenvalues --   -8.06687  -1.84577  -1.71725  -1.32736  -1.15700
 Alpha  occ. eigenvalues --   -1.06299  -1.00762  -0.98605  -0.79387  -0.67505
 Alpha  occ. eigenvalues --   -0.66644  -0.64902  -0.61865  -0.60304  -0.58206
 Alpha  occ. eigenvalues --   -0.57052  -0.54409  -0.53415  -0.52720  -0.50538
 Alpha  occ. eigenvalues --   -0.46117  -0.45225  -0.35998  -0.32118  -0.30027
 Alpha  occ. eigenvalues --   -0.25406
 Alpha virt. eigenvalues --    0.03227   0.04691   0.05152   0.05372   0.05599
 Alpha virt. eigenvalues --    0.05809   0.05870   0.06819   0.07347   0.09637
 Alpha virt. eigenvalues --    0.10408   0.10803   0.13173   0.13858   0.13947

 Mulliken charges:
               1
     1  Cl  -0.484824
     2  S    0.379572
     3  C    6.192847
     4  O   -3.411316
     5  O   -3.740659
     6  C   -3.183360
     7  H    1.339102
     8  H    1.398896
     9  H    1.471383
    10  C   -3.409771
    11  H    1.283646
    12  H    1.351288
    13  H    1.546729
    14  C   -4.548079
    15  H    1.266949
    16  H    1.339657
    17  H    1.207940
 Sum of Mulliken charges =   0.00000

 Dipole moment (field-independent basis, Debye):
    X=             -3.7060    Y=             -0.3459    Z=             -1.6752  Tot=              4.0817

 Test job not archived.
 1\1\GINC-SE250\SP\RHF\Aug-CC-pVDZ\C4H9Cl1O2S1\OHZDE\09-Apr-2025\0\\#t
 hf aug-cc-pvdz iop(5/13=1,5/36=2,99/5=2) pseudo=read geom=check guess=
 (read,tcheck) scf=(maxcycle=1)\\title\\0,1\Cl,0,2.515344,-0.062236,0.2
 20071\S,0,0.87934,-0.490939,-0.990081\C,0,-0.549156,-0.201058,0.21664\
 O,0,-1.570756,-0.334631,-0.745436\O,0,-0.537088,1.037049,0.831984\C,0,
 -2.907585,-0.459298,-0.249769\H,0,-3.55635,-0.356633,-1.118246\H,0,-3.
 133921,0.331965,0.470511\H,0,-3.076046,-1.43695,0.211032\C,0,-0.494791
 ,2.197206,-0.008482\H,0,-0.719861,3.039346,0.643998\H,0,-1.235909,2.13

 Normal termination of Gaussian 16 at Wed Apr  9 00:20:40 2025.
