 Gaussian 16, Revision C.01,

 ----------------------------------------------------------------------
 #t hf aug-cc-pvdz symm=none int=(grid=ultrafine) guess=(read,tcheck) s
 table=opt
 ----------------------------------------------------------------------
 -----
 title
 -----
 Symbolic Z-matrix:
 Charge =  0 Multiplicity = 2

 SCF Done:  E(UHF) =  -963.941191368     A.U. after   18 cycles
 Normal termination of Gaussian 16 at Tue Apr  8 23:26:00 2025.
 Gaussian 16:  ES64L-G16RevC.01  3-Jul-2019

 ----------------------------------------------------------------------
 #t hf aug-cc-pvdz iop(5/13=1,5/36=2,99/5=2) pseudo=read geom=check gue
 ss=(read,tcheck) scf=(maxcycle=1)
 ----------------------------------------------------------------------
 -----
 title
 -----
 Structure from the checkpoint file:  "BDE49_nonexpt_1256_mol2.chk"
 Charge =  0 Multiplicity = 2

                         Standard orientation:
 ---------------------------------------------------------------------
 Center     Atomic      Atomic             Coordinates (Angstroms)
 Number     Number       Type             X           Y           Z
 ---------------------------------------------------------------------
      1         16           0       -0.415460    0.127366    0.091330
      2          8           0       -0.881046   -0.971111   -1.031829
      3          8           0       -0.825937    1.407369   -0.408576
      4          8           0       -0.852247   -0.376350    1.373216
      5         15           0        1.767616    0.039275   -0.045817
      6          1           0       -1.155212   -1.771301   -0.558321
      7          1           0        1.762175   -1.334954    0.321828
 ---------------------------------------------------------------------

 SCF Done:  E(UHF) =  -965.287965637     A.U. after    2 cycles

 The electronic state is 2-A.
 Alpha  occ. eigenvalues -- -105.25376 -75.92920 -21.14330 -21.07593 -21.07190
 Alpha  occ. eigenvalues --  -13.55774 -13.44307 -13.36454  -8.27953  -2.83115
 Alpha  occ. eigenvalues --   -1.90734  -1.72888  -1.67769  -1.52200  -1.50664
 Alpha  occ. eigenvalues --   -1.50005  -0.95335  -0.76426  -0.66399  -0.58515
 Alpha  occ. eigenvalues --   -0.55248  -0.47722  -0.45145  -0.41230  -0.39398
 Alpha  occ. eigenvalues --   -0.37760  -0.23787  -0.11583  -0.00949
 Alpha virt. eigenvalues --    0.03336   0.05220   0.08580   0.09224   0.11706
 Alpha virt. eigenvalues --    0.11867   0.12477   0.14443   0.15218   0.17383
 Alpha virt. eigenvalues --    0.18541   0.19619   0.20518   0.20840   0.22477

  Beta  occ. eigenvalues -- -105.24714 -75.92961 -21.14273 -21.07523 -21.07201
  Beta  occ. eigenvalues --  -13.55797 -13.44374 -13.36604  -8.28009  -2.81109
  Beta  occ. eigenvalues --   -1.90701  -1.72790  -1.67692  -1.49131  -1.47650
  Beta  occ. eigenvalues --   -1.26933  -0.95136  -0.72914  -0.66056  -0.58395
  Beta  occ. eigenvalues --   -0.54045  -0.47679  -0.44815  -0.41162  -0.39305
  Beta  occ. eigenvalues --   -0.37651  -0.24054  -0.09571
  Beta virt. eigenvalues --    0.03367   0.05234   0.06667   0.08795   0.09866
  Beta virt. eigenvalues --    0.11788   0.12432   0.14046   0.15331   0.17231
  Beta virt. eigenvalues --    0.17845   0.19590   0.20314   0.21227   0.22728

 Mulliken charges and spin densities:
               1          2
     1  S    5.151170  -0.074182
     2  O   -2.227955  -0.081852
     3  O   -2.531251   0.010026
     4  O   -2.403494  -0.034552
     5  P    2.102372   1.314333
     6  H    0.759796   0.027389
     7  H   -0.850638  -0.161163
 Sum of Mulliken charges =   0.00000   1.00000

 Dipole moment (field-independent basis, Debye):
    X=              5.5534    Y=              1.3487    Z=             -1.4104  Tot=              5.8863
                          Isotropic Fermi Contact Couplings
        Atom                 a.u.       MegaHertz       Gauss      10(-4) cm-1
     1  S(33)             -0.05564     -19.11135      -6.81940      -6.37486
     2  O(17)              0.02067     -12.52777      -4.47022      -4.17881
     3  O(17)              0.00022      -0.13462      -0.04804      -0.04491
     4  O(17)              0.01497      -9.07223      -3.23720      -3.02617
     5  P(31)              0.24433     442.51254     157.89948     147.60629
     6  H(1)               0.00017       0.74416       0.26553       0.24822
     7  H(1)              -0.00743     -33.20868     -11.84968     -11.07722
 --------------------------------------------------------

 Normal termination of Gaussian 16 at Tue Apr  8 23:26:03 2025.
