 Gaussian 16, Revision C.01,

 ----------------------------------------------------------------------
 #t hf aug-cc-pvdz symm=none int=(grid=ultrafine) guess=(read,tcheck) s
 table=(opt,rrhf)
 ----------------------------------------------------------------------
 -----
 title
 -----
 Symbolic Z-matrix:
 Charge =  0 Multiplicity = 1

 SCF Done:  E(RHF) =  -303.495832918     A.U. after   15 cycles
 Normal termination of Gaussian 16 at Tue Apr  8 23:02:44 2025.
 Gaussian 16:  ES64L-G16RevC.01  3-Jul-2019

 ----------------------------------------------------------------------
 #t hf aug-cc-pvdz iop(5/13=1,5/36=2,99/5=2) pseudo=read geom=check gue
 ss=(read,tcheck) scf=(maxcycle=1)
 ----------------------------------------------------------------------
 -----
 title
 -----
 Structure from the checkpoint file:  "BDE49_expt_23_mol1.chk"
 Charge =  0 Multiplicity = 1

                         Standard orientation:
 ---------------------------------------------------------------------
 Center     Atomic      Atomic             Coordinates (Angstroms)
 Number     Number       Type             X           Y           Z
 ---------------------------------------------------------------------
      1          6           0        1.462124   -0.122895   -0.000002
      2          6           0        2.628104   -0.409988   -0.000009
      3          1           0        3.658882   -0.670575   -0.000022
      4          6           0        0.077728    0.306498    0.000002
      5          8           0       -0.272413    1.459657    0.000007
      6          8           0       -0.753642   -0.749739   -0.000001
      7          6           0       -2.158738   -0.427426    0.000003
      8          1           0       -2.416801    0.149893   -0.888885
      9          1           0       -2.416797    0.149886    0.888897
     10          1           0       -2.672147   -1.385684   -0.000000
 ---------------------------------------------------------------------

 SCF Done:  E(RHF) =  -304.812761339     A.U. after    2 cycles

 The electronic state is 1-A.
 Alpha  occ. eigenvalues --  -21.10697 -21.06718 -11.56089 -11.45348 -11.43041
 Alpha  occ. eigenvalues --  -11.42484  -1.85715  -1.67668  -1.14861  -1.03720
 Alpha  occ. eigenvalues --   -0.89225  -0.73899  -0.69571  -0.64426  -0.59004
 Alpha  occ. eigenvalues --   -0.56813  -0.54556  -0.44334  -0.40462  -0.39308
 Alpha  occ. eigenvalues --   -0.33301  -0.31695
 Alpha virt. eigenvalues --    0.02935   0.04723   0.06169   0.06438   0.08452
 Alpha virt. eigenvalues --    0.10065   0.10311   0.11102   0.13325   0.13491
 Alpha virt. eigenvalues --    0.13661   0.14050   0.14467   0.16368   0.16526

 Mulliken charges:
               1
     1  C    1.383259
     2  C   -3.225177
     3  H    0.708687
     4  C    6.279756
     5  O   -3.026639
     6  O   -3.019247
     7  C   -3.010780
     8  H    1.288983
     9  H    1.288982
    10  H    1.332174
 Sum of Mulliken charges =   0.00000

 Dipole moment (field-independent basis, Debye):
    X=             -0.2593    Y=             -1.3244    Z=             -0.0000  Tot=              1.3496

 Test job not archived.
 1\1\GINC-SE423\SP\RHF\Aug-CC-pVDZ\C4H4O2\OHZDE\08-Apr-2025\0\\#t hf au
 g-cc-pvdz iop(5/13=1,5/36=2,99/5=2) pseudo=read geom=check guess=(read
 ,tcheck) scf=(maxcycle=1)\\title\\0,1\C,0,1.462124,-0.122895,-0.000002
 \C,0,2.628104,-0.409988,-0.000009\H,0,3.658882,-0.670575,-0.000022\C,0
 ,0.077728,0.306498,0.000002\O,0,-0.272413,1.459657,0.000007\O,0,-0.753
 642,-0.749739,-0.000001\C,0,-2.158738,-0.427426,0.000003\H,0,-2.416801
 ,0.149893,-0.888885\H,0,-2.416797,0.149886,0.888897\H,0,-2.672147,-1.3
 85684,0.\\Version=ES64L-G16RevC.01\State=1-A\HF=-304.8127613\RMSD=7.83

 Normal termination of Gaussian 16 at Tue Apr  8 23:02:47 2025.
