 Gaussian 16, Revision C.01,

 ----------------------------------------------------------------------
 #t hf aug-cc-pvdz symm=none int=(grid=ultrafine) guess=(read,tcheck) s
 table=(opt,rrhf)
 ----------------------------------------------------------------------
 -----
 title
 -----
 Symbolic Z-matrix:
 Charge =  0 Multiplicity = 1

 SCF Done:  E(RHF) =  -469.525569241     A.U. after   12 cycles
 Normal termination of Gaussian 16 at Wed Apr  9 00:46:07 2025.
 Gaussian 16:  ES64L-G16RevC.01  3-Jul-2019

 ----------------------------------------------------------------------
 #t hf aug-cc-pvdz iop(5/13=1,5/36=2,99/5=2) pseudo=read geom=check gue
 ss=(read,tcheck) scf=(maxcycle=1)
 ----------------------------------------------------------------------
 -----
 title
 -----
 Structure from the checkpoint file:  "BDE49_nonexpt_785_mol1.chk"
 Charge =  0 Multiplicity = 1

                         Standard orientation:
 ---------------------------------------------------------------------
 Center     Atomic      Atomic             Coordinates (Angstroms)
 Number     Number       Type             X           Y           Z
 ---------------------------------------------------------------------
      1         14           0        0.499840   -0.023651    0.425122
      2          5           0       -1.375506   -0.771567    0.180852
      3          8           0       -2.346050    0.049718   -0.295139
      4          6           0        0.652338    1.759608   -0.174829
      5          1           0       -0.065084    2.405506    0.338698
      6          1           0        0.448304    1.829526   -1.247407
      7          6           0        1.773459   -1.125626   -0.440099
      8          1           0        1.618928   -1.136164   -1.523352
      9          1           0        1.708935   -2.157605   -0.083652
     10          1           0        2.790811   -0.770343   -0.252035
     11          1           0        1.655113    2.158042    0.004982
     12          1           0       -3.208384   -0.373141   -0.375004
     13          1           0       -1.659958   -1.911186    0.445375
     14          1           0        0.804723   -0.057317    1.887109
 ---------------------------------------------------------------------

 SCF Done:  E(RHF) =  -470.535823853     A.U. after    2 cycles

 The electronic state is 1-A.
 Alpha  occ. eigenvalues --  -76.17660 -21.07142 -11.33862 -11.33515  -7.61825
 Alpha  occ. eigenvalues --   -5.51598  -2.15351  -2.14683  -2.13739  -1.74002
 Alpha  occ. eigenvalues --   -1.05143  -0.99692  -0.79461  -0.65372  -0.62508
 Alpha  occ. eigenvalues --   -0.55588  -0.55377  -0.53579  -0.53468  -0.43841
 Alpha  occ. eigenvalues --   -0.42923  -0.41607  -0.38470  -0.33518
 Alpha virt. eigenvalues --    0.03111   0.03385   0.04279   0.04698   0.06890
 Alpha virt. eigenvalues --    0.07060   0.07612   0.07946   0.08038   0.08640
 Alpha virt. eigenvalues --    0.09314   0.09693   0.10356   0.10696   0.11948

 Mulliken charges:
               1
     1  Si   5.929011
     2  B    3.533206
     3  O   -3.633921
     4  C   -5.139891
     5  H    1.285988
     6  H    1.341290
     7  C   -5.069690
     8  H    1.341609
     9  H    1.288368
    10  H    1.216745
    11  H    1.253261
    12  H    1.277050
    13  H   -2.272574
    14  H   -2.350452
 Sum of Mulliken charges =  -0.00000

 Dipole moment (field-independent basis, Debye):
    X=             -1.1094    Y=              0.0782    Z=             -0.9489  Tot=              1.4620

 Test job not archived.
 1\1\GINC-SE090\SP\RHF\Aug-CC-pVDZ\C2H9B1O1Si1\OHZDE\09-Apr-2025\0\\#t
 hf aug-cc-pvdz iop(5/13=1,5/36=2,99/5=2) pseudo=read geom=check guess=
 (read,tcheck) scf=(maxcycle=1)\\title\\0,1\Si,0,0.49984,-0.023651,0.42
 5122\B,0,-1.375506,-0.771567,0.180852\O,0,-2.34605,0.049718,-0.295139\
 C,0,0.652338,1.759608,-0.174829\H,0,-0.065084,2.405506,0.338698\H,0,0.
 448304,1.829526,-1.247407\C,0,1.773459,-1.125626,-0.440099\H,0,1.61892
 8,-1.136164,-1.523352\H,0,1.708935,-2.157605,-0.083652\H,0,2.790811,-0
 .770343,-0.252035\H,0,1.655113,2.158042,0.004982\H,0,-3.208384,-0.3731

 Normal termination of Gaussian 16 at Wed Apr  9 00:46:11 2025.
