 Gaussian 16, Revision C.01,

 ----------------------------------------------------------------------
 #t hf aug-cc-pvdz symm=none int=(grid=ultrafine) guess=(read,tcheck) s
 table=(opt,rrhf)
 ----------------------------------------------------------------------
 -----
 title
 -----
 Symbolic Z-matrix:
 Charge =  0 Multiplicity = 1

 SCF Done:  E(RHF) =  -375.866493574     A.U. after   11 cycles
 Normal termination of Gaussian 16 at Tue Apr  8 22:30:20 2025.
 Gaussian 16:  ES64L-G16RevC.01  3-Jul-2019

 ----------------------------------------------------------------------
 #t hf aug-cc-pvdz iop(5/13=1,5/36=2,99/5=2) pseudo=read geom=check gue
 ss=(read,tcheck) scf=(maxcycle=1)
 ----------------------------------------------------------------------
 -----
 title
 -----
 Structure from the checkpoint file:  "BDE49_expt_1001_mol1.chk"
 Charge =  0 Multiplicity = 1

                         Standard orientation:
 ---------------------------------------------------------------------
 Center     Atomic      Atomic             Coordinates (Angstroms)
 Number     Number       Type             X           Y           Z
 ---------------------------------------------------------------------
      1          6           0        0.025513    0.000005   -0.000005
      2          6           0       -1.476980    0.000044   -0.000047
      3          9           0        0.526843   -0.364185    1.201702
      4          9           0        0.526974    1.222762   -0.285448
      5          9           0        0.526916   -0.858628   -0.916201
      6          1           0       -1.839265    0.702921    0.749944
      7          1           0       -1.839297   -1.000898    0.233652
      8          1           0       -1.839236    0.298134   -0.983757
 ---------------------------------------------------------------------

 SCF Done:  E(RHF) =  -377.256095081     A.U. after    2 cycles

 The electronic state is 1-A.
 Alpha  occ. eigenvalues --  -29.30226 -29.30226 -29.30156 -11.59597 -11.40810
 Alpha  occ. eigenvalues --   -1.42385  -1.06555  -0.87754  -0.87754  -0.70119
 Alpha  occ. eigenvalues --   -0.58654  -0.58654  -0.47554  -0.42991  -0.42991
 Alpha  occ. eigenvalues --   -0.35408  -0.35408  -0.30257  -0.24773  -0.24773
 Alpha  occ. eigenvalues --   -0.20877
 Alpha virt. eigenvalues --    0.04114   0.06020   0.06020   0.10418   0.10901
 Alpha virt. eigenvalues --    0.12727   0.12727   0.16530   0.16744   0.16744
 Alpha virt. eigenvalues --    0.22342   0.23684   0.23684   0.26498   0.26770

 Mulliken charges:
               1
     1  C   -0.383207
     2  C   -4.295853
     3  F    0.407582
     4  F    0.407583
     5  F    0.407584
     6  H    1.152103
     7  H    1.152103
     8  H    1.152107
 Sum of Mulliken charges =  -0.00000

 Dipole moment (field-independent basis, Debye):
    X=              0.9684    Y=             -0.0001    Z=              0.0001  Tot=              0.9684

 Test job not archived.
 1\1\GINC-SE099\SP\RHF\Aug-CC-pVDZ\C2H3F3\OHZDE\08-Apr-2025\0\\#t hf au
 g-cc-pvdz iop(5/13=1,5/36=2,99/5=2) pseudo=read geom=check guess=(read
 ,tcheck) scf=(maxcycle=1)\\title\\0,1\C,0,0.025513,-0.000005,0.000005\
 C,0,-1.47698,-0.000042,0.000048\F,0,0.526844,0.33281,-1.210766\F,0,0.5
 26973,-1.214926,0.31715\F,0,0.526916,0.882164,0.893562\H,0,-1.839265,-
 0.722185,-0.731411\H,0,-1.839296,0.994485,-0.259603\H,0,-1.839237,-0.2
 72448,0.991177\\Version=ES64L-G16RevC.01\State=1-A\HF=-377.2560951\RMS
 D=1.906e-01\Dipole=0.3810044,0.0000193,-0.0000203\Quadrupole=-0.240871

 Normal termination of Gaussian 16 at Tue Apr  8 22:30:23 2025.
