 Gaussian 16, Revision C.01,

 ----------------------------------------------------------------------
 #t hf aug-cc-pvdz symm=none int=(grid=ultrafine) guess=(read,tcheck) s
 table=(opt,rrhf)
 ----------------------------------------------------------------------
 -----
 title
 -----
 Symbolic Z-matrix:
 Charge =  0 Multiplicity = 1

 SCF Done:  E(RHF) =  -1103.16476374     A.U. after   15 cycles
 Normal termination of Gaussian 16 at Wed Apr  9 00:20:27 2025.
 Gaussian 16:  ES64L-G16RevC.01  3-Jul-2019

 ----------------------------------------------------------------------
 #t hf aug-cc-pvdz iop(5/13=1,5/36=2,99/5=2) pseudo=read geom=check gue
 ss=(read,tcheck) scf=(maxcycle=1)
 ----------------------------------------------------------------------
 -----
 title
 -----
 Structure from the checkpoint file:  "BDE49_nonexpt_2596_mol1.chk"
 Charge =  0 Multiplicity = 1

                         Standard orientation:
 ---------------------------------------------------------------------
 Center     Atomic      Atomic             Coordinates (Angstroms)
 Number     Number       Type             X           Y           Z
 ---------------------------------------------------------------------
      1         17           0       -2.631553    0.637593    0.000002
      2         16           0       -1.378898   -1.005780   -0.000003
      3          6           0        0.252584   -0.307684   -0.000001
      4          6           0        0.565000    1.048627   -0.000004
      5          6           0        1.300206   -1.236610    0.000003
      6          6           0        2.603909   -0.755675    0.000004
      7          6           0        1.911268    1.409638   -0.000002
      8          7           0        2.925297    0.542313    0.000001
      9          1           0       -0.205335    1.806905   -0.000007
     10          1           0        2.181053    2.462103   -0.000004
     11          1           0        1.114455   -2.304854    0.000006
     12          1           0        3.433719   -1.456721    0.000007
 ---------------------------------------------------------------------

 SCF Done:  E(RHF) =  -1104.77744474     A.U. after    2 cycles

 The electronic state is 1-A.
 Alpha  occ. eigenvalues --  -99.92621 -75.76595 -15.74697 -13.23081 -13.13833
 Alpha  occ. eigenvalues --  -13.07796 -11.49978 -11.46466 -11.46397 -11.43293
 Alpha  occ. eigenvalues --  -11.39910 -10.49763  -9.69534  -9.69040  -9.68733
 Alpha  occ. eigenvalues --   -8.10472  -1.46791  -1.36211  -1.23494  -1.12918
 Alpha  occ. eigenvalues --   -1.07704  -0.91054  -0.87435  -0.72574  -0.67177
 Alpha  occ. eigenvalues --   -0.63560  -0.61098  -0.58205  -0.57681  -0.55744
 Alpha  occ. eigenvalues --   -0.55617  -0.49270  -0.44618  -0.42210  -0.36289
 Alpha  occ. eigenvalues --   -0.35651  -0.25741
 Alpha virt. eigenvalues --    0.02553   0.03389   0.05582   0.06038   0.06790
 Alpha virt. eigenvalues --    0.07159   0.08741   0.09821   0.10283   0.11134
 Alpha virt. eigenvalues --    0.11626   0.12473   0.13015   0.13600   0.13889

 Mulliken charges:
               1
     1  Cl  -0.537764
     2  S    0.653466
     3  C    3.339418
     4  C   -1.766315
     5  C   -2.639070
     6  C   -0.987866
     7  C   -0.933236
     8  N   -3.516777
     9  H    1.748939
    10  H    1.552191
    11  H    1.557807
    12  H    1.529206
 Sum of Mulliken charges =   0.00000

 Dipole moment (field-independent basis, Debye):
    X=             -0.2109    Y=             -3.1812    Z=             -0.0000  Tot=              3.1882

 Test job not archived.
 1\1\GINC-SE106\SP\RHF\Aug-CC-pVDZ\C5H4Cl1N1S1\OHZDE\09-Apr-2025\0\\#t
 hf aug-cc-pvdz iop(5/13=1,5/36=2,99/5=2) pseudo=read geom=check guess=
 (read,tcheck) scf=(maxcycle=1)\\title\\0,1\Cl,0,-2.631553,0.637593,0.0
 00002\S,0,-1.378898,-1.00578,-0.000003\C,0,0.252584,-0.307684,-0.00000
 1\C,0,0.565,1.048627,-0.000004\C,0,1.300206,-1.23661,0.000003\C,0,2.60
 3909,-0.755675,0.000004\C,0,1.911268,1.409638,-0.000002\N,0,2.925297,0
 .542313,0.000001\H,0,-0.205335,1.806905,-0.000007\H,0,2.181053,2.46210
 3,-0.000004\H,0,1.114455,-2.304854,0.000006\H,0,3.433719,-1.456721,0.0

 Normal termination of Gaussian 16 at Wed Apr  9 00:20:33 2025.
