 Gaussian 16, Revision C.01,

 ----------------------------------------------------------------------
 #t hf aug-cc-pvdz symm=none int=(grid=ultrafine) guess=(read,tcheck) s
 table=opt
 ----------------------------------------------------------------------
 -----
 title
 -----
 Symbolic Z-matrix:
 Charge =  0 Multiplicity = 2

 SCF Done:  E(UHF) =  -680.482545516     A.U. after   16 cycles
 Normal termination of Gaussian 16 at Tue Apr  8 23:54:31 2025.
 Gaussian 16:  ES64L-G16RevC.01  3-Jul-2019

 ----------------------------------------------------------------------
 #t hf aug-cc-pvdz iop(5/13=1,5/36=2,99/5=2) pseudo=read geom=check gue
 ss=(read,tcheck) scf=(maxcycle=1)
 ----------------------------------------------------------------------
 -----
 title
 -----
 Structure from the checkpoint file:  "BDE49_nonexpt_1955_mol3.chk"
 Charge =  0 Multiplicity = 2

                         Standard orientation:
 ---------------------------------------------------------------------
 Center     Atomic      Atomic             Coordinates (Angstroms)
 Number     Number       Type             X           Y           Z
 ---------------------------------------------------------------------
      1          6           0       -2.246198   -0.004726   -0.044850
      2         15           0        0.350419   -0.035370    0.109977
      3          8           0        0.679842   -1.131475   -0.994472
      4          8           0        1.354300    1.137673   -0.276723
      5          1           0        1.276667   -1.810905   -0.658727
      6          1           0        1.442579    1.785756    0.432241
      7          8           0        0.366802   -0.481332    1.502331
      8          8           0       -1.041574    0.554438   -0.426098
      9          1           0       -2.275309   -0.532287    0.898693
     10          1           0       -3.098009    0.481904   -0.493076
 ---------------------------------------------------------------------

 SCF Done:  E(UHF) =  -682.079783647     A.U. after    2 cycles

 The electronic state is 2-A.
 Alpha  occ. eigenvalues -- -105.33402 -21.12688 -21.12626 -21.10608 -21.03495
 Alpha  occ. eigenvalues --  -11.42741  -2.96921  -2.02123  -1.93858  -1.93167
 Alpha  occ. eigenvalues --   -1.76503  -1.44972  -1.41469  -1.26610  -0.95825
 Alpha  occ. eigenvalues --   -0.71475  -0.65026  -0.61225  -0.58538  -0.54572
 Alpha  occ. eigenvalues --   -0.50900  -0.45737  -0.42407  -0.35615  -0.35369
 Alpha  occ. eigenvalues --   -0.31286  -0.29030  -0.27935  -0.17174
 Alpha virt. eigenvalues --    0.03415   0.05280   0.05736   0.06807   0.10422
 Alpha virt. eigenvalues --    0.11263   0.11669   0.12571   0.14056   0.14742
 Alpha virt. eigenvalues --    0.16571   0.18633   0.19194   0.21263   0.21691

  Beta  occ. eigenvalues -- -105.33403 -21.12695 -21.12627 -21.10239 -21.03504
  Beta  occ. eigenvalues --  -11.40365  -2.96912  -2.02011  -1.93377  -1.93106
  Beta  occ. eigenvalues --   -1.76197  -1.44109  -1.41427  -1.26467  -0.88732
  Beta  occ. eigenvalues --   -0.70947  -0.63902  -0.61086  -0.57684  -0.50900
  Beta  occ. eigenvalues --   -0.47197  -0.45564  -0.40976  -0.35548  -0.35297
  Beta  occ. eigenvalues --   -0.29716  -0.28671  -0.17474
  Beta virt. eigenvalues --    0.03467   0.05350   0.05715   0.06854   0.08812
  Beta virt. eigenvalues --    0.10443   0.11344   0.12150   0.13160   0.14821
  Beta virt. eigenvalues --    0.16338   0.17804   0.19189   0.20326   0.21354

 Mulliken charges and spin densities:
               1          2
     1  C   -1.747155   1.142073
     2  P    8.597175  -0.006189
     3  O   -2.601625   0.003280
     4  O   -2.567659  -0.006854
     5  H    0.791773  -0.000497
     6  H    0.810305   0.004417
     7  O   -2.812150   0.008522
     8  O   -3.332722   0.026002
     9  H    1.396357  -0.094735
    10  H    1.465700  -0.076018
 Sum of Mulliken charges =   0.00000   1.00000

 Dipole moment (field-independent basis, Debye):
    X=              0.2178    Y=              1.0458    Z=             -2.0044  Tot=              2.2713
                          Isotropic Fermi Contact Couplings
        Atom                 a.u.       MegaHertz       Gauss      10(-4) cm-1
     1  C(13)              0.14540     163.45584      58.32511      54.52300
     2  P(31)              0.00004       0.07943       0.02834       0.02649
     3  O(17)             -0.00068       0.41171       0.14691       0.13733
     4  O(17)             -0.00076       0.45830       0.16353       0.15287
     5  H(1)               0.00046       2.05247       0.73237       0.68463
     6  H(1)               0.00005       0.20402       0.07280       0.06805
     7  O(17)             -0.00037       0.22321       0.07965       0.07446
     8  O(17)              0.03268     -19.80806      -7.06801      -6.60726

 Normal termination of Gaussian 16 at Tue Apr  8 23:54:35 2025.
