 Gaussian 16, Revision C.01,

 ----------------------------------------------------------------------
 #t hf aug-cc-pvdz symm=none int=(grid=ultrafine) guess=(read,tcheck) s
 table=(opt,rrhf)
 ----------------------------------------------------------------------
 -----
 title
 -----
 Symbolic Z-matrix:
 Charge =  0 Multiplicity = 1

 SCF Done:  E(RHF) =  -382.515065320     A.U. after   16 cycles
 Normal termination of Gaussian 16 at Tue Apr  8 23:03:50 2025.
 Gaussian 16:  ES64L-G16RevC.01  3-Jul-2019

 ----------------------------------------------------------------------
 #t hf aug-cc-pvdz iop(5/13=1,5/36=2,99/5=2) pseudo=read geom=check gue
 ss=(read,tcheck) scf=(maxcycle=1)
 ----------------------------------------------------------------------
 -----
 title
 -----
 Structure from the checkpoint file:  "BDE49_expt_207_mol1.chk"
 Charge =  0 Multiplicity = 1

                         Standard orientation:
 ---------------------------------------------------------------------
 Center     Atomic      Atomic             Coordinates (Angstroms)
 Number     Number       Type             X           Y           Z
 ---------------------------------------------------------------------
      1          6           0        2.515950    0.365918    0.000000
      2          8           0        3.308095   -0.548769    0.000002
      3          6           0        1.045448    0.212993   -0.000001
      4          1           0        2.867338    1.421298    0.000003
      5          6           0        0.460946   -1.061171   -0.000001
      6          6           0       -0.917280   -1.192901   -0.000001
      7          6           0       -1.752777   -0.063271   -0.000001
      8          6           0       -1.161388    1.203105   -0.000001
      9          6           0        0.223339    1.341510   -0.000001
     10          1           0        1.110904   -1.928361   -0.000001
     11          1           0       -1.362844   -2.182627   -0.000001
     12          1           0        0.670935    2.330867   -0.000001
     13          6           0       -3.252048   -0.225133    0.000001
     14          1           0       -1.791335    2.086204   -0.000002
     15          1           0       -3.759320    0.741054   -0.000024
     16          1           0       -3.586789   -0.782270    0.880407
     17          1           0       -3.586787   -0.782316   -0.880375
 ---------------------------------------------------------------------

 SCF Done:  E(RHF) =  -384.292375362     A.U. after    2 cycles

 The electronic state is 1-A.
 Alpha  occ. eigenvalues --  -21.05530 -11.52082 -11.48470 -11.45457 -11.45036
 Alpha  occ. eigenvalues --  -11.43133 -11.41926 -11.40000 -11.37304  -1.70342
 Alpha  occ. eigenvalues --   -1.36500  -1.17150  -1.10600  -1.02988  -0.90132
 Alpha  occ. eigenvalues --   -0.87870  -0.80670  -0.69992  -0.66199  -0.62311
 Alpha  occ. eigenvalues --   -0.59097  -0.58840  -0.58258  -0.53514  -0.52436
 Alpha  occ. eigenvalues --   -0.50517  -0.45345  -0.44551  -0.44471  -0.34326
 Alpha  occ. eigenvalues --   -0.31566  -0.29232
 Alpha virt. eigenvalues --    0.03093   0.04371   0.04915   0.06022   0.06035
 Alpha virt. eigenvalues --    0.06521   0.07295   0.07809   0.09198   0.09752
 Alpha virt. eigenvalues --    0.10122   0.11063   0.12011   0.12601   0.13058

 Mulliken charges:
               1
     1  C   -0.751224
     2  O   -3.198953
     3  C    2.708856
     4  H    1.231681
     5  C   -2.509612
     6  C   -1.663278
     7  C    2.311458
     8  C   -2.109973
     9  C   -0.919891
    10  H    1.841306
    11  H    1.845223
    12  H    1.837981
    13  C   -5.713826
    14  H    1.809707
    15  H    1.250211
    16  H    1.015170
    17  H    1.015163
 Sum of Mulliken charges =  -0.00000

 Dipole moment (field-independent basis, Debye):
    X=             -2.2949    Y=              0.3942    Z=              0.0000  Tot=              2.3285

 Test job not archived.
 1\1\GINC-SE039\SP\RHF\Aug-CC-pVDZ\C8H8O1\OHZDE\08-Apr-2025\0\\#t hf au
 g-cc-pvdz iop(5/13=1,5/36=2,99/5=2) pseudo=read geom=check guess=(read
 ,tcheck) scf=(maxcycle=1)\\title\\0,1\C,0,2.51595,0.365918,0.\O,0,3.30
 8095,-0.548769,0.000002\C,0,1.045448,0.212993,-0.000001\H,0,2.867338,1
 .421298,0.000003\C,0,0.460946,-1.061171,-0.000001\C,0,-0.91728,-1.1929
 01,-0.000001\C,0,-1.752777,-0.063271,-0.000001\C,0,-1.161388,1.203105,
 -0.000001\C,0,0.223339,1.34151,-0.000001\H,0,1.110904,-1.928361,-0.000
 001\H,0,-1.362844,-2.182627,-0.000001\H,0,0.670935,2.330867,-0.000001\

 Normal termination of Gaussian 16 at Tue Apr  8 23:04:00 2025.
