 Gaussian 16, Revision C.01,

 ----------------------------------------------------------------------
 #t hf aug-cc-pvdz symm=none int=(grid=ultrafine) guess=(read,tcheck) s
 table=(opt,rrhf)
 ----------------------------------------------------------------------
 -----
 title
 -----
 Symbolic Z-matrix:
 Charge =  0 Multiplicity = 1

 SCF Done:  E(RHF) =  -540.261691445     A.U. after   11 cycles
 Normal termination of Gaussian 16 at Tue Apr  8 23:34:00 2025.
 Gaussian 16:  ES64L-G16RevC.01  3-Jul-2019

 ----------------------------------------------------------------------
 #t hf aug-cc-pvdz iop(5/13=1,5/36=2,99/5=2) pseudo=read geom=check gue
 ss=(read,tcheck) scf=(maxcycle=1)
 ----------------------------------------------------------------------
 -----
 title
 -----
 Structure from the checkpoint file:  "BDE49_nonexpt_1449_mol1.chk"
 Charge =  0 Multiplicity = 1

                         Standard orientation:
 ---------------------------------------------------------------------
 Center     Atomic      Atomic             Coordinates (Angstroms)
 Number     Number       Type             X           Y           Z
 ---------------------------------------------------------------------
      1         15           0       -0.041579    0.544729    0.000000
      2          9           0       -0.041579   -0.495334    1.232238
      3          9           0       -0.041579   -0.495334   -1.232238
      4          1           0        1.372105    0.745074    0.000000
 ---------------------------------------------------------------------

 SCF Done:  E(RHF) =  -541.132820978     A.U. after    2 cycles

 The electronic state is 1-A'.
 Alpha  occ. eigenvalues -- -105.30349 -29.29604 -29.29601  -2.89560  -1.63820
 Alpha  occ. eigenvalues --   -1.58939  -1.53403  -0.90807  -0.56907  -0.46796
 Alpha  occ. eigenvalues --   -0.40575  -0.36332  -0.35106  -0.29529  -0.26572
 Alpha  occ. eigenvalues --   -0.19892  -0.01085
 Alpha virt. eigenvalues --    0.05561   0.09061   0.09749   0.13140   0.19491
 Alpha virt. eigenvalues --    0.21104   0.22671   0.25986   0.27578   0.27591
 Alpha virt. eigenvalues --    0.30547   0.31408   0.32718   0.33160   0.34538

 Mulliken charges:
               1
     1  P    1.499651
     2  F   -0.222053
     3  F   -0.222053
     4  H   -1.055545
 Sum of Mulliken charges =  -0.00000

 Dipole moment (field-independent basis, Debye):
    X=              0.9231    Y=             -5.8104    Z=             -0.0000  Tot=              5.8833

 Test job not archived.
 1\1\GINC-SE334\SP\RHF\Aug-CC-pVDZ\F2H1P1\OHZDE\08-Apr-2025\0\\#t hf au
 g-cc-pvdz iop(5/13=1,5/36=2,99/5=2) pseudo=read geom=check guess=(read
 ,tcheck) scf=(maxcycle=1)\\title\\0,1\P,0,-0.041579,0.544729,0.\F,0,-0
 .041579,-0.495334,1.232238\F,0,-0.041579,-0.495334,-1.232238\H,0,1.372
 105,0.745074,0.\\Version=ES64L-G16RevC.01\State=1-A'\HF=-541.132821\RM
 SD=1.394e-01\Dipole=0.3631852,-2.2860043,0.\Quadrupole=-1.8686602,-4.6
 746327,6.5432929,4.8926239,0.,0.\PG=CS [SG(H1P1),X(F2)]\\@

 Normal termination of Gaussian 16 at Tue Apr  8 23:34:01 2025.
