 Gaussian 16, Revision C.01,

 ----------------------------------------------------------------------
 #t hf aug-cc-pvdz symm=none int=(grid=ultrafine) guess=(read,tcheck) s
 table=(opt,rrhf)
 ----------------------------------------------------------------------
 -----
 title
 -----
 Symbolic Z-matrix:
 Charge =  0 Multiplicity = 1

 SCF Done:  E(RHF) =  -728.691219184     A.U. after   15 cycles

 1\1\GINC-SE342\Stability\RHF\Aug-CC-pVDZ\C7H7Cl1\OHZDE\08-Apr-2025\0\\
 #t hf aug-cc-pvdz symm=none int=(grid=ultrafine) guess=(read,tcheck) s
 table=(opt,rrhf)\\title\\0,1\C,0,-0.358647,-0.381071,0.\C,0,0.508276,-
 1.46859,0.\C,0,1.882127,-1.247412,0.\C,0,2.371413,0.055614,0.\C,0,1.48
 5199,1.128746,0.\C,0,0.098087,0.942647,0.\Cl,0,-2.091531,-0.703664,0.\
 H,0,2.561273,-2.091911,0.\H,0,3.439768,0.237886,0.\H,0,0.105451,-2.473
 263,0.\H,0,1.870517,2.142823,0.\C,0,-0.843647,2.117405,0.\H,0,-0.28715
 6,3.055798,0.\H,0,-1.49534,2.103466,0.878172\H,0,-1.49534,2.103466,-0.

 Normal termination of Gaussian 16 at Tue Apr  8 22:50:12 2025.
 Gaussian 16:  ES64L-G16RevC.01  3-Jul-2019

 ----------------------------------------------------------------------
 #t hf aug-cc-pvdz iop(5/13=1,5/36=2,99/5=2) pseudo=read geom=check gue
 ss=(read,tcheck) scf=(maxcycle=1)
 ----------------------------------------------------------------------
 -----
 title
 -----
 Structure from the checkpoint file:  "BDE49_expt_1675_mol1.chk"
 Charge =  0 Multiplicity = 1

                         Standard orientation:
 ---------------------------------------------------------------------
 Center     Atomic      Atomic             Coordinates (Angstroms)
 Number     Number       Type             X           Y           Z
 ---------------------------------------------------------------------
      1          6           0        0.000000    0.523300    0.000000
      2          6           0       -1.376638    0.721089    0.000000
      3          6           0       -2.225502   -0.381552    0.000000
      4          6           0       -1.688766   -1.665761    0.000000
      5          6           0       -0.307941   -1.839852    0.000000
      6          6           0        0.574621   -0.753667    0.000000
      7         17           0        1.040809    1.945858    0.000000
      8          1           0       -3.298844   -0.232038    0.000000
      9          1           0       -2.341830   -2.530697    0.000000
     10          1           0       -1.771857    1.728778    0.000000
     11          1           0        0.106472   -2.842391    0.000000
     12          6           0        2.065527   -0.963712    0.000000
     13          1           0        2.303419   -2.028452    0.000000
     14          1           0        2.530542   -0.506920    0.878172
     15          1           0        2.530542   -0.506920   -0.878172
 ---------------------------------------------------------------------

 SCF Done:  E(RHF) =  -730.250526513     A.U. after    2 cycles

 The electronic state is 1-A'.
 Alpha  occ. eigenvalues --  -99.89055 -11.51873 -11.46263 -11.44927 -11.42288
 Alpha  occ. eigenvalues --  -11.41860 -11.39247 -11.37524 -10.46408  -9.66400
 Alpha  occ. eigenvalues --   -9.65673  -9.65401  -1.40539  -1.27988  -1.15363
 Alpha  occ. eigenvalues --   -1.08404  -1.00299  -0.87361  -0.84375  -0.71095
 Alpha  occ. eigenvalues --   -0.65748  -0.63286  -0.59602  -0.59412  -0.56527
 Alpha  occ. eigenvalues --   -0.54538  -0.53368  -0.50231  -0.48475  -0.45999
 Alpha  occ. eigenvalues --   -0.44252  -0.33659  -0.32798
 Alpha virt. eigenvalues --    0.03204   0.04834   0.05092   0.05762   0.06517
 Alpha virt. eigenvalues --    0.07100   0.07751   0.08516   0.10357   0.10567
 Alpha virt. eigenvalues --    0.10983   0.12350   0.12525   0.12955   0.13649

 Mulliken charges:
               1
     1  C   -1.449808
     2  C   -2.124644
     3  C   -1.558048
     4  C   -2.849095
     5  C   -1.142802
     6  C    4.581204
     7  Cl  -0.897532
     8  H    1.506522
     9  H    1.511198
    10  H    1.690248
    11  H    1.685202
    12  C   -4.469826
    13  H    1.303345
    14  H    1.107018
    15  H    1.107018
 Sum of Mulliken charges =  -0.00000

 Dipole moment (field-independent basis, Debye):
    X=             -1.0605    Y=             -2.0084    Z=              0.0000  Tot=              2.2712

 Test job not archived.
 1\1\GINC-SE342\SP\RHF\Aug-CC-pVDZ\C7H7Cl1\OHZDE\08-Apr-2025\0\\#t hf a
 ug-cc-pvdz iop(5/13=1,5/36=2,99/5=2) pseudo=read geom=check guess=(rea
 d,tcheck) scf=(maxcycle=1)\\title\\0,1\C,0,-0.358647,-0.381071,0.\C,0,
 0.508276,-1.46859,0.\C,0,1.882127,-1.247412,0.\C,0,2.371413,0.055614,0
 .\C,0,1.485199,1.128746,0.\C,0,0.098087,0.942647,0.\Cl,0,-2.091531,-0.
 703664,0.\H,0,2.561273,-2.091911,0.\H,0,3.439768,0.237886,0.\H,0,0.105
 451,-2.473263,0.\H,0,1.870517,2.142823,0.\C,0,-0.843647,2.117405,0.\H,
 0,-0.287156,3.055798,0.\H,0,-1.49534,2.103466,0.878172\H,0,-1.49534,2.

 Normal termination of Gaussian 16 at Tue Apr  8 22:50:17 2025.
