 Gaussian 16, Revision C.01,

 ----------------------------------------------------------------------
 #t hf aug-cc-pvdz symm=none int=(grid=ultrafine) guess=(read,tcheck) s
 table=opt
 ----------------------------------------------------------------------
 -----
 title
 -----
 Symbolic Z-matrix:
 Charge =  0 Multiplicity = 2

 SCF Done:  E(UHF) =  -312.185769614     A.U. after   17 cycles
 Normal termination of Gaussian 16 at Tue Apr  8 23:19:50 2025.
 Gaussian 16:  ES64L-G16RevC.01  3-Jul-2019

 ----------------------------------------------------------------------
 #t hf aug-cc-pvdz iop(5/13=1,5/36=2,99/5=2) pseudo=read geom=check gue
 ss=(read,tcheck) scf=(maxcycle=1)
 ----------------------------------------------------------------------
 -----
 title
 -----
 Structure from the checkpoint file:  "BDE49_nonexpt_1109_mol2.chk"
 Charge =  0 Multiplicity = 2

                         Standard orientation:
 ---------------------------------------------------------------------
 Center     Atomic      Atomic             Coordinates (Angstroms)
 Number     Number       Type             X           Y           Z
 ---------------------------------------------------------------------
      1          8           0       -0.760611    1.107884    0.000000
      2          6           0        0.206327    0.205653    0.000000
      3          9           0        0.206327   -0.606513    1.091013
      4          9           0        0.206327   -0.606513   -1.091013
      5          1           0        1.133052    0.820253    0.000000
 ---------------------------------------------------------------------

 SCF Done:  E(UHF) =  -313.281328309     A.U. after    2 cycles

 The electronic state is 2-A'.
 Alpha  occ. eigenvalues --  -29.30815 -29.30773 -21.18325 -11.55992  -1.83274
 Alpha  occ. eigenvalues --   -1.21350  -0.85409  -0.81997  -0.66324  -0.49232
 Alpha  occ. eigenvalues --   -0.46388  -0.45693  -0.37267  -0.34379  -0.30982
 Alpha  occ. eigenvalues --   -0.29725  -0.23266
 Alpha virt. eigenvalues --    0.04181   0.09507   0.10795   0.12031   0.17632
 Alpha virt. eigenvalues --    0.19788   0.21405   0.21971   0.22881   0.24298
 Alpha virt. eigenvalues --    0.30017   0.31494   0.32056   0.32429   0.34474

  Beta  occ. eigenvalues --  -29.30755 -29.30713 -21.14592 -11.56274  -1.72405
  Beta  occ. eigenvalues --   -1.18758  -0.85428  -0.78341  -0.63899  -0.45741
  Beta  occ. eigenvalues --   -0.44764  -0.36023  -0.35108  -0.30120  -0.28983
  Beta  occ. eigenvalues --   -0.23061
  Beta virt. eigenvalues --    0.04185   0.07977   0.09614   0.11127   0.12063
  Beta virt. eigenvalues --    0.17915   0.20074   0.22095   0.22918   0.24313
  Beta virt. eigenvalues --    0.25751   0.31594   0.32168   0.32609   0.33026

 Mulliken charges and spin densities:
               1          2
     1  O   -1.737279   1.098529
     2  C   -0.593797  -0.184994
     3  F    0.529609   0.006974
     4  F    0.529609   0.006974
     5  H    1.271858   0.072518
 Sum of Mulliken charges =  -0.00000   1.00000

 Dipole moment (field-independent basis, Debye):
    X=              0.8096    Y=             -2.0243    Z=             -0.0000  Tot=              2.1802
                          Isotropic Fermi Contact Couplings
        Atom                 a.u.       MegaHertz       Gauss      10(-4) cm-1
     1  O(17)              0.18374    -111.38435     -39.74470     -37.15382
     2  C(13)             -0.02550     -28.67132     -10.23064      -9.56372
     3  F(19)              0.00901      37.88932      13.51985      12.63852
     4  F(19)              0.00901      37.88932      13.51985      12.63852
     5  H(1)               0.02660     118.90717      42.42903      39.66316
 --------------------------------------------------------
       Center         ----  Spin Dipole Couplings  ----
                      3XX-RR        3YY-RR        3ZZ-RR

 Normal termination of Gaussian 16 at Tue Apr  8 23:19:51 2025.
