 Gaussian 16, Revision C.01,

 ----------------------------------------------------------------------
 #t hf aug-cc-pvdz symm=none int=(grid=ultrafine) guess=(read,tcheck) s
 table=(opt,rrhf)
 ----------------------------------------------------------------------
 -----
 title
 -----
 Symbolic Z-matrix:
 Charge =  0 Multiplicity = 1

 SCF Done:  E(RHF) =  -1216.65286016     A.U. after   16 cycles
 Normal termination of Gaussian 16 at Tue Apr  8 23:32:52 2025.
 Gaussian 16:  ES64L-G16RevC.01  3-Jul-2019

 ----------------------------------------------------------------------
 #t hf aug-cc-pvdz iop(5/13=1,5/36=2,99/5=2) pseudo=read geom=check gue
 ss=(read,tcheck) scf=(maxcycle=1)
 ----------------------------------------------------------------------
 -----
 title
 -----
 Structure from the checkpoint file:  "BDE49_nonexpt_1346_mol1.chk"
 Charge =  0 Multiplicity = 1

                         Standard orientation:
 ---------------------------------------------------------------------
 Center     Atomic      Atomic             Coordinates (Angstroms)
 Number     Number       Type             X           Y           Z
 ---------------------------------------------------------------------
      1          6           0       -0.363135   -0.002750   -0.017829
      2         15           0        1.536061    0.028832   -0.177198
      3          7           0       -1.028064    1.283532   -0.521518
      4          7           0       -0.839177   -0.156163    1.447431
      5          8           0       -0.675935    0.844541    2.111079
      6          8           0       -0.286670    2.089448   -1.059729
      7          8           0        1.963070    1.350571    0.561715
      8          8           0       -2.215379    1.386151   -0.336292
      9          8           0        1.877615   -0.197355   -1.574160
     10          8           0       -1.293569   -1.219719    1.790951
     11          7           0       -0.859760   -1.199416   -0.842630
     12          8           0       -0.268183   -2.234059   -0.590239
     13          8           0       -1.736973   -1.025996   -1.649638
     14          1           0        1.778259    2.141676    0.035270
     15          8           0        1.964770   -1.009598    0.932913
     16          1           0        1.818674   -1.925193    0.653902
 ---------------------------------------------------------------------

 SCF Done:  E(RHF) =  -1220.49157439     A.U. after    2 cycles

 The electronic state is 1-A.
 Alpha  occ. eigenvalues -- -105.38480 -21.17544 -21.17477 -21.17440 -21.17356
 Alpha  occ. eigenvalues --  -21.17051 -21.16678 -21.16403 -21.16083 -21.08320
 Alpha  occ. eigenvalues --  -16.07977 -16.07951 -16.07833 -11.61905  -3.00884
 Alpha  occ. eigenvalues --   -2.09702  -2.08608  -2.05997  -2.05942  -1.98750
 Alpha  occ. eigenvalues --   -1.84654  -1.77860  -1.77030  -1.76775  -1.62332
 Alpha  occ. eigenvalues --   -1.45484  -1.34698  -1.30036  -1.07106  -1.06563
 Alpha  occ. eigenvalues --   -0.84521  -0.81809  -0.80752  -0.79896  -0.73218
 Alpha  occ. eigenvalues --   -0.72322  -0.69717  -0.67949  -0.67178  -0.66739
 Alpha  occ. eigenvalues --   -0.63082  -0.62684  -0.53639  -0.49937  -0.48244
 Alpha  occ. eigenvalues --   -0.43960  -0.42168  -0.41569  -0.40359  -0.39714
 Alpha  occ. eigenvalues --   -0.39473  -0.37834  -0.37071  -0.35827  -0.34625
 Alpha  occ. eigenvalues --   -0.34007  -0.31943  -0.21091
 Alpha virt. eigenvalues --    0.04164   0.05406   0.07008   0.07474   0.08634
 Alpha virt. eigenvalues --    0.08982   0.09698   0.11338   0.11879   0.13119
 Alpha virt. eigenvalues --    0.13762   0.13993   0.14399   0.14940   0.15512

 Mulliken charges:
               1
     1  C   -1.185010
     2  P   10.929096
     3  N    5.423585
     4  N    5.198112
     5  O   -3.099496
     6  O   -2.920964
     7  O   -2.896404
     8  O   -3.210172
     9  O   -3.074106
    10  O   -2.997229
    11  N    4.941713
    12  O   -3.013234
    13  O   -2.868622
    14  H    0.876837
    15  O   -2.952276
    16  H    0.848170
 Sum of Mulliken charges =  -0.00000

 Dipole moment (field-independent basis, Debye):
    X=              0.8858    Y=              0.3875    Z=              2.1427  Tot=              2.3507

 Test job not archived.
 1\1\GINC-SE038\SP\RHF\Aug-CC-pVDZ\C1H2N3O9P1\OHZDE\08-Apr-2025\0\\#t h
 f aug-cc-pvdz iop(5/13=1,5/36=2,99/5=2) pseudo=read geom=check guess=(
 read,tcheck) scf=(maxcycle=1)\\title\\0,1\C,0,-0.363135,-0.00275,-0.01
 7829\P,0,1.536061,0.028832,-0.177198\N,0,-1.028064,1.283532,-0.521518\
 N,0,-0.839177,-0.156163,1.447431\O,0,-0.675935,0.844541,2.111079\O,0,-
 0.28667,2.089448,-1.059729\O,0,1.96307,1.350571,0.561715\O,0,-2.215379
 ,1.386151,-0.336292\O,0,1.877615,-0.197355,-1.57416\O,0,-1.293569,-1.2
 19719,1.790951\N,0,-0.85976,-1.199416,-0.84263\O,0,-0.268183,-2.234059

 Normal termination of Gaussian 16 at Tue Apr  8 23:33:07 2025.
