 Gaussian 16, Revision C.01,

 ----------------------------------------------------------------------
 #t hf aug-cc-pvdz symm=none int=(grid=ultrafine) guess=(read,tcheck) s
 table=(opt,rrhf)
 ----------------------------------------------------------------------
 -----
 title
 -----
 Symbolic Z-matrix:
 Charge =  0 Multiplicity = 1

 SCF Done:  E(RHF) =  -614.931112764     A.U. after   15 cycles
 Normal termination of Gaussian 16 at Wed Apr  9 00:03:46 2025.
 Gaussian 16:  ES64L-G16RevC.01  3-Jul-2019

 ----------------------------------------------------------------------
 #t hf aug-cc-pvdz iop(5/13=1,5/36=2,99/5=2) pseudo=read geom=check gue
 ss=(read,tcheck) scf=(maxcycle=1)
 ----------------------------------------------------------------------
 -----
 title
 -----
 Structure from the checkpoint file:  "BDE49_nonexpt_2150_mol1.chk"
 Charge =  0 Multiplicity = 1

                         Standard orientation:
 ---------------------------------------------------------------------
 Center     Atomic      Atomic             Coordinates (Angstroms)
 Number     Number       Type             X           Y           Z
 ---------------------------------------------------------------------
      1         14           0       -2.398689   -0.239813   -0.428458
      2          7           0       -0.863274   -1.010317   -0.133303
      3          6           0        0.420048   -0.459328   -0.071157
      4          6           0        0.650443    0.900751   -0.335527
      5          6           0        1.522606   -1.265845    0.257553
      6          6           0        2.803350   -0.730727    0.320442
      7          6           0        3.023794    0.620885    0.059891
      8          6           0        1.936489    1.427142   -0.268668
      9          1           0        4.022920    1.036494    0.110793
     10          1           0        2.086580    2.480508   -0.479255
     11          1           0       -0.175346    1.549146   -0.606835
     12          1           0        1.365763   -2.320269    0.464763
     13          1           0        3.635666   -1.377487    0.576278
     14          1           0       -0.880379   -2.007578    0.024953
     15          6           0       -2.945343    0.916597    0.941466
     16          1           0       -3.054021    0.380224    1.887838
     17          1           0       -3.911687    1.365974    0.690662
     18          1           0       -2.228867    1.727812    1.094671
     19          1           0       -3.340307   -1.376626   -0.550750
     20          1           0       -2.364077    0.514556   -1.705573
 ---------------------------------------------------------------------

 SCF Done:  E(RHF) =  -616.675034496     A.U. after    2 cycles

 The electronic state is 1-A.
 Alpha  occ. eigenvalues --  -76.22136 -15.73180 -11.51940 -11.44859 -11.42517
 Alpha  occ. eigenvalues --  -11.39872 -11.39682 -11.35583 -11.34941  -5.55948
 Alpha  occ. eigenvalues --   -2.21573  -2.18694  -2.18125  -1.40332  -1.25866
 Alpha  occ. eigenvalues --   -1.08817  -1.05636  -1.03055  -0.86748  -0.84718
 Alpha  occ. eigenvalues --   -0.73744  -0.70759  -0.66603  -0.60892  -0.57730
 Alpha  occ. eigenvalues --   -0.57096  -0.55873  -0.55549  -0.53253  -0.50112
 Alpha  occ. eigenvalues --   -0.46898  -0.45070  -0.44661  -0.42836  -0.40245
 Alpha  occ. eigenvalues --   -0.32828  -0.27182
 Alpha virt. eigenvalues --    0.03377   0.04586   0.04951   0.05406   0.05717
 Alpha virt. eigenvalues --    0.06007   0.06758   0.07049   0.07683   0.07964
 Alpha virt. eigenvalues --    0.08475   0.09781   0.10609   0.11656   0.11819

 Mulliken charges:
               1
     1  Si   5.700565
     2  N   -5.209718
     3  C    4.869458
     4  C   -1.751291
     5  C   -3.798207
     6  C   -0.293307
     7  C   -2.884225
     8  C   -0.649300
     9  H    1.557281
    10  H    1.511383
    11  H    2.019034
    12  H    1.751605
    13  H    1.506412
    14  H    0.877105
    15  C   -5.122764
    16  H    1.353793
    17  H    1.280623
    18  H    1.321006
    19  H   -2.036121
    20  H   -2.003332
 Sum of Mulliken charges =   0.00000

 Dipole moment (field-independent basis, Debye):
    X=             -0.4540    Y=             -0.3429    Z=              0.6856  Tot=              0.8909

 Test job not archived.
 1\1\GINC-SE402\SP\RHF\Aug-CC-pVDZ\C7H11N1Si1\OHZDE\09-Apr-2025\0\\#t h
 f aug-cc-pvdz iop(5/13=1,5/36=2,99/5=2) pseudo=read geom=check guess=(
 read,tcheck) scf=(maxcycle=1)\\title\\0,1\Si,0,-2.398689,-0.239813,-0.
 428458\N,0,-0.863274,-1.010317,-0.133303\C,0,0.420048,-0.459328,-0.071
 157\C,0,0.650443,0.900751,-0.335527\C,0,1.522606,-1.265845,0.257553\C,
 0,2.80335,-0.730727,0.320442\C,0,3.023794,0.620885,0.059891\C,0,1.9364
 89,1.427142,-0.268668\H,0,4.02292,1.036494,0.110793\H,0,2.08658,2.4805
 08,-0.479255\H,0,-0.175346,1.549146,-0.606835\H,0,1.365763,-2.320269,0

 Normal termination of Gaussian 16 at Wed Apr  9 00:03:56 2025.
