 Gaussian 16, Revision C.01,

 ----------------------------------------------------------------------
 #t hf aug-cc-pvdz symm=none int=(grid=ultrafine) guess=(read,tcheck) s
 table=opt
 ----------------------------------------------------------------------
 -----
 title
 -----
 Symbolic Z-matrix:
 Charge =  0 Multiplicity = 2

 SCF Done:  E(UHF) =  -703.909032907     A.U. after   22 cycles
 Normal termination of Gaussian 16 at Wed Apr  9 00:16:08 2025.
 Gaussian 16:  ES64L-G16RevC.01  3-Jul-2019

 ----------------------------------------------------------------------
 #t hf aug-cc-pvdz iop(5/13=1,5/36=2,99/5=2) pseudo=read geom=check gue
 ss=(read,tcheck) scf=(maxcycle=1)
 ----------------------------------------------------------------------
 -----
 title
 -----
 Structure from the checkpoint file:  "BDE49_nonexpt_2482_mol2.chk"
 Charge =  0 Multiplicity = 2

                         Standard orientation:
 ---------------------------------------------------------------------
 Center     Atomic      Atomic             Coordinates (Angstroms)
 Number     Number       Type             X           Y           Z
 ---------------------------------------------------------------------
      1         16           0        1.587995   -0.029893   -0.043528
      2          8           0        1.373230   -1.380363   -0.581609
      3          8           0        1.568517    0.219819    1.403010
      4          6           0        0.293451    1.081249   -0.794556
      5          6           0       -1.058219    0.951330   -0.091363
      6          1           0        0.267806    0.792765   -1.846509
      7          1           0        0.713583    2.083299   -0.694480
      8          6           0       -1.752584   -0.404577   -0.258257
      9          1           0       -1.696406    1.742713   -0.505978
     10          1           0       -0.926756    1.180561    0.969988
     11          6           0       -3.128361   -0.438939    0.412630
     12          1           0       -1.855098   -0.629630   -1.326154
     13          1           0       -1.120487   -1.194388    0.157961
     14          1           0       -3.798605    0.315502   -0.011169
     15          1           0       -3.048813   -0.247885    1.486931
     16          1           0       -3.602838   -1.414667    0.283929
 ---------------------------------------------------------------------

 SCF Done:  E(UHF) =  -705.574889795     A.U. after    2 cycles

 The electronic state is 2-A.
 Alpha  occ. eigenvalues --  -75.86268 -21.08344 -21.07734 -13.47297 -13.33293
 Alpha  occ. eigenvalues --  -13.25130 -11.46821 -11.42982 -11.39726 -11.36128
 Alpha  occ. eigenvalues --   -8.21230  -1.82968  -1.67323  -1.27353  -1.13005
 Alpha  occ. eigenvalues --   -0.99729  -0.89885  -0.83835  -0.67966  -0.65744
 Alpha  occ. eigenvalues --   -0.61401  -0.59445  -0.55515  -0.54116  -0.52991
 Alpha  occ. eigenvalues --   -0.48599  -0.47748  -0.46732  -0.45323  -0.42026
 Alpha  occ. eigenvalues --   -0.38044  -0.37329  -0.27645
 Alpha virt. eigenvalues --    0.03288   0.04249   0.05064   0.05477   0.06113
 Alpha virt. eigenvalues --    0.06371   0.06787   0.07937   0.08657   0.09843
 Alpha virt. eigenvalues --    0.10827   0.11788   0.13128   0.13291   0.13997

  Beta  occ. eigenvalues --  -75.85887 -21.06867 -21.06463 -13.47340 -13.33216
  Beta  occ. eigenvalues --  -13.22832 -11.46469 -11.42899 -11.39685 -11.36118
  Beta  occ. eigenvalues --   -8.20738  -1.80336  -1.63737  -1.26670  -1.11748
  Beta  occ. eigenvalues --   -0.97719  -0.87559  -0.82467  -0.67084  -0.64865
  Beta  occ. eigenvalues --   -0.60984  -0.58268  -0.55054  -0.52642  -0.50098
  Beta  occ. eigenvalues --   -0.48095  -0.47239  -0.45047  -0.44387  -0.36362
  Beta  occ. eigenvalues --   -0.35841  -0.34276
  Beta virt. eigenvalues --    0.02575   0.04047   0.04936   0.05322   0.06080
  Beta virt. eigenvalues --    0.06360   0.06407   0.06925   0.08661   0.08935
  Beta virt. eigenvalues --    0.09913   0.11118   0.12092   0.13385   0.13622

 Mulliken charges and spin densities:
               1          2
     1  S    5.380518   0.326502
     2  O   -2.288150   0.268534
     3  O   -2.340688   0.224426
     4  C   -3.847669   0.224176
     5  C   -2.690581   0.011935
     6  H    1.499369  -0.025344
     7  H    1.387250  -0.007399
     8  C   -2.913819  -0.014181
     9  H    1.376676   0.003990
    10  H    1.586193  -0.011143
    11  C   -3.991672   0.006409
    12  H    1.444654   0.000101
    13  H    1.672733  -0.008982
    14  H    1.315466  -0.000184
    15  H    1.288617   0.001334
    16  H    1.121101  -0.000175
 Sum of Mulliken charges =  -0.00000   1.00000

 Dipole moment (field-independent basis, Debye):
    X=             -1.1143    Y=              1.4248    Z=             -1.1556  Tot=              2.1464
                          Isotropic Fermi Contact Couplings
        Atom                 a.u.       MegaHertz       Gauss      10(-4) cm-1
     1  S(33)              0.71457     245.43466      87.57719      81.86819
     2  O(17)              0.08324     -50.46083     -18.00568     -16.83192
     3  O(17)              0.07504     -45.49138     -16.23246     -15.17429
     4  C(13)              0.06451      72.52490      25.87869      24.19170
     5  C(13)              0.00256       2.88002       1.02766       0.96067
     6  H(1)              -0.00263     -11.73362      -4.18685      -3.91391
     7  H(1)              -0.00272     -12.17828      -4.34551      -4.06224
     8  C(13)             -0.00084      -0.94887      -0.33858      -0.31651

 Normal termination of Gaussian 16 at Wed Apr  9 00:16:15 2025.
