 Gaussian 16, Revision C.01,

 ----------------------------------------------------------------------
 #t hf aug-cc-pvdz symm=none int=(grid=ultrafine) guess=(read,tcheck) s
 table=(opt,rrhf)
 ----------------------------------------------------------------------
 -----
 title
 -----
 Symbolic Z-matrix:
 Charge =  0 Multiplicity = 1

 SCF Done:  E(RHF) =  -941.014773054     A.U. after   13 cycles
 Normal termination of Gaussian 16 at Wed Apr  9 00:03:44 2025.
 Gaussian 16:  ES64L-G16RevC.01  3-Jul-2019

 ----------------------------------------------------------------------
 #t hf aug-cc-pvdz iop(5/13=1,5/36=2,99/5=2) pseudo=read geom=check gue
 ss=(read,tcheck) scf=(maxcycle=1)
 ----------------------------------------------------------------------
 -----
 title
 -----
 Structure from the checkpoint file:  "BDE49_nonexpt_2170_mol1.chk"
 Charge =  0 Multiplicity = 1

                         Standard orientation:
 ---------------------------------------------------------------------
 Center     Atomic      Atomic             Coordinates (Angstroms)
 Number     Number       Type             X           Y           Z
 ---------------------------------------------------------------------
      1          6           0        2.746220    0.483769   -0.000006
      2          8           0        1.405915    0.742225    0.000004
      3         14           0        0.118880   -0.313719    0.000005
      4          6           0       -1.394978    0.801045   -0.000005
      5          6           0        3.325100   -0.713269   -0.000003
      6          1           0        3.321535    1.403586   -0.000017
      7          1           0        2.764108   -1.640764    0.000009
      8          1           0        4.404337   -0.782560   -0.000012
      9         17           0       -2.871440   -0.264797   -0.000001
     10          1           0       -1.454496    1.431056   -0.886547
     11          1           0       -1.454499    1.431067    0.886529
     12          1           0        0.131895   -1.157919    1.212360
     13          1           0        0.131904   -1.157931   -1.212340
 ---------------------------------------------------------------------

 SCF Done:  E(RHF) =  -942.300654372     A.U. after    2 cycles

 The electronic state is 1-A.
 Alpha  occ. eigenvalues --  -99.88685 -76.24917 -21.07615 -11.46006 -11.41646
 Alpha  occ. eigenvalues --  -11.38018 -10.45843  -9.65692  -9.65138  -9.64983
 Alpha  occ. eigenvalues --   -5.58732  -2.25516  -2.21798  -2.20281  -1.74086
 Alpha  occ. eigenvalues --   -1.32431  -1.11207  -1.01160  -0.84781  -0.72804
 Alpha  occ. eigenvalues --   -0.66419  -0.64634  -0.61234  -0.58290  -0.54768
 Alpha  occ. eigenvalues --   -0.53346  -0.50858  -0.48353  -0.46385  -0.43292
 Alpha  occ. eigenvalues --   -0.39125  -0.31086
 Alpha virt. eigenvalues --    0.03398   0.04392   0.05474   0.05738   0.06061
 Alpha virt. eigenvalues --    0.06486   0.07655   0.08390   0.08733   0.09321
 Alpha virt. eigenvalues --    0.09921   0.11804   0.11988   0.13304   0.14946

 Mulliken charges:
               1
     1  C    0.938639
     2  O   -4.033887
     3  Si   6.643380
     4  C   -4.335568
     5  C   -2.907156
     6  H    1.768635
     7  H    1.382930
     8  H    1.284324
     9  Cl  -0.027836
    10  H    1.522457
    11  H    1.522456
    12  H   -1.879188
    13  H   -1.879186
 Sum of Mulliken charges =   0.00000

 Dipole moment (field-independent basis, Debye):
    X=              1.8195    Y=              1.8684    Z=             -0.0000  Tot=              2.6080

 Test job not archived.
 1\1\GINC-SE250\SP\RHF\Aug-CC-pVDZ\C3H7Cl1O1Si1\OHZDE\09-Apr-2025\0\\#t
  hf aug-cc-pvdz iop(5/13=1,5/36=2,99/5=2) pseudo=read geom=check guess
 =(read,tcheck) scf=(maxcycle=1)\\title\\0,1\C,0,2.74622,0.483769,-0.00
 0006\O,0,1.405915,0.742225,0.000004\Si,0,0.11888,-0.313719,0.000005\C,
 0,-1.394978,0.801045,-0.000005\C,0,3.3251,-0.713269,-0.000003\H,0,3.32
 1535,1.403586,-0.000017\H,0,2.764108,-1.640764,0.000009\H,0,4.404337,-
 0.78256,-0.000012\Cl,0,-2.87144,-0.264797,-0.000001\H,0,-1.454496,1.43
 1056,-0.886547\H,0,-1.454499,1.431067,0.886529\H,0,0.131895,-1.157919,

 Normal termination of Gaussian 16 at Wed Apr  9 00:03:48 2025.
