 Gaussian 16, Revision C.01,

 ----------------------------------------------------------------------
 #t hf aug-cc-pvdz symm=none int=(grid=ultrafine) guess=(read,tcheck) s
 table=(opt,rrhf)
 ----------------------------------------------------------------------
 -----
 title
 -----
 Symbolic Z-matrix:
 Charge =  0 Multiplicity = 1

 SCF Done:  E(RHF) =  -689.699002028     A.U. after   15 cycles
 Normal termination of Gaussian 16 at Tue Apr  8 22:40:44 2025.
 Gaussian 16:  ES64L-G16RevC.01  3-Jul-2019

 ----------------------------------------------------------------------
 #t hf aug-cc-pvdz iop(5/13=1,5/36=2,99/5=2) pseudo=read geom=check gue
 ss=(read,tcheck) scf=(maxcycle=1)
 ----------------------------------------------------------------------
 -----
 title
 -----
 Structure from the checkpoint file:  "BDE49_expt_1216_mol1.chk"
 Charge =  0 Multiplicity = 1

                         Standard orientation:
 ---------------------------------------------------------------------
 Center     Atomic      Atomic             Coordinates (Angstroms)
 Number     Number       Type             X           Y           Z
 ---------------------------------------------------------------------
      1          6           0        0.000021   -0.000011    0.420123
      2          7           0       -1.343735   -0.493583   -0.166061
      3          8           0       -1.291620   -1.253324   -1.105724
      4          8           0       -2.329677   -0.046761    0.380942
      5          6           0        0.000088   -0.000008    1.921249
      6          7           0        1.099319   -0.916931   -0.166146
      7          8           0        1.205050   -1.994371    0.380563
      8          8           0        1.731486   -0.491760   -1.105553
      9          1           0       -0.118012   -1.022014    2.278232
     10          1           0       -0.825930    0.613289    2.278246
     11          1           0        0.944248    0.408716    2.278169
     12          7           0        0.244400    1.410520   -0.166029
     13          8           0       -0.440105    1.745545   -1.105229
     14          8           0        1.124761    2.040681    0.380597
 ---------------------------------------------------------------------

 SCF Done:  E(RHF) =  -692.620062994     A.U. after    2 cycles

 The electronic state is 1-A.
 Alpha  occ. eigenvalues --  -21.15813 -21.15793 -21.15793 -21.15232 -21.15232
 Alpha  occ. eigenvalues --  -21.15201 -16.06275 -16.06275 -16.06190 -11.63526
 Alpha  occ. eigenvalues --  -11.46203  -2.08321  -2.04522  -2.04521  -1.75917
 Alpha  occ. eigenvalues --   -1.75916  -1.75620  -1.38134  -1.11819  -1.05281
 Alpha  occ. eigenvalues --   -1.05280  -0.81666  -0.80234  -0.80232  -0.76038
 Alpha  occ. eigenvalues --   -0.70328  -0.70327  -0.66135  -0.65933  -0.65933
 Alpha  occ. eigenvalues --   -0.62523  -0.62522  -0.61836  -0.45614  -0.39944
 Alpha  occ. eigenvalues --   -0.39943  -0.39646  -0.36554  -0.36437  -0.36436
 Alpha  occ. eigenvalues --   -0.34406  -0.34406
 Alpha virt. eigenvalues --    0.03412   0.05269   0.05269   0.08500   0.08501
 Alpha virt. eigenvalues --    0.08849   0.09685   0.12627   0.12628   0.12766
 Alpha virt. eigenvalues --    0.14238   0.14239   0.14721   0.15709   0.15710

 Mulliken charges:
               1
     1  C    4.384681
     2  N    4.013201
     3  O   -2.815326
     4  O   -3.005657
     5  C   -3.040426
     6  N    4.013358
     7  O   -3.005774
     8  O   -2.815254
     9  H    1.359640
    10  H    1.359712
    11  H    1.359726
    12  N    4.012981
    13  O   -2.815032
    14  O   -3.005830
 Sum of Mulliken charges =  -0.00000

 Dipole moment (field-independent basis, Debye):
    X=              0.0001    Y=              0.0002    Z=              1.7335  Tot=              1.7335

 Test job not archived.
 1\1\GINC-SE038\SP\RHF\Aug-CC-pVDZ\C2H3N3O6\OHZDE\08-Apr-2025\0\\#t hf
 aug-cc-pvdz iop(5/13=1,5/36=2,99/5=2) pseudo=read geom=check guess=(re
 ad,tcheck) scf=(maxcycle=1)\\title\\0,1\C,0,-0.000021,0.000011,0.42012
 3\N,0,1.34369,0.493705,-0.166061\O,0,1.291506,1.253442,-1.105724\O,0,2
 .329673,0.046973,0.380942\C,0,-0.000088,0.000008,1.921249\N,0,-1.09940
 2,0.916831,-0.166146\O,0,-1.205231,1.994262,0.380563\O,0,-1.731531,0.4
 91603,-1.105553\H,0,0.117919,1.022025,2.278232\H,0,0.825986,-0.613214,
 2.278246\H,0,-0.944211,-0.408802,2.278169\N,0,-0.244272,-1.410542,-0.1

 Normal termination of Gaussian 16 at Tue Apr  8 22:40:52 2025.
