 Gaussian 16, Revision C.01,

 ----------------------------------------------------------------------
 #t hf aug-cc-pvdz symm=none int=(grid=ultrafine) guess=(read,tcheck) s
 table=(opt,rrhf)
 ----------------------------------------------------------------------
 -----
 title
 -----
 Symbolic Z-matrix:
 Charge =  0 Multiplicity = 1

 SCF Done:  E(RHF) =  -494.762945287     A.U. after   14 cycles
 Normal termination of Gaussian 16 at Tue Apr  8 23:57:20 2025.
 Gaussian 16:  ES64L-G16RevC.01  3-Jul-2019

 ----------------------------------------------------------------------
 #t hf aug-cc-pvdz iop(5/13=1,5/36=2,99/5=2) pseudo=read geom=check gue
 ss=(read,tcheck) scf=(maxcycle=1)
 ----------------------------------------------------------------------
 -----
 title
 -----
 Structure from the checkpoint file:  "BDE49_nonexpt_2013_mol1.chk"
 Charge =  0 Multiplicity = 1

                         Standard orientation:
 ---------------------------------------------------------------------
 Center     Atomic      Atomic             Coordinates (Angstroms)
 Number     Number       Type             X           Y           Z
 ---------------------------------------------------------------------
      1          7           0        0.598314    0.006842   -0.000102
      2         14           0       -1.269060    0.026755   -0.000017
      3          8           0        1.226420    1.058588    0.000044
      4          8           0        1.097719   -1.115834    0.000075
      5          1           0       -1.709647    1.429705   -0.000002
      6          1           0       -1.652361   -0.697099    1.221803
      7          1           0       -1.652459   -0.697102   -1.221803
 ---------------------------------------------------------------------

 SCF Done:  E(RHF) =  -495.771556404     A.U. after    2 cycles

 The electronic state is 1-A.
 Alpha  occ. eigenvalues --  -76.29262 -21.10229 -21.09829 -15.96895  -5.62677
 Alpha  occ. eigenvalues --   -2.26598  -2.25104  -2.24656  -1.97746  -1.68712
 Alpha  occ. eigenvalues --   -1.01400  -0.78654  -0.66449  -0.65911  -0.60903
 Alpha  occ. eigenvalues --   -0.52370  -0.51876  -0.32838  -0.32314  -0.31482
 Alpha virt. eigenvalues --    0.03067   0.05277   0.05491   0.05838   0.08261
 Alpha virt. eigenvalues --    0.08564   0.11400   0.11569   0.14213   0.15769
 Alpha virt. eigenvalues --    0.17039   0.17053   0.17831   0.18961   0.22238

 Mulliken charges:
               1
     1  N    3.610705
     2  Si   5.641977
     3  O   -2.254068
     4  O   -2.342796
     5  H   -1.484690
     6  H   -1.585580
     7  H   -1.585548
 Sum of Mulliken charges =  -0.00000

 Dipole moment (field-independent basis, Debye):
    X=             -2.4612    Y=              0.1488    Z=              0.0001  Tot=              2.4657

 Test job not archived.
 1\1\GINC-SE105\SP\RHF\Aug-CC-pVDZ\H3N1O2Si1\OHZDE\08-Apr-2025\0\\#t hf
  aug-cc-pvdz iop(5/13=1,5/36=2,99/5=2) pseudo=read geom=check guess=(r
 ead,tcheck) scf=(maxcycle=1)\\title\\0,1\N,0,0.598314,0.006842,-0.0001
 02\Si,0,-1.26906,0.026756,-0.000017\O,0,1.22642,1.058587,0.000044\O,0,
 1.097718,-1.115835,0.000075\H,0,-1.709646,1.429706,-0.000002\H,0,-1.65
 2361,-0.697098,1.221803\H,0,-1.652459,-0.697101,-1.221803\\Version=ES6
 4L-G16RevC.01\State=1-A\HF=-495.7715564\RMSD=9.561e-02\Dipole=-0.96832
 07,0.0585624,0.0000314\Quadrupole=0.8031414,-1.7267187,0.9235774,-0.07

 Normal termination of Gaussian 16 at Tue Apr  8 23:57:22 2025.
