 Gaussian 16, Revision C.01,

 ----------------------------------------------------------------------
 #t hf aug-cc-pvdz symm=none int=(grid=ultrafine) guess=(read,tcheck) s
 table=(opt,rrhf)
 ----------------------------------------------------------------------
 -----
 title
 -----
 Symbolic Z-matrix:
 Charge =  0 Multiplicity = 1

 SCF Done:  E(RHF) =  -1229.11813620     A.U. after   16 cycles
 Normal termination of Gaussian 16 at Tue Apr  8 23:42:13 2025.
 Gaussian 16:  ES64L-G16RevC.01  3-Jul-2019

 ----------------------------------------------------------------------
 #t hf aug-cc-pvdz iop(5/13=1,5/36=2,99/5=2) pseudo=read geom=check gue
 ss=(read,tcheck) scf=(maxcycle=1)
 ----------------------------------------------------------------------
 -----
 title
 -----
 Structure from the checkpoint file:  "BDE49_nonexpt_1617_mol1.chk"
 Charge =  0 Multiplicity = 1

                         Standard orientation:
 ---------------------------------------------------------------------
 Center     Atomic      Atomic             Coordinates (Angstroms)
 Number     Number       Type             X           Y           Z
 ---------------------------------------------------------------------
      1         15           0        0.178552    0.145129   -0.877956
      2          7           0        0.100272    1.803930    0.018126
      3         15           0       -1.600410   -0.690326    0.195063
      4          6           0        1.528109   -0.664667    0.097625
      5          6           0        2.937787   -0.351432   -0.427978
      6          1           0        1.321943   -1.738916    0.003950
      7          1           0        1.416875   -0.413005    1.154460
      8          8           0        1.133375    2.273762    0.447908
      9          8           0       -0.989270    2.382425    0.042044
     10          8           0       -1.407765   -0.951774    1.627064
     11          8           0       -2.778439    0.266519   -0.272158
     12          6           0        4.018310   -1.104423    0.354003
     13          1           0        3.114591    0.724235   -0.358439
     14          1           0        2.998016   -0.614540   -1.489665
     15          1           0        3.998084   -0.834997    1.413727
     16          1           0        5.013086   -0.867420   -0.031201
     17          1           0        3.881301   -2.187714    0.281854
     18          1           0       -2.528034    1.201743   -0.141274
     19          8           0       -1.898885   -1.997449   -0.686030
     20          1           0       -1.967276   -2.783675   -0.129424
 ---------------------------------------------------------------------

 SCF Done:  E(RHF) =  -1231.89258877     A.U. after    2 cycles

 The electronic state is 1-A.
 Alpha  occ. eigenvalues -- -105.33037-105.25937 -21.13868 -21.12373 -21.12244
 Alpha  occ. eigenvalues --  -21.11010 -21.04409 -15.99999 -11.45074 -11.41189
 Alpha  occ. eigenvalues --  -11.37588  -2.95216  -2.83787  -2.01187  -2.00535
 Alpha  occ. eigenvalues --   -1.92778  -1.80644  -1.71230  -1.60489  -1.56410
 Alpha  occ. eigenvalues --   -1.52366  -1.42169  -1.41377  -1.26983  -1.22032
 Alpha  occ. eigenvalues --   -1.01893  -0.95106  -0.86619  -0.75556  -0.70815
 Alpha  occ. eigenvalues --   -0.67691  -0.66455  -0.62828  -0.60681  -0.59512
 Alpha  occ. eigenvalues --   -0.57446  -0.56178  -0.55486  -0.49479  -0.49229
 Alpha  occ. eigenvalues --   -0.48903  -0.46320  -0.43673  -0.35881  -0.35219
 Alpha  occ. eigenvalues --   -0.34629  -0.33686  -0.29715  -0.26002  -0.19745
 Alpha  occ. eigenvalues --   -0.10661   0.02094
 Alpha virt. eigenvalues --    0.03629   0.04618   0.05486   0.05936   0.06243
 Alpha virt. eigenvalues --    0.06800   0.07339   0.08219   0.08457   0.09357
 Alpha virt. eigenvalues --    0.10122   0.10705   0.11476   0.11880   0.12163

 Mulliken charges:
               1
     1  P    2.357743
     2  N    4.010877
     3  P    8.267897
     4  C   -4.382368
     5  C   -2.718598
     6  H    1.493769
     7  H    1.707696
     8  O   -2.605591
     9  O   -2.807416
    10  O   -3.217026
    11  O   -3.504484
    12  C   -4.001665
    13  H    1.740367
    14  H    0.807667
    15  H    1.217819
    16  H    1.251716
    17  H    1.244828
    18  H    1.322726
    19  O   -2.820162
    20  H    0.634206
 Sum of Mulliken charges =  -0.00000

 Dipole moment (field-independent basis, Debye):
    X=             -3.2177    Y=             -2.9346    Z=             -1.1495  Tot=              4.5041

 Test job not archived.
 1\1\GINC-SE339\SP\RHF\Aug-CC-pVDZ\C3H9N1O5P2\OHZDE\08-Apr-2025\0\\#t h
 f aug-cc-pvdz iop(5/13=1,5/36=2,99/5=2) pseudo=read geom=check guess=(
 read,tcheck) scf=(maxcycle=1)\\title\\0,1\P,0,0.178552,0.145129,-0.877
 956\N,0,0.100272,1.80393,0.018126\P,0,-1.60041,-0.690326,0.195063\C,0,
 1.528109,-0.664667,0.097625\C,0,2.937787,-0.351432,-0.427978\H,0,1.321
 943,-1.738916,0.00395\H,0,1.416875,-0.413005,1.15446\O,0,1.133375,2.27
 3762,0.447908\O,0,-0.98927,2.382425,0.042044\O,0,-1.407765,-0.951774,1
 .627064\O,0,-2.778439,0.266519,-0.272158\C,0,4.01831,-1.104422,0.35400

 Normal termination of Gaussian 16 at Tue Apr  8 23:42:24 2025.
