 Gaussian 16, Revision C.01,

 ----------------------------------------------------------------------
 #t hf aug-cc-pvdz symm=none int=(grid=ultrafine) guess=(read,tcheck) s
 table=(opt,rrhf)
 ----------------------------------------------------------------------
 -----
 title
 -----
 Symbolic Z-matrix:
 Charge =  0 Multiplicity = 1

 SCF Done:  E(RHF) =  -723.823379337     A.U. after   17 cycles
 Normal termination of Gaussian 16 at Tue Apr  8 23:36:50 2025.
 Gaussian 16:  ES64L-G16RevC.01  3-Jul-2019

 ----------------------------------------------------------------------
 #t hf aug-cc-pvdz iop(5/13=1,5/36=2,99/5=2) pseudo=read geom=check gue
 ss=(read,tcheck) scf=(maxcycle=1)
 ----------------------------------------------------------------------
 -----
 title
 -----
 Structure from the checkpoint file:  "BDE49_nonexpt_1475_mol1.chk"
 Charge =  0 Multiplicity = 1

                         Standard orientation:
 ---------------------------------------------------------------------
 Center     Atomic      Atomic             Coordinates (Angstroms)
 Number     Number       Type             X           Y           Z
 ---------------------------------------------------------------------
      1          6           0        2.350065   -1.133693    0.732836
      2          6           0        1.050803   -1.208439    0.239182
      3          6           0        3.121350    0.006189    0.507712
      4          6           0        2.591580    1.066612   -0.223036
      5          6           0        1.295855    0.986316   -0.729236
      6          6           0        0.503558   -0.146119   -0.496249
      7          1           0        0.458682   -2.097732    0.424741
      8          1           0        2.760701   -1.964803    1.295398
      9          1           0        4.132409    0.063207    0.894733
     10          1           0        3.189745    1.951334   -0.410244
     11          1           0        0.898224    1.806277   -1.318117
     12         15           0       -1.201086   -0.177715   -1.189931
     13          6           0       -2.314900    0.083151    0.325715
     14          8           0       -3.374234   -0.493851    0.361517
     15          6           0       -1.885456    1.086071    1.374805
     16          1           0       -1.016315    0.706354    1.918962
     17          1           0       -2.710032    1.259623    2.066815
     18          1           0       -1.582390    2.026804    0.906049
     19          1           0       -1.398000   -1.575061   -1.211880
 ---------------------------------------------------------------------

 SCF Done:  E(RHF) =  -725.801145905     A.U. after    2 cycles

 The electronic state is 1-A.
 Alpha  occ. eigenvalues -- -105.18895 -21.06041 -11.52928 -11.48308 -11.44395
 Alpha  occ. eigenvalues --  -11.44322 -11.42281 -11.41818 -11.38984 -11.37669
 Alpha  occ. eigenvalues --   -2.76571  -1.71500  -1.52111  -1.47157  -1.46440
 Alpha  occ. eigenvalues --   -1.33839  -1.10721  -1.10488  -1.08778  -0.87596
 Alpha  occ. eigenvalues --   -0.86728  -0.79368  -0.72022  -0.67995  -0.63781
 Alpha  occ. eigenvalues --   -0.59658  -0.59487  -0.58475  -0.57828  -0.53252
 Alpha  occ. eigenvalues --   -0.51719  -0.50329  -0.46030  -0.43383  -0.39185
 Alpha  occ. eigenvalues --   -0.35317  -0.34391  -0.25172  -0.17193  -0.02260
 Alpha virt. eigenvalues --    0.03104   0.04759   0.04989   0.05342   0.06356
 Alpha virt. eigenvalues --    0.06734   0.07156   0.07649   0.07889   0.09029
 Alpha virt. eigenvalues --    0.09796   0.09999   0.10690   0.11118   0.12497

 Mulliken charges:
               1
     1  C   -0.744341
     2  C   -3.449290
     3  C   -2.027139
     4  C   -1.219425
     5  C   -4.121304
     6  C    2.631925
     7  H    1.902814
     8  H    1.518082
     9  H    1.470641
    10  H    1.570644
    11  H    1.909654
    12  P    3.011803
    13  C    1.382105
    14  O   -3.006613
    15  C   -4.367298
    16  H    1.543852
    17  H    1.181124
    18  H    1.491836
    19  H   -0.679070
 Sum of Mulliken charges =  -0.00000

 Dipole moment (field-independent basis, Debye):
    X=              2.5973    Y=              0.6356    Z=             -0.6785  Tot=              2.7587

 Test job not archived.
 1\1\GINC-SE343\SP\RHF\Aug-CC-pVDZ\C8H9O1P1\OHZDE\08-Apr-2025\0\\#t hf
 aug-cc-pvdz iop(5/13=1,5/36=2,99/5=2) pseudo=read geom=check guess=(re
 ad,tcheck) scf=(maxcycle=1)\\title\\0,1\C,0,2.350065,-1.133693,0.73283
 6\C,0,1.050803,-1.208439,0.239182\C,0,3.12135,0.006189,0.507712\C,0,2.
 59158,1.066612,-0.223036\C,0,1.295855,0.986316,-0.729236\C,0,0.503558,
 -0.146119,-0.496249\H,0,0.458682,-2.097732,0.424741\H,0,2.760701,-1.96
 4803,1.295398\H,0,4.132409,0.063207,0.894733\H,0,3.189745,1.951334,-0.
 410244\H,0,0.898224,1.806277,-1.318117\P,0,-1.201086,-0.177715,-1.1899

 Normal termination of Gaussian 16 at Tue Apr  8 23:37:00 2025.
