 Gaussian 16, Revision C.01,

 ----------------------------------------------------------------------
 #t hf aug-cc-pvdz symm=none int=(grid=ultrafine) guess=(read,tcheck) s
 table=(opt,rrhf)
 ----------------------------------------------------------------------
 -----
 title
 -----
 Symbolic Z-matrix:
 Charge =  0 Multiplicity = 1

 SCF Done:  E(RHF) =  -389.172722257     A.U. after   15 cycles
 Normal termination of Gaussian 16 at Wed Apr  9 00:40:01 2025.
 Gaussian 16:  ES64L-G16RevC.01  3-Jul-2019

 ----------------------------------------------------------------------
 #t hf aug-cc-pvdz iop(5/13=1,5/36=2,99/5=2) pseudo=read geom=check gue
 ss=(read,tcheck) scf=(maxcycle=1)
 ----------------------------------------------------------------------
 -----
 title
 -----
 Structure from the checkpoint file:  "BDE49_nonexpt_575_mol1.chk"
 Charge =  0 Multiplicity = 1

                         Standard orientation:
 ---------------------------------------------------------------------
 Center     Atomic      Atomic             Coordinates (Angstroms)
 Number     Number       Type             X           Y           Z
 ---------------------------------------------------------------------
      1          5           0        2.213901    0.007739    0.033596
      2          6           0        2.235540    1.491943    0.580324
      3          6           0       -0.347257   -0.342336   -0.141204
      4          6           0        3.579261   -0.760998   -0.199721
      5          1           0        4.120170   -0.874147    0.748053
      6          1           0        4.245300   -0.179752   -0.848913
      7          1           0        3.474648   -1.757470   -0.642106
      8          1           0        2.311317    2.205150   -0.251413
      9          1           0        3.119154    1.664282    1.202766
     10          1           0        1.350683    1.771961    1.157450
     11          6           0       -1.282764   -1.322188    0.218879
     12          6           0       -0.803374    0.952881   -0.413638
     13          6           0       -2.156700    1.259846   -0.298235
     14          6           0       -3.080198    0.283820    0.067944
     15          6           0       -2.634616   -1.012699    0.318151
     16          1           0       -3.340434   -1.786719    0.598464
     17          1           0       -0.939575   -2.329873    0.431678
     18          1           0       -2.490728    2.269021   -0.512767
     19          1           0       -4.132986    0.527348    0.149301
     20          1           0       -0.103537    1.711080   -0.736928
     21          7           0        1.017627   -0.698641   -0.250295
     22          1           0        1.133742   -1.670696   -0.506493
 ---------------------------------------------------------------------

 SCF Done:  E(RHF) =  -391.080306295     A.U. after    2 cycles

 The electronic state is 1-A.
 Alpha  occ. eigenvalues --  -15.72050 -11.52759 -11.45079 -11.42701 -11.40341
 Alpha  occ. eigenvalues --  -11.40216 -11.36024 -11.32929 -11.32460  -7.59415
 Alpha  occ. eigenvalues --   -1.43055  -1.28696  -1.11936  -1.09019  -1.03805
 Alpha  occ. eigenvalues --   -1.00027  -0.86750  -0.85094  -0.73373  -0.70619
 Alpha  occ. eigenvalues --   -0.66905  -0.60530  -0.58622  -0.57735  -0.56951
 Alpha  occ. eigenvalues --   -0.55188  -0.52402  -0.51966  -0.51208  -0.48130
 Alpha  occ. eigenvalues --   -0.45172  -0.43418  -0.41370  -0.39147  -0.32936
 Alpha  occ. eigenvalues --   -0.29034
 Alpha virt. eigenvalues --    0.03189   0.04056   0.04305   0.04878   0.05546
 Alpha virt. eigenvalues --    0.05806   0.06600   0.07340   0.07732   0.07991
 Alpha virt. eigenvalues --    0.08608   0.09117   0.09210   0.09526   0.10370

 Mulliken charges:
               1
     1  B    7.257970
     2  C   -6.648799
     3  C    5.295561
     4  C   -6.252718
     5  H    0.852659
     6  H    0.931658
     7  H    1.181269
     8  H    0.852973
     9  H    1.056076
    10  H    1.127653
    11  C   -3.280306
    12  C   -1.965491
    13  C   -0.569468
    14  C   -2.792228
    15  C   -0.248799
    16  H    1.536355
    17  H    1.873669
    18  H    1.514739
    19  H    1.568243
    20  H    2.086230
    21  N   -6.497224
    22  H    1.119980
 Sum of Mulliken charges =  -0.00000

 Dipole moment (field-independent basis, Debye):
    X=             -0.0994    Y=             -0.4617    Z=             -0.1187  Tot=              0.4869

 Test job not archived.
 1\1\GINC-SE159\SP\RHF\Aug-CC-pVDZ\C8H12B1N1\OHZDE\09-Apr-2025\0\\#t hf
  aug-cc-pvdz iop(5/13=1,5/36=2,99/5=2) pseudo=read geom=check guess=(r
 ead,tcheck) scf=(maxcycle=1)\\title\\0,1\B,0,2.213901,0.007739,0.03359
 6\C,0,2.23554,1.491943,0.580324\C,0,-0.347257,-0.342336,-0.141204\C,0,
 3.579261,-0.760998,-0.199721\H,0,4.12017,-0.874147,0.748053\H,0,4.2453
 ,-0.179752,-0.848913\H,0,3.474648,-1.75747,-0.642106\H,0,2.311317,2.20
 515,-0.251413\H,0,3.119154,1.664282,1.202766\H,0,1.350683,1.771961,1.1
 5745\C,0,-1.282764,-1.322188,0.218879\C,0,-0.803374,0.952881,-0.413638

 Normal termination of Gaussian 16 at Wed Apr  9 00:40:13 2025.
