 Gaussian 16, Revision C.01,

 ----------------------------------------------------------------------
 #t hf aug-cc-pvdz symm=none int=(grid=ultrafine) guess=(read,tcheck) s
 table=(opt,rrhf)
 ----------------------------------------------------------------------
 -----
 title
 -----
 Symbolic Z-matrix:
 Charge =  0 Multiplicity = 1

 SCF Done:  E(RHF) =  -1054.64582625     A.U. after   15 cycles
 Normal termination of Gaussian 16 at Wed Apr  9 00:04:52 2025.
 Gaussian 16:  ES64L-G16RevC.01  3-Jul-2019

 ----------------------------------------------------------------------
 #t hf aug-cc-pvdz iop(5/13=1,5/36=2,99/5=2) pseudo=read geom=check gue
 ss=(read,tcheck) scf=(maxcycle=1)
 ----------------------------------------------------------------------
 -----
 title
 -----
 Structure from the checkpoint file:  "BDE49_nonexpt_2186_mol1.chk"
 Charge =  0 Multiplicity = 1

                         Standard orientation:
 ---------------------------------------------------------------------
 Center     Atomic      Atomic             Coordinates (Angstroms)
 Number     Number       Type             X           Y           Z
 ---------------------------------------------------------------------
      1          6           0        1.996229    1.136633    0.000000
      2          6           0        1.494147   -0.158177    0.000001
      3          6           0        0.126970   -0.418094    0.000000
      4          6           0        1.089345    2.196344   -0.000001
      5          6           0       -0.280853    1.969177   -0.000002
      6          6           0       -0.763640    0.658065   -0.000001
      7          1           0        3.063848    1.309065    0.000001
      8         17           0        2.609441   -1.516150    0.000003
      9          1           0       -0.226643   -1.441227    0.000001
     10          1           0        1.462227    3.214014   -0.000002
     11          1           0       -0.992125    2.785056   -0.000003
     12          8           0       -2.116957    0.487241   -0.000002
     13         14           0       -3.050800   -0.891388   -0.000001
     14          1           0       -4.439618   -0.402697   -0.000002
     15          1           0       -2.777264   -1.705920    1.205063
     16          1           0       -2.777263   -1.705923   -1.205062
 ---------------------------------------------------------------------

 SCF Done:  E(RHF) =  -1056.45374923     A.U. after    2 cycles

 The electronic state is 1-A.
 Alpha  occ. eigenvalues --  -99.89689 -76.25422 -21.07892 -11.53986 -11.48373
 Alpha  occ. eigenvalues --  -11.45617 -11.43093 -11.42223 -11.38586 -10.47029
 Alpha  occ. eigenvalues --   -9.67058  -9.66187  -9.65994  -5.58916  -2.25551
 Alpha  occ. eigenvalues --   -2.20928  -2.20433  -1.75123  -1.39364  -1.27080
 Alpha  occ. eigenvalues --   -1.10301  -1.08007  -0.89545  -0.86628  -0.77138
 Alpha  occ. eigenvalues --   -0.72186  -0.66272  -0.63356  -0.60348  -0.58492
 Alpha  occ. eigenvalues --   -0.58265  -0.54502  -0.52814  -0.49389  -0.49281
 Alpha  occ. eigenvalues --   -0.48800  -0.46224  -0.43213  -0.38748  -0.34545
 Alpha  occ. eigenvalues --   -0.29884
 Alpha virt. eigenvalues --    0.03141   0.04706   0.04955   0.05631   0.06236
 Alpha virt. eigenvalues --    0.06652   0.07117   0.08015   0.08470   0.09211
 Alpha virt. eigenvalues --    0.10493   0.10847   0.11471   0.11930   0.12592

 Mulliken charges:
               1
     1  C   -2.073152
     2  C   -0.858195
     3  C   -2.553387
     4  C    1.085390
     5  C   -4.021422
     6  C    6.112215
     7  H    1.690275
     8  Cl  -0.792006
     9  H    1.915942
    10  H    1.489325
    11  H    1.762731
    12  O   -4.850131
    13  Si   6.393944
    14  H   -1.829249
    15  H   -1.736141
    16  H   -1.736142
 Sum of Mulliken charges =   0.00000

 Dipole moment (field-independent basis, Debye):
    X=             -1.5425    Y=              1.9971    Z=             -0.0000  Tot=              2.5234

 Test job not archived.
 1\1\GINC-SE329\SP\RHF\Aug-CC-pVDZ\C6H7Cl1O1Si1\OHZDE\09-Apr-2025\0\\#t
  hf aug-cc-pvdz iop(5/13=1,5/36=2,99/5=2) pseudo=read geom=check guess
 =(read,tcheck) scf=(maxcycle=1)\\title\\0,1\C,0,1.996229,1.136633,0.\C
 ,0,1.494147,-0.158177,0.000001\C,0,0.12697,-0.418094,0.\C,0,1.089345,2
 .196344,-0.000001\C,0,-0.280853,1.969177,-0.000002\C,0,-0.76364,0.6580
 65,-0.000001\H,0,3.063848,1.309065,0.000001\Cl,0,2.609441,-1.51615,0.0
 00003\H,0,-0.226643,-1.441227,0.000001\H,0,1.462227,3.214014,-0.000002
 \H,0,-0.992125,2.785056,-0.000003\O,0,-2.116957,0.487241,-0.000002\Si,

 Normal termination of Gaussian 16 at Wed Apr  9 00:05:00 2025.
