 Gaussian 16, Revision C.01,

 ----------------------------------------------------------------------
 #t hf aug-cc-pvdz symm=none int=(grid=ultrafine) guess=(read,tcheck) s
 table=opt
 ----------------------------------------------------------------------
 -----
 title
 -----
 Symbolic Z-matrix:
 Charge =  0 Multiplicity = 2

 SCF Done:  E(UHF) =  -1455.37682477     A.U. after   18 cycles

 1\1\GINC-SE249\Stability\UHF\Aug-CC-pVDZ\C2H2Cl3\OHZDE\08-Apr-2025\0\\
 #t hf aug-cc-pvdz symm=none int=(grid=ultrafine) guess=(read,tcheck) s
 table=opt\\title\\0,2\C,0,1.007773,-0.789375,0.\C,0,0.375016,0.530413,
 0.\H,0,1.602043,-0.941714,-0.897043\Cl,0,-0.225506,-2.186152,0.\H,0,1.
 602043,-0.941714,0.897043\Cl,0,-0.225506,1.19417,-1.466005\Cl,0,-0.225
 506,1.19417,1.466005\\Version=ES64L-G16RevC.01\HF=-1455.3768248\S2=0.7
 75368\S2-1=0.\S2A=0.750544\RMSD=7.070e-09\Dipole=0.7839845,0.2122815,0
 .\Quadrupole=2.1868222,-2.9725441,0.785722,-1.4633636,0.,0.\PG=Unknown

 Normal termination of Gaussian 16 at Tue Apr  8 22:48:38 2025.
 Gaussian 16:  ES64L-G16RevC.01  3-Jul-2019

 ----------------------------------------------------------------------
 #t hf aug-cc-pvdz iop(5/13=1,5/36=2,99/5=2) pseudo=read geom=check gue
 ss=(read,tcheck) scf=(maxcycle=1)
 ----------------------------------------------------------------------
 -----
 title
 -----
 Structure from the checkpoint file:  "BDE49_expt_1636_mol2.chk"
 Charge =  0 Multiplicity = 2

                         Standard orientation:
 ---------------------------------------------------------------------
 Center     Atomic      Atomic             Coordinates (Angstroms)
 Number     Number       Type             X           Y           Z
 ---------------------------------------------------------------------
      1          6           0       -1.007773   -0.789375   -0.000000
      2          6           0       -0.375016    0.530413    0.000000
      3          1           0       -1.602043   -0.941714    0.897043
      4         17           0        0.225506   -2.186152   -0.000000
      5          1           0       -1.602043   -0.941714   -0.897043
      6         17           0        0.225506    1.194170    1.466005
      7         17           0        0.225506    1.194170   -1.466005
 ---------------------------------------------------------------------

 SCF Done:  E(UHF) =  -1456.46579628     A.U. after    2 cycles

 The electronic state is 2-A'.
 Alpha  occ. eigenvalues --  -99.92694 -99.92688 -99.89215 -11.51257 -11.46419
 Alpha  occ. eigenvalues --  -10.50254 -10.50016 -10.46353  -9.69915  -9.69780
 Alpha  occ. eigenvalues --   -9.69201  -9.69178  -9.69141  -9.69069  -9.66480
 Alpha  occ. eigenvalues --   -9.65488  -9.65469  -1.45693  -1.31973  -1.31970
 Alpha  occ. eigenvalues --   -1.11417  -0.90978  -0.73187  -0.70139  -0.68097
 Alpha  occ. eigenvalues --   -0.61347  -0.58769  -0.55517  -0.54569  -0.52215
 Alpha  occ. eigenvalues --   -0.49463  -0.49308  -0.38086
 Alpha virt. eigenvalues --    0.02684   0.03272   0.06204   0.07007   0.07464
 Alpha virt. eigenvalues --    0.07864   0.10631   0.12569   0.13128   0.13385
 Alpha virt. eigenvalues --    0.13689   0.14502   0.16053   0.17650   0.18056

  Beta  occ. eigenvalues --  -99.92668 -99.92661 -99.89026 -11.49511 -11.45878
  Beta  occ. eigenvalues --  -10.50225 -10.49987 -10.46151  -9.70201  -9.70062
  Beta  occ. eigenvalues --   -9.69124  -9.69057  -9.68810  -9.68780  -9.65680
  Beta  occ. eigenvalues --   -9.65371  -9.65362  -1.43440  -1.31710  -1.30829
  Beta  occ. eigenvalues --   -1.09154  -0.86834  -0.72370  -0.68056  -0.62697
  Beta  occ. eigenvalues --   -0.61043  -0.56476  -0.54428  -0.53321  -0.52187
  Beta  occ. eigenvalues --   -0.49114  -0.48682
  Beta virt. eigenvalues --    0.00385   0.03140   0.04787   0.06204   0.07467
  Beta virt. eigenvalues --    0.07864   0.08410   0.10893   0.12629   0.13400
  Beta virt. eigenvalues --    0.13563   0.14304   0.14840   0.16428   0.17918

 Mulliken charges and spin densities:
               1          2
     1  C   -2.893707  -0.383170
     2  C   -0.485138   1.293383
     3  H    1.586398   0.005122
     4  Cl   0.178900   0.131903
     5  H    1.586398   0.005122
     6  Cl   0.013574  -0.026180
     7  Cl   0.013574  -0.026180
 Sum of Mulliken charges =  -0.00000   1.00000

 Dipole moment (field-independent basis, Debye):
    X=             -1.9788    Y=              0.6409    Z=              0.0000  Tot=              2.0800
                          Isotropic Fermi Contact Couplings
        Atom                 a.u.       MegaHertz       Gauss      10(-4) cm-1
     1  C(13)             -0.01518     -17.06839      -6.09042      -5.69340
     2  C(13)              0.20775     233.54850      83.33591      77.90339
     3  H(1)               0.00393      17.58342       6.27420       5.86520
     4  Cl(35)             0.06184      27.11434       9.67507       9.04437
     5  H(1)               0.00393      17.58342       6.27420       5.86520
     6  Cl(35)             0.04180      18.32591       6.53914       6.11287
     7  Cl(35)             0.04180      18.32591       6.53914       6.11287
 --------------------------------------------------------

 Normal termination of Gaussian 16 at Tue Apr  8 22:48:41 2025.
