 Gaussian 16, Revision C.01,

 ----------------------------------------------------------------------
 #t hf aug-cc-pvdz symm=none int=(grid=ultrafine) guess=(read,tcheck) s
 table=(opt,rrhf)
 ----------------------------------------------------------------------
 -----
 title
 -----
 Symbolic Z-matrix:
 Charge =  0 Multiplicity = 1

 SCF Done:  E(RHF) =  -735.904464456     A.U. after   12 cycles
 Normal termination of Gaussian 16 at Tue Apr  8 22:40:27 2025.
 Gaussian 16:  ES64L-G16RevC.01  3-Jul-2019

 ----------------------------------------------------------------------
 #t hf aug-cc-pvdz iop(5/13=1,5/36=2,99/5=2) pseudo=read geom=check gue
 ss=(read,tcheck) scf=(maxcycle=1)
 ----------------------------------------------------------------------
 -----
 title
 -----
 Structure from the checkpoint file:  "BDE49_expt_129_mol1.chk"
 Charge =  0 Multiplicity = 1

                         Standard orientation:
 ---------------------------------------------------------------------
 Center     Atomic      Atomic             Coordinates (Angstroms)
 Number     Number       Type             X           Y           Z
 ---------------------------------------------------------------------
      1          6           0       -0.357411    0.005640    0.000000
      2          6           0       -0.818638    1.438155    0.000000
      3          9           0       -0.818638   -0.653639    1.087666
      4         17           0        1.447318   -0.131400    0.000000
      5          9           0       -0.818638   -0.653639   -1.087666
      6          1           0       -0.451028    1.946672    0.890162
      7          1           0       -1.910576    1.443185    0.000000
      8          1           0       -0.451028    1.946672   -0.890162
 ---------------------------------------------------------------------

 SCF Done:  E(RHF) =  -737.205954450     A.U. after    2 cycles

 The electronic state is 1-A'.
 Alpha  occ. eigenvalues --  -99.90450 -29.30778 -29.30734 -11.58816 -11.41066
 Alpha  occ. eigenvalues --  -10.47892  -9.67722  -9.66898  -9.66858  -1.43566
 Alpha  occ. eigenvalues --   -1.23686  -1.04249  -0.86288  -0.75467  -0.68833
 Alpha  occ. eigenvalues --   -0.58754  -0.58361  -0.53214  -0.51750  -0.46103
 Alpha  occ. eigenvalues --   -0.40061  -0.35390  -0.30524  -0.30445  -0.23391
 Alpha virt. eigenvalues --    0.03906   0.05759   0.06330   0.07916   0.09714
 Alpha virt. eigenvalues --    0.10697   0.11869   0.13168   0.14028   0.15673
 Alpha virt. eigenvalues --    0.16041   0.18110   0.18125   0.21242   0.22522

 Mulliken charges:
               1
     1  C   -0.922761
     2  C   -3.442640
     3  F    0.620463
     4  Cl  -0.493461
     5  F    0.620463
     6  H    1.230086
     7  H    1.157763
     8  H    1.230086
 Sum of Mulliken charges =  -0.00000

 Dipole moment (field-independent basis, Debye):
    X=             -4.0075    Y=             -1.0598    Z=             -0.0000  Tot=              4.1452

 Test job not archived.
 1\1\GINC-SE402\SP\RHF\Aug-CC-pVDZ\C2H3Cl1F2\OHZDE\08-Apr-2025\0\\#t hf
  aug-cc-pvdz iop(5/13=1,5/36=2,99/5=2) pseudo=read geom=check guess=(r
 ead,tcheck) scf=(maxcycle=1)\\title\\0,1\C,0,-0.357411,0.00564,0.\C,0,
 -0.818638,1.438155,0.\F,0,-0.818638,-0.653639,1.087666\Cl,0,1.447318,-
 0.1314,0.\F,0,-0.818638,-0.653639,-1.087666\H,0,-0.451028,1.946672,0.8
 90162\H,0,-1.910576,1.443185,0.\H,0,-0.451028,1.946672,-0.890162\\Vers
 ion=ES64L-G16RevC.01\State=1-A'\HF=-737.2059544\RMSD=1.719e-01\Dipole=
 -1.5766535,-0.4169464,0.\Quadrupole=-0.8204303,0.0852784,0.7351518,0.6

 Normal termination of Gaussian 16 at Tue Apr  8 22:40:29 2025.
