 Gaussian 16, Revision C.01,

 ----------------------------------------------------------------------
 #t hf aug-cc-pvdz symm=none int=(grid=ultrafine) guess=(read,tcheck) s
 table=(opt,rrhf)
 ----------------------------------------------------------------------
 -----
 title
 -----
 Symbolic Z-matrix:
 Charge =  0 Multiplicity = 1

 SCF Done:  E(RHF) =  -626.144672929     A.U. after   16 cycles
 Normal termination of Gaussian 16 at Wed Apr  9 00:22:36 2025.
 Gaussian 16:  ES64L-G16RevC.01  3-Jul-2019

 ----------------------------------------------------------------------
 #t hf aug-cc-pvdz iop(5/13=1,5/36=2,99/5=2) pseudo=read geom=check gue
 ss=(read,tcheck) scf=(maxcycle=1)
 ----------------------------------------------------------------------
 -----
 title
 -----
 Structure from the checkpoint file:  "BDE49_nonexpt_2661_mol1.chk"
 Charge =  0 Multiplicity = 1

                         Standard orientation:
 ---------------------------------------------------------------------
 Center     Atomic      Atomic             Coordinates (Angstroms)
 Number     Number       Type             X           Y           Z
 ---------------------------------------------------------------------
      1          9           0        1.847629    0.569352    0.000001
      2         16           0        0.453213   -0.461159   -0.000000
      3          7           0       -1.100570   -0.242650   -0.000000
      4          8           0       -2.022010    0.494117   -0.000000
 ---------------------------------------------------------------------

 SCF Done:  E(RHF) =  -627.261787349     A.U. after    2 cycles

 The electronic state is 1-A.
 Alpha  occ. eigenvalues --  -75.84177 -29.26630 -21.18851 -15.97559 -13.37688
 Alpha  occ. eigenvalues --  -13.19108 -13.14165  -8.18019  -1.93431  -1.36313
 Alpha  occ. eigenvalues --   -0.99564  -0.71254  -0.67293  -0.63887  -0.52304
 Alpha  occ. eigenvalues --   -0.40758  -0.39356  -0.30283  -0.26995  -0.23950
 Alpha virt. eigenvalues --    0.06416   0.07792   0.08324   0.11843   0.14085
 Alpha virt. eigenvalues --    0.14457   0.18996   0.19553   0.19751   0.23459
 Alpha virt. eigenvalues --    0.23687   0.25602   0.26336   0.28458   0.31834

 Mulliken charges:
               1
     1  F    0.092957
     2  S    1.614538
     3  N    0.575743
     4  O   -2.283238
 Sum of Mulliken charges =  -0.00000

 Dipole moment (field-independent basis, Debye):
    X=              5.0036    Y=              1.2314    Z=              0.0000  Tot=              5.1529

 Test job not archived.
 1\1\GINC-SE338\SP\RHF\Aug-CC-pVDZ\F1N1O1S1\OHZDE\09-Apr-2025\0\\#t hf
 aug-cc-pvdz iop(5/13=1,5/36=2,99/5=2) pseudo=read geom=check guess=(re
 ad,tcheck) scf=(maxcycle=1)\\title\\0,1\F,0,1.847629,0.569352,0.000001
 \S,0,0.453213,-0.461159,0.\N,0,-1.10057,-0.24265,0.\O,0,-2.02201,0.494
 117,0.\\Version=ES64L-G16RevC.01\State=1-A\HF=-627.2617873\RMSD=8.514e
 -02\Dipole=1.9685682,0.4844895,0.0000005\Quadrupole=1.1517156,-0.64682
 36,-0.5048919,0.4156589,0.0000006,0.0000005\PG=C01 [X(F1N1O1S1)]\\@

 Normal termination of Gaussian 16 at Wed Apr  9 00:22:37 2025.
