 Gaussian 16, Revision C.01,

 ----------------------------------------------------------------------
 #t hf aug-cc-pvdz symm=none int=(grid=ultrafine) guess=(read,tcheck) s
 table=(opt,rrhf)
 ----------------------------------------------------------------------
 -----
 title
 -----
 Symbolic Z-matrix:
 Charge =  0 Multiplicity = 1

 SCF Done:  E(RHF) =  -801.746907238     A.U. after   15 cycles
 Normal termination of Gaussian 16 at Tue Apr  8 23:20:21 2025.
 Gaussian 16:  ES64L-G16RevC.01  3-Jul-2019

 ----------------------------------------------------------------------
 #t hf aug-cc-pvdz iop(5/13=1,5/36=2,99/5=2) pseudo=read geom=check gue
 ss=(read,tcheck) scf=(maxcycle=1)
 ----------------------------------------------------------------------
 -----
 title
 -----
 Structure from the checkpoint file:  "BDE49_nonexpt_1075_mol1.chk"
 Charge =  0 Multiplicity = 1

                         Standard orientation:
 ---------------------------------------------------------------------
 Center     Atomic      Atomic             Coordinates (Angstroms)
 Number     Number       Type             X           Y           Z
 ---------------------------------------------------------------------
      1         17           0        2.016837    0.152023   -0.084556
      2          8           0        0.519102   -0.278020   -0.855877
      3          6           0       -0.573198   -0.462194    0.082871
      4          8           0       -0.831494    0.717214    0.781425
      5          8           0       -0.298147   -1.422205    1.025724
      6          6           0       -1.089684    1.894241    0.013314
      7          1           0       -0.303372    2.065594   -0.724731
      8          1           0       -1.107145    2.716570    0.726559
      9          1           0       -2.061095    1.836270   -0.487919
     10          6           0       -1.698736   -0.952533   -0.822584
     11          1           0       -1.851827   -0.282287   -1.667260
     12          1           0       -2.608650   -1.009626   -0.224230
     13          1           0       -1.448068   -1.943953   -1.196127
     14          1           0        0.147941   -0.979967    1.759385
 ---------------------------------------------------------------------

 SCF Done:  E(RHF) =  -803.496189583     A.U. after    2 cycles

 The electronic state is 1-A.
 Alpha  occ. eigenvalues --  -99.93422 -21.10958 -21.09143 -21.06805 -11.53366
 Alpha  occ. eigenvalues --  -11.41937 -11.38577 -10.50165  -9.70102  -9.69316
 Alpha  occ. eigenvalues --   -9.69177  -1.88509  -1.72687  -1.69170  -1.25628
 Alpha  occ. eigenvalues --   -1.10048  -1.01448  -0.83254  -0.70237  -0.67217
 Alpha  occ. eigenvalues --   -0.66254  -0.62412  -0.59473  -0.57128  -0.56163
 Alpha  occ. eigenvalues --   -0.54488  -0.51677  -0.49175  -0.44871  -0.40472
 Alpha  occ. eigenvalues --   -0.36105  -0.32923  -0.32107
 Alpha virt. eigenvalues --    0.03630   0.04451   0.05237   0.05694   0.05831
 Alpha virt. eigenvalues --    0.06538   0.06930   0.07892   0.10023   0.11149
 Alpha virt. eigenvalues --    0.12765   0.13758   0.14947   0.15556   0.16396

 Mulliken charges:
               1
     1  Cl   0.220427
     2  O   -2.562411
     3  C    8.203647
     4  O   -3.730930
     5  O   -3.349944
     6  C   -3.232504
     7  H    1.246803
     8  H    1.307284
     9  H    1.511438
    10  C   -4.160303
    11  H    1.349466
    12  H    1.246466
    13  H    1.260238
    14  H    0.690323
 Sum of Mulliken charges =  -0.00000

 Dipole moment (field-independent basis, Debye):
    X=             -2.9576    Y=              0.1790    Z=             -0.4357  Tot=              2.9949

 Test job not archived.
 1\1\GINC-SE120\SP\RHF\Aug-CC-pVDZ\C3H7Cl1O3\OHZDE\08-Apr-2025\0\\#t hf
  aug-cc-pvdz iop(5/13=1,5/36=2,99/5=2) pseudo=read geom=check guess=(r
 ead,tcheck) scf=(maxcycle=1)\\title\\0,1\Cl,0,2.016837,0.152023,-0.084
 556\O,0,0.519102,-0.27802,-0.855877\C,0,-0.573198,-0.462194,0.082871\O
 ,0,-0.831494,0.717214,0.781425\O,0,-0.298147,-1.422205,1.025724\C,0,-1
 .089684,1.894241,0.013314\H,0,-0.303372,2.065594,-0.724731\H,0,-1.1071
 45,2.71657,0.726559\H,0,-2.061095,1.83627,-0.487919\C,0,-1.698736,-0.9
 52533,-0.822584\H,0,-1.851827,-0.282287,-1.66726\H,0,-2.60865,-1.00962

 Normal termination of Gaussian 16 at Tue Apr  8 23:20:27 2025.
