 Gaussian 16, Revision C.01,

 ----------------------------------------------------------------------
 #t hf aug-cc-pvdz symm=none int=(grid=ultrafine) guess=(read,tcheck) s
 table=(opt,rrhf)
 ----------------------------------------------------------------------
 -----
 title
 -----
 Symbolic Z-matrix:
 Charge =  0 Multiplicity = 1

 SCF Done:  E(RHF) =  -468.266206962     A.U. after   12 cycles
 Normal termination of Gaussian 16 at Tue Apr  8 23:55:21 2025.
 Gaussian 16:  ES64L-G16RevC.01  3-Jul-2019

 ----------------------------------------------------------------------
 #t hf aug-cc-pvdz iop(5/13=1,5/36=2,99/5=2) pseudo=read geom=check gue
 ss=(read,tcheck) scf=(maxcycle=1)
 ----------------------------------------------------------------------
 -----
 title
 -----
 Structure from the checkpoint file:  "BDE49_nonexpt_1972_mol1.chk"
 Charge =  0 Multiplicity = 1

                         Standard orientation:
 ---------------------------------------------------------------------
 Center     Atomic      Atomic             Coordinates (Angstroms)
 Number     Number       Type             X           Y           Z
 ---------------------------------------------------------------------
      1         14           0        0.787562   -0.467835    0.185158
      2          6           0       -0.982242   -0.566241   -0.403377
      3          9           0        1.407910    0.972849   -0.213310
      4          6           0       -1.916595    0.503082    0.193320
      5          1           0       -1.579560    1.510458   -0.063497
      6          1           0       -1.953609    0.436555    1.284451
      7          1           0       -2.938484    0.390653   -0.178643
      8          1           0       -1.346987   -1.572478   -0.157229
      9          1           0       -0.985301   -0.507935   -1.498178
     10          1           0        1.627067   -1.502822   -0.457409
     11          1           0        0.872842   -0.581425    1.658421
 ---------------------------------------------------------------------

 SCF Done:  E(RHF) =  -469.187190207     A.U. after    2 cycles

 The electronic state is 1-A.
 Alpha  occ. eigenvalues --  -76.24106 -29.25443 -11.39897 -11.35268  -5.58553
 Alpha  occ. eigenvalues --   -2.23718  -2.21089  -2.19754  -1.15917  -0.91770
 Alpha  occ. eigenvalues --   -0.82810  -0.62624  -0.59020  -0.57593  -0.52032
 Alpha  occ. eigenvalues --   -0.49610  -0.48351  -0.43080  -0.32459  -0.31665
 Alpha  occ. eigenvalues --   -0.30611
 Alpha virt. eigenvalues --    0.03765   0.05375   0.05555   0.06019   0.06505
 Alpha virt. eigenvalues --    0.07371   0.07706   0.08439   0.10080   0.10426
 Alpha virt. eigenvalues --    0.13249   0.14617   0.14965   0.15929   0.16598

 Mulliken charges:
               1
     1  Si   5.665546
     2  C   -3.961945
     3  F   -1.006709
     4  C   -3.457401
     5  H    1.282476
     6  H    1.263808
     7  H    1.160507
     8  H    1.421146
     9  H    1.367917
    10  H   -1.841088
    11  H   -1.894258
 Sum of Mulliken charges =  -0.00000

 Dipole moment (field-independent basis, Debye):
    X=             -0.1342    Y=              1.6494    Z=             -0.7540  Tot=              1.8185

 Test job not archived.
 1\1\GINC-SE457\SP\RHF\Aug-CC-pVDZ\C2H7F1Si1\OHZDE\08-Apr-2025\0\\#t hf
  aug-cc-pvdz iop(5/13=1,5/36=2,99/5=2) pseudo=read geom=check guess=(r
 ead,tcheck) scf=(maxcycle=1)\\title\\0,1\Si,0,0.787562,-0.467835,0.185
 158\C,0,-0.982242,-0.566241,-0.403377\F,0,1.40791,0.972849,-0.21331\C,
 0,-1.916595,0.503082,0.19332\H,0,-1.57956,1.510458,-0.063497\H,0,-1.95
 3609,0.436555,1.284451\H,0,-2.938484,0.390653,-0.178643\H,0,-1.346987,
 -1.572478,-0.157229\H,0,-0.985301,-0.507935,-1.498178\H,0,1.627067,-1.
 502822,-0.457409\H,0,0.872842,-0.581425,1.658421\\Version=ES64L-G16Rev

 Normal termination of Gaussian 16 at Tue Apr  8 23:55:24 2025.
