 Gaussian 16, Revision C.01,

 ----------------------------------------------------------------------
 #t hf aug-cc-pvdz symm=none int=(grid=ultrafine) guess=(read,tcheck) s
 table=opt
 ----------------------------------------------------------------------
 -----
 title
 -----
 Symbolic Z-matrix:
 Charge =  0 Multiplicity = 2

 SCF Done:  E(UHF) =  -621.366343402     A.U. after   19 cycles
 Normal termination of Gaussian 16 at Tue Apr  8 23:42:26 2025.
 Gaussian 16:  ES64L-G16RevC.01  3-Jul-2019

 ----------------------------------------------------------------------
 #t hf aug-cc-pvdz iop(5/13=1,5/36=2,99/5=2) pseudo=read geom=check gue
 ss=(read,tcheck) scf=(maxcycle=1)
 ----------------------------------------------------------------------
 -----
 title
 -----
 Structure from the checkpoint file:  "BDE49_nonexpt_1646_mol2.chk"
 Charge =  0 Multiplicity = 2

                         Standard orientation:
 ---------------------------------------------------------------------
 Center     Atomic      Atomic             Coordinates (Angstroms)
 Number     Number       Type             X           Y           Z
 ---------------------------------------------------------------------
      1          7           0        0.954173   -0.000000    0.434948
      2          9           0        1.687162   -1.111245   -0.044244
      3          9           0        1.687162    1.111245   -0.044244
      4         14           0       -0.664017    0.000000   -0.440263
      5          6           0       -1.484824    1.573374    0.175162
      6          1           0       -1.517706    1.580914    1.269953
      7          1           0       -2.508511    1.634687   -0.203536
      8          1           0       -0.940787    2.458391   -0.159671
      9          6           0       -1.484824   -1.573374    0.175162
     10          1           0       -1.517706   -1.580914    1.269953
     11          1           0       -0.940788   -2.458391   -0.159671
     12          1           0       -2.508511   -1.634687   -0.203536
 ---------------------------------------------------------------------

 SCF Done:  E(UHF) =  -622.826869335     A.U. after    2 cycles

 The electronic state is 2-A.
 Alpha  occ. eigenvalues --  -76.25172 -29.28349 -29.28325 -15.84893 -11.37161
 Alpha  occ. eigenvalues --  -11.37011  -5.59139  -2.23346  -2.22653  -2.20605
 Alpha  occ. eigenvalues --   -1.44823  -1.08228  -1.03587  -0.80148  -0.75909
 Alpha  occ. eigenvalues --   -0.63727  -0.59625  -0.58211  -0.57258  -0.56850
 Alpha  occ. eigenvalues --   -0.54263  -0.43259  -0.42864  -0.38588  -0.29706
 Alpha  occ. eigenvalues --   -0.29234  -0.28358  -0.20752  -0.19005
 Alpha virt. eigenvalues --    0.02915   0.04937   0.05532   0.06123   0.07151
 Alpha virt. eigenvalues --    0.07160   0.07250   0.09079   0.09100   0.11821
 Alpha virt. eigenvalues --    0.13740   0.15097   0.15394   0.15909   0.17362

  Beta  occ. eigenvalues --  -76.24621 -29.28339 -29.28315 -15.84729 -11.37011
  Beta  occ. eigenvalues --  -11.36861  -5.58255  -2.22726  -2.22100  -2.17081
  Beta  occ. eigenvalues --   -1.44427  -1.07224  -1.03109  -0.80063  -0.73641
  Beta  occ. eigenvalues --   -0.62124  -0.59116  -0.57572  -0.56871  -0.56556
  Beta  occ. eigenvalues --   -0.52483  -0.42787  -0.42132  -0.38442  -0.29100
  Beta  occ. eigenvalues --   -0.28812  -0.20730  -0.18712
  Beta virt. eigenvalues --    0.01406   0.05067   0.05238   0.05636   0.06634
  Beta virt. eigenvalues --    0.07167   0.07264   0.07543   0.09334   0.09986
  Beta virt. eigenvalues --    0.12234   0.14171   0.15862   0.16185   0.17436

 Mulliken charges and spin densities:
               1          2
     1  N   -0.395788  -0.013560
     2  F   -0.186499  -0.007730
     3  F   -0.186499  -0.007730
     4  Si   3.446912   0.980246
     5  C   -5.180326   0.055759
     6  H    1.227678   0.002051
     7  H    1.281276  -0.013468
     8  H    1.332309  -0.019954
     9  C   -5.180326   0.055759
    10  H    1.227678   0.002051
    11  H    1.332309  -0.019954
    12  H    1.281276  -0.013468
 Sum of Mulliken charges =   0.00000   1.00000

 Dipole moment (field-independent basis, Debye):
    X=             -0.3311    Y=             -0.0000    Z=             -1.1363  Tot=              1.1836
                          Isotropic Fermi Contact Couplings
        Atom                 a.u.       MegaHertz       Gauss      10(-4) cm-1
     1  N(14)              0.01234       3.98700       1.42266       1.32992
     2  F(19)              0.00313      13.18940       4.70631       4.39951
     3  F(19)              0.00313      13.18941       4.70631       4.39951
     4  Si(29)             0.53204    -472.83487    -168.71924    -157.72073
     5  C(13)              0.03507      39.42067      14.06628      13.14932
     6  H(1)               0.00621      27.77773       9.91179       9.26565
     7  H(1)              -0.00078      -3.49689      -1.24778      -1.16644
     8  H(1)              -0.00019      -0.84663      -0.30210      -0.28241

 1\1\GINC-SE342\SP\UHF\Aug-CC-pVDZ\C2H6F2N1Si1(2)\OHZDE\08-Apr-2025\0\\
 #t hf aug-cc-pvdz iop(5/13=1,5/36=2,99/5=2) pseudo=read geom=check gue
 ss=(read,tcheck) scf=(maxcycle=1)\\title\\0,2\N,0,-0.954173,0.,0.43494
 8\F,0,-1.687162,1.111245,-0.044244\F,0,-1.687162,-1.111245,-0.044244\S
 i,0,0.664017,0.,-0.440263\C,0,1.484824,-1.573374,0.175162\H,0,1.517706
 ,-1.580914,1.269953\H,0,2.508511,-1.634687,-0.203536\H,0,0.940787,-2.4
 58391,-0.159671\C,0,1.484824,1.573374,0.175162\H,0,1.517706,1.580914,1
 .269953\H,0,0.940788,2.458391,-0.159671\H,0,2.508511,1.634687,-0.20353

 Normal termination of Gaussian 16 at Tue Apr  8 23:42:31 2025.
