 Gaussian 16, Revision C.01,

 ----------------------------------------------------------------------
 #t hf aug-cc-pvdz symm=none int=(grid=ultrafine) guess=(read,tcheck) s
 table=opt
 ----------------------------------------------------------------------
 -----
 title
 -----
 Symbolic Z-matrix:
 Charge =  0 Multiplicity = 2

 SCF Done:  E(UHF) =  -1441.62893276     A.U. after   18 cycles
 Normal termination of Gaussian 16 at Tue Apr  8 23:43:14 2025.
 Gaussian 16:  ES64L-G16RevC.01  3-Jul-2019

 ----------------------------------------------------------------------
 #t hf aug-cc-pvdz iop(5/13=1,5/36=2,99/5=2) pseudo=read geom=check gue
 ss=(read,tcheck) scf=(maxcycle=1)
 ----------------------------------------------------------------------
 -----
 title
 -----
 Structure from the checkpoint file:  "BDE49_nonexpt_168_mol2.chk"
 Charge =  0 Multiplicity = 2

                         Standard orientation:
 ---------------------------------------------------------------------
 Center     Atomic      Atomic             Coordinates (Angstroms)
 Number     Number       Type             X           Y           Z
 ---------------------------------------------------------------------
      1         17           0       -2.203103   -0.113767   -0.185438
      2          5           0       -0.869584   -0.419898    0.851727
      3          6           0        0.615292    0.033312    0.690492
      4         17           0        1.290200   -1.383754   -0.239217
      5         17           0        0.881434    1.604117   -0.164153
      6          1           0        1.191133    0.087479    1.608155
 ---------------------------------------------------------------------

 SCF Done:  E(UHF) =  -1442.62775398     A.U. after    2 cycles

 The electronic state is 2-A.
 Alpha  occ. eigenvalues --  -99.92056 -99.91787 -99.91028 -11.48538 -10.49357
 Alpha  occ. eigenvalues --  -10.48997 -10.48248  -9.69313  -9.68924  -9.68815
 Alpha  occ. eigenvalues --   -9.68615  -9.68226  -9.68134  -9.68041  -9.67336
 Alpha  occ. eigenvalues --   -9.67292  -7.71106  -1.42302  -1.35901  -1.29739
 Alpha  occ. eigenvalues --   -1.04071  -0.81430  -0.69555  -0.66654  -0.64745
 Alpha  occ. eigenvalues --   -0.57478  -0.56681  -0.53219  -0.52397  -0.50919
 Alpha  occ. eigenvalues --   -0.48532  -0.35534
 Alpha virt. eigenvalues --    0.01527   0.03148   0.03734   0.04836   0.04957
 Alpha virt. eigenvalues --    0.05677   0.09540   0.09979   0.12324   0.13187
 Alpha virt. eigenvalues --    0.13879   0.14267   0.15251   0.15624   0.16445

  Beta  occ. eigenvalues --  -99.91983 -99.91783 -99.90957 -11.48432 -10.49272
  Beta  occ. eigenvalues --  -10.48993 -10.48174  -9.69246  -9.68839  -9.68651
  Beta  occ. eigenvalues --   -9.68560  -9.68159  -9.68079  -9.67850  -9.67295
  Beta  occ. eigenvalues --   -9.67254  -7.69099  -1.41656  -1.35245  -1.29402
  Beta  occ. eigenvalues --   -1.02944  -0.79092  -0.68066  -0.66122  -0.63453
  Beta  occ. eigenvalues --   -0.57276  -0.55454  -0.53007  -0.51738  -0.50721
  Beta  occ. eigenvalues --   -0.47591
  Beta virt. eigenvalues --   -0.00789   0.03236   0.03731   0.04142   0.04906
  Beta virt. eigenvalues --    0.06266   0.07717   0.10441   0.11752   0.12893
  Beta virt. eigenvalues --    0.13391   0.14078   0.14441   0.15643   0.16009

 Mulliken charges and spin densities:
               1          2
     1  Cl  -0.819065   0.049618
     2  B    1.997639   0.945060
     3  C   -3.609204  -0.126961
     4  Cl   0.262483   0.020119
     5  Cl   0.092622   0.081156
     6  H    2.075526   0.031008
 Sum of Mulliken charges =  -0.00000   1.00000

 Dipole moment (field-independent basis, Debye):
    X=             -0.2442    Y=             -0.0157    Z=              1.3295  Tot=              1.3518
                          Isotropic Fermi Contact Couplings
        Atom                 a.u.       MegaHertz       Gauss      10(-4) cm-1
     1  Cl(35)             0.11351      49.77008      17.75920      16.60151
     2  B(11)              0.25202     361.48789     128.98787     120.57938
     3  C(13)              0.07720      86.79295      30.96988      28.95101
     4  Cl(35)            -0.00273      -1.19546      -0.42657      -0.39876
     5  Cl(35)             0.01683       7.38094       2.63370       2.46201
     6  H(1)               0.00219       9.77734       3.48880       3.26137
 --------------------------------------------------------
       Center         ----  Spin Dipole Couplings  ----

 Normal termination of Gaussian 16 at Tue Apr  8 23:43:16 2025.
