 Gaussian 16, Revision C.01,

 ----------------------------------------------------------------------
 #t hf aug-cc-pvdz symm=none int=(grid=ultrafine) guess=(read,tcheck) s
 table=opt
 ----------------------------------------------------------------------
 -----
 title
 -----
 Symbolic Z-matrix:
 Charge =  0 Multiplicity = 2

 SCF Done:  E(UHF) =  -995.025231636     A.U. after   24 cycles
 Normal termination of Gaussian 16 at Tue Apr  8 23:59:26 2025.
 Gaussian 16:  ES64L-G16RevC.01  3-Jul-2019

 ----------------------------------------------------------------------
 #t hf aug-cc-pvdz iop(5/13=1,5/36=2,99/5=2) pseudo=read geom=check gue
 ss=(read,tcheck) scf=(maxcycle=1)
 ----------------------------------------------------------------------
 -----
 title
 -----
 Structure from the checkpoint file:  "BDE49_nonexpt_206_mol2.chk"
 Charge =  0 Multiplicity = 2

                         Standard orientation:
 ---------------------------------------------------------------------
 Center     Atomic      Atomic             Coordinates (Angstroms)
 Number     Number       Type             X           Y           Z
 ---------------------------------------------------------------------
      1         17           0       -2.232290   -0.268150   -0.129111
      2          5           0       -0.775347    0.138937    0.669460
      3          6           0        0.610448    0.566204    0.117594
      4          8           0        0.869787    1.722972   -0.125458
      5         16           0        1.880805   -0.722862   -0.074140
      6          1           0        1.111806   -1.751347    0.331925
 ---------------------------------------------------------------------

 SCF Done:  E(UHF) =  -996.033485241     A.U. after    2 cycles

 The electronic state is 2-A.
 Alpha  occ. eigenvalues --  -99.93953 -75.72653 -21.09642 -13.15536 -13.12665
 Alpha  occ. eigenvalues --  -13.04360 -11.48967 -10.51197  -9.71128  -9.70698
 Alpha  occ. eigenvalues --   -9.70475  -8.06625  -7.72243  -1.74823  -1.39120
 Alpha  occ. eigenvalues --   -1.18023  -0.93831  -0.73881  -0.64710  -0.60332
 Alpha  occ. eigenvalues --   -0.58701  -0.53944  -0.51210  -0.47636  -0.36350
 Alpha  occ. eigenvalues --   -0.28300  -0.26955
 Alpha virt. eigenvalues --    0.02240   0.03386   0.03918   0.04458   0.05266
 Alpha virt. eigenvalues --    0.07562   0.10274   0.11132   0.11802   0.12733
 Alpha virt. eigenvalues --    0.15063   0.15283   0.15890   0.16110   0.16764

  Beta  occ. eigenvalues --  -99.93891 -75.72655 -21.08778 -13.15499 -13.12648
  Beta  occ. eigenvalues --  -13.04416 -11.49214 -10.51125  -9.71114  -9.70525
  Beta  occ. eigenvalues --   -9.70350  -8.06628  -7.70307  -1.73214  -1.38240
  Beta  occ. eigenvalues --   -1.17829  -0.91100  -0.72781  -0.64165  -0.58710
  Beta  occ. eigenvalues --   -0.57535  -0.52879  -0.50068  -0.47333  -0.28061
  Beta  occ. eigenvalues --   -0.26804
  Beta virt. eigenvalues --    0.01203   0.03065   0.04002   0.04096   0.05413
  Beta virt. eigenvalues --    0.07216   0.08850   0.11291   0.11710   0.12083
  Beta virt. eigenvalues --    0.13323   0.15183   0.15422   0.16156   0.16578

 Mulliken charges and spin densities:
               1          2
     1  Cl  -1.040389   0.067398
     2  B    1.823308   0.914024
     3  C    0.937713  -0.260946
     4  O   -2.403872   0.262641
     5  S   -0.372857   0.024221
     6  H    1.056097  -0.007339
 Sum of Mulliken charges =  -0.00000   1.00000

 Dipole moment (field-independent basis, Debye):
    X=              1.3453    Y=             -0.6353    Z=             -0.5417  Tot=              1.5833
                          Isotropic Fermi Contact Couplings
        Atom                 a.u.       MegaHertz       Gauss      10(-4) cm-1
     1  Cl(35)             0.09673      42.41321      15.13409      14.14752
     2  B(11)              0.21295     305.44138     108.98908     101.88428
     3  C(13)              0.00609       6.84739       2.44332       2.28404
     4  O(17)              0.04777     -28.95522     -10.33194      -9.65842
     5  S(33)             -0.02060      -7.07610      -2.52493      -2.36033
     6  H(1)              -0.00043      -1.90118      -0.67839      -0.63416
 --------------------------------------------------------
       Center         ----  Spin Dipole Couplings  ----

 Normal termination of Gaussian 16 at Tue Apr  8 23:59:29 2025.
