 Gaussian 16, Revision C.01,

 ----------------------------------------------------------------------
 #t hf aug-cc-pvdz symm=none int=(grid=ultrafine) guess=(read,tcheck) s
 table=(opt,rrhf)
 ----------------------------------------------------------------------
 -----
 title
 -----
 Symbolic Z-matrix:
 Charge =  0 Multiplicity = 1

 SCF Done:  E(RHF) =  -1772.56874527     A.U. after   15 cycles
 Normal termination of Gaussian 16 at Tue Apr  8 23:39:42 2025.
 Gaussian 16:  ES64L-G16RevC.01  3-Jul-2019

 ----------------------------------------------------------------------
 #t hf aug-cc-pvdz iop(5/13=1,5/36=2,99/5=2) pseudo=read geom=check gue
 ss=(read,tcheck) scf=(maxcycle=1)
 ----------------------------------------------------------------------
 -----
 title
 -----
 Structure from the checkpoint file:  "BDE49_nonexpt_1590_mol1.chk"
 Charge =  0 Multiplicity = 1

                         Standard orientation:
 ---------------------------------------------------------------------
 Center     Atomic      Atomic             Coordinates (Angstroms)
 Number     Number       Type             X           Y           Z
 ---------------------------------------------------------------------
      1          8           0       -0.694971    0.736548   -0.459997
      2         15           0       -2.121100    0.052946    0.015528
      3          8           0       -3.029636    1.170359    0.233203
      4          8           0       -1.749382   -0.939188    1.186023
      5          8           0        0.331359   -0.297032   -0.707817
      6          6           0        1.401127   -0.020077    0.107809
      7          9           0        1.037085   -0.044544    1.416158
      8         17           0        2.150548    1.569373   -0.207350
      9         17           0        2.530791   -1.351161   -0.212770
     10          1           0       -1.249399   -0.525221    1.900720
     11          8           0       -2.504686   -1.021044   -1.079087
     12          1           0       -3.078859   -0.654348   -1.762467
 ---------------------------------------------------------------------

 SCF Done:  E(RHF) =  -1775.28887114     A.U. after    2 cycles

 The electronic state is 1-A.
 Alpha  occ. eigenvalues -- -105.35667 -99.93929 -99.93159 -29.34294 -21.18367
 Alpha  occ. eigenvalues --  -21.16219 -21.14746 -21.14635 -21.05126 -11.62083
 Alpha  occ. eigenvalues --  -10.51386 -10.50587  -9.71273  -9.70454  -9.70354
 Alpha  occ. eigenvalues --   -9.70287  -9.69604  -9.69542  -2.98946  -2.05907
 Alpha  occ. eigenvalues --   -2.04935  -1.95201  -1.83388  -1.70420  -1.45059
 Alpha  occ. eigenvalues --   -1.43120  -1.35533  -1.33615  -1.26804  -1.09715
 Alpha  occ. eigenvalues --   -0.83060  -0.77837  -0.73110  -0.71797  -0.61761
 Alpha  occ. eigenvalues --   -0.61031  -0.58868  -0.57187  -0.54942  -0.53966
 Alpha  occ. eigenvalues --   -0.52877  -0.49100  -0.46767  -0.45622  -0.43792
 Alpha  occ. eigenvalues --   -0.41488  -0.37209  -0.37021  -0.34291  -0.32344
 Alpha  occ. eigenvalues --   -0.30362  -0.29121  -0.18504
 Alpha virt. eigenvalues --    0.02638   0.04145   0.06185   0.06377   0.07137
 Alpha virt. eigenvalues --    0.09259   0.10214   0.10673   0.11049   0.12210
 Alpha virt. eigenvalues --    0.12821   0.14174   0.15032   0.15438   0.17569

 Mulliken charges:
               1
     1  O   -1.679187
     2  P    8.623296
     3  O   -2.771199
     4  O   -2.872711
     5  O   -1.736396
     6  C    0.346019
     7  F    0.891895
     8  Cl   0.106556
     9  Cl   0.034090
    10  H    0.896100
    11  O   -2.737979
    12  H    0.899515
 Sum of Mulliken charges =  -0.00000

 Dipole moment (field-independent basis, Debye):
    X=             -1.4966    Y=             -2.4697    Z=              2.5341  Tot=              3.8420

 Test job not archived.
 1\1\GINC-SE457\SP\RHF\Aug-CC-pVDZ\C1H2Cl2F1O5P1\OHZDE\08-Apr-2025\0\\#
 t hf aug-cc-pvdz iop(5/13=1,5/36=2,99/5=2) pseudo=read geom=check gues
 s=(read,tcheck) scf=(maxcycle=1)\\title\\0,1\O,0,-0.694971,0.736548,-0
 .459997\P,0,-2.1211,0.052946,0.015528\O,0,-3.029636,1.170359,0.233203\
 O,0,-1.749382,-0.939188,1.186023\O,0,0.331359,-0.297032,-0.707817\C,0,
 1.401127,-0.020077,0.107809\F,0,1.037085,-0.044544,1.416158\Cl,0,2.150
 548,1.569373,-0.20735\Cl,0,2.530791,-1.351161,-0.21277\H,0,-1.249399,-
 0.525221,1.90072\O,0,-2.504686,-1.021044,-1.079087\H,0,-3.078859,-0.65

 Normal termination of Gaussian 16 at Tue Apr  8 23:39:49 2025.
