 Gaussian 16, Revision C.01,

 ----------------------------------------------------------------------
 #t hf aug-cc-pvdz symm=none int=(grid=ultrafine) guess=(read,tcheck) s
 table=(opt,rrhf)
 ----------------------------------------------------------------------
 -----
 title
 -----
 Symbolic Z-matrix:
 Charge =  0 Multiplicity = 1

 SCF Done:  E(RHF) =  -1040.32283904     A.U. after   11 cycles
 Normal termination of Gaussian 16 at Wed Apr  9 00:09:29 2025.
 Gaussian 16:  ES64L-G16RevC.01  3-Jul-2019

 ----------------------------------------------------------------------
 #t hf aug-cc-pvdz iop(5/13=1,5/36=2,99/5=2) pseudo=read geom=check gue
 ss=(read,tcheck) scf=(maxcycle=1)
 ----------------------------------------------------------------------
 -----
 title
 -----
 Structure from the checkpoint file:  "BDE49_nonexpt_2321_mol1.chk"
 Charge =  0 Multiplicity = 1

                         Standard orientation:
 ---------------------------------------------------------------------
 Center     Atomic      Atomic             Coordinates (Angstroms)
 Number     Number       Type             X           Y           Z
 ---------------------------------------------------------------------
      1         14           0        1.862711   -0.352739    0.000000
      2         14           0       -0.163860    0.846924    0.000000
      3          1           0       -0.308737    1.692099    1.205037
      4          1           0        1.943854   -1.202021    1.210151
      5         17           0       -1.767424   -0.500463   -0.000001
      6          1           0        1.943855   -1.202020   -1.210151
      7          1           0       -0.308737    1.692100   -1.205035
      8          1           0        2.992058    0.609112    0.000001
 ---------------------------------------------------------------------

 SCF Done:  E(RHF) =  -1040.89181295     A.U. after    2 cycles

 The electronic state is 1-A.
 Alpha  occ. eigenvalues --  -99.88320 -76.26389 -76.22944 -10.45688  -9.65565
 Alpha  occ. eigenvalues --   -9.64952  -9.64909  -5.59814  -5.56404  -2.21938
 Alpha  occ. eigenvalues --   -2.21429  -2.20504  -2.18472  -2.18450  -2.17340
 Alpha  occ. eigenvalues --   -1.28512  -0.82591  -0.73613  -0.55532  -0.55164
 Alpha  occ. eigenvalues --   -0.53278  -0.48744  -0.48357  -0.46941  -0.36344
 Alpha virt. eigenvalues --    0.04017   0.04331   0.05021   0.06357   0.07334
 Alpha virt. eigenvalues --    0.07534   0.07941   0.08841   0.09157   0.09826
 Alpha virt. eigenvalues --    0.09867   0.11177   0.12867   0.13023   0.14269

 Mulliken charges:
               1
     1  Si   4.543898
     2  Si   4.050303
     3  H   -1.678266
     4  H   -1.425756
     5  Cl  -0.888057
     6  H   -1.425757
     7  H   -1.678269
     8  H   -1.498095
 Sum of Mulliken charges =  -0.00000

 Dipole moment (field-independent basis, Debye):
    X=              1.5921    Y=              0.6785    Z=             -0.0000  Tot=              1.7307

 Test job not archived.
 1\1\GINC-SE250\SP\RHF\Aug-CC-pVDZ\Cl1H5Si2\OHZDE\09-Apr-2025\0\\#t hf
 aug-cc-pvdz iop(5/13=1,5/36=2,99/5=2) pseudo=read geom=check guess=(re
 ad,tcheck) scf=(maxcycle=1)\\title\\0,1\Si,0,1.862711,-0.352739,0.\Si,
 0,-0.16386,0.846924,0.\H,0,-0.308737,1.692099,1.205037\H,0,1.943854,-1
 .202021,1.210151\Cl,0,-1.767424,-0.500463,-0.000001\H,0,1.943855,-1.20
 202,-1.210151\H,0,-0.308737,1.6921,-1.205035\H,0,2.992058,0.609112,0.0
 00001\\Version=ES64L-G16RevC.01\State=1-A\HF=-1040.891813\RMSD=9.573e-
 02\Dipole=0.6263832,0.2669429,-0.0000013\Quadrupole=-0.7511316,0.65752

 Normal termination of Gaussian 16 at Wed Apr  9 00:09:32 2025.
