 Gaussian 16, Revision C.01,

 ----------------------------------------------------------------------
 #t hf aug-cc-pvdz symm=none int=(grid=ultrafine) guess=(read,tcheck) s
 table=opt
 ----------------------------------------------------------------------
 -----
 title
 -----
 Symbolic Z-matrix:
 Charge =  0 Multiplicity = 2

 SCF Done:  E(UHF) =  -290.625877825     A.U. after   13 cycles
 Normal termination of Gaussian 16 at Tue Apr  8 22:45:26 2025.
 Gaussian 16:  ES64L-G16RevC.01  3-Jul-2019

 ----------------------------------------------------------------------
 #t hf aug-cc-pvdz iop(5/13=1,5/36=2,99/5=2) pseudo=read geom=check gue
 ss=(read,tcheck) scf=(maxcycle=1)
 ----------------------------------------------------------------------
 -----
 title
 -----
 Structure from the checkpoint file:  "BDE49_expt_1536_mol2.chk"
 Charge =  0 Multiplicity = 2

                         Standard orientation:
 ---------------------------------------------------------------------
 Center     Atomic      Atomic             Coordinates (Angstroms)
 Number     Number       Type             X           Y           Z
 ---------------------------------------------------------------------
      1         14           0        0.000003   -0.000000   -0.079992
      2          1           0       -0.782344   -1.174932    0.373289
      3          1           0       -0.626391    1.264973    0.373290
      4          1           0        1.408696   -0.090036    0.373302
 ---------------------------------------------------------------------

 SCF Done:  E(UHF) =  -290.775727606     A.U. after    2 cycles

 The electronic state is 2-A.
 Alpha  occ. eigenvalues --  -76.23459  -5.56654  -2.18641  -2.18641  -2.17199
 Alpha  occ. eigenvalues --   -0.77965  -0.47802  -0.47802  -0.27920
 Alpha virt. eigenvalues --    0.04010   0.06162   0.06162   0.07589   0.09567
 Alpha virt. eigenvalues --    0.09567   0.13898   0.17673   0.17742   0.17742
 Alpha virt. eigenvalues --    0.18962   0.18962   0.31106   0.34834   0.34834

  Beta  occ. eigenvalues --  -76.22897  -5.55777  -2.17967  -2.17967  -2.13528
  Beta  occ. eigenvalues --   -0.73118  -0.47216  -0.47215
  Beta virt. eigenvalues --    0.03235   0.04353   0.06339   0.06339   0.09731
  Beta virt. eigenvalues --    0.09731   0.10999   0.15481   0.19206   0.19206
  Beta virt. eigenvalues --    0.19707   0.21237   0.21237   0.32115   0.35356

 Mulliken charges and spin densities:
               1          2
     1  Si   3.830527   1.072706
     2  H   -1.276844  -0.024236
     3  H   -1.276845  -0.024236
     4  H   -1.276838  -0.024235
 Sum of Mulliken charges =  -0.00000   1.00000

 Dipole moment (field-independent basis, Debye):
    X=              0.0001    Y=             -0.0000    Z=             -0.3396  Tot=              0.3396
                          Isotropic Fermi Contact Couplings
        Atom                 a.u.       MegaHertz       Gauss      10(-4) cm-1
     1  Si(29)             0.46804    -415.95720    -148.42387    -138.74839
     2  H(1)               0.00191       8.52210       3.04090       2.84267
     3  H(1)               0.00191       8.52172       3.04076       2.84254
     4  H(1)               0.00191       8.52496       3.04192       2.84362
 --------------------------------------------------------
       Center         ----  Spin Dipole Couplings  ----
                      3XX-RR        3YY-RR        3ZZ-RR
 --------------------------------------------------------

 Normal termination of Gaussian 16 at Tue Apr  8 22:45:27 2025.
