 Gaussian 16, Revision C.01,

 ----------------------------------------------------------------------
 #t hf aug-cc-pvdz symm=none int=(grid=ultrafine) guess=(read,tcheck) s
 table=(opt,rrhf)
 ----------------------------------------------------------------------
 -----
 title
 -----
 Symbolic Z-matrix:
 Charge =  0 Multiplicity = 1

 SCF Done:  E(RHF) =  -1507.06446985     A.U. after   16 cycles
 Normal termination of Gaussian 16 at Wed Apr  9 00:17:29 2025.
 Gaussian 16:  ES64L-G16RevC.01  3-Jul-2019

 ----------------------------------------------------------------------
 #t hf aug-cc-pvdz iop(5/13=1,5/36=2,99/5=2) pseudo=read geom=check gue
 ss=(read,tcheck) scf=(maxcycle=1)
 ----------------------------------------------------------------------
 -----
 title
 -----
 Structure from the checkpoint file:  "BDE49_nonexpt_2541_mol1.chk"
 Charge =  0 Multiplicity = 1

                         Standard orientation:
 ---------------------------------------------------------------------
 Center     Atomic      Atomic             Coordinates (Angstroms)
 Number     Number       Type             X           Y           Z
 ---------------------------------------------------------------------
      1         17           0        2.688156   -0.114336   -0.066593
      2         16           0        1.003598   -1.263511   -0.379747
      3          6           0       -0.300690   -0.069448   -0.027507
      4          7           0       -1.587627   -0.907057    0.112039
      5          8           0       -2.490983   -0.430594    0.748392
      6          8           0       -1.548182   -1.981503   -0.459479
      7          7           0       -0.160223    0.728064    1.316479
      8          8           0        0.228976    0.073504    2.253456
      9          8           0       -0.500440    1.885362    1.285241
     10          7           0       -0.530126    0.960035   -1.170354
     11          8           0       -1.596329    0.901622   -1.740777
     12          8           0        0.406176    1.690272   -1.391092
 ---------------------------------------------------------------------

 SCF Done:  E(RHF) =  -1510.24537299     A.U. after    2 cycles

 The electronic state is 1-A.
 Alpha  occ. eigenvalues --  -99.96320 -75.82816 -21.17712 -21.16853 -21.16724
 Alpha  occ. eigenvalues --  -21.16395 -21.16327 -21.15974 -16.08190 -16.07594
 Alpha  occ. eigenvalues --  -16.07327 -13.32012 -13.20646 -13.16935 -11.63514
 Alpha  occ. eigenvalues --  -10.53443  -9.73243  -9.72650  -9.72429  -8.16539
 Alpha  occ. eigenvalues --   -2.09741  -2.05878  -2.05317  -1.77775  -1.77111
 Alpha  occ. eigenvalues --   -1.76399  -1.42718  -1.35151  -1.14072  -1.06796
 Alpha  occ. eigenvalues --   -1.06094  -0.83278  -0.81336  -0.80666  -0.77742
 Alpha  occ. eigenvalues --   -0.72466  -0.70447  -0.67820  -0.66828  -0.66392
 Alpha  occ. eigenvalues --   -0.63730  -0.61113  -0.60352  -0.55732  -0.45176
 Alpha  occ. eigenvalues --   -0.43595  -0.41892  -0.40065  -0.38700  -0.37563
 Alpha  occ. eigenvalues --   -0.37012  -0.35785  -0.35317  -0.30957
 Alpha virt. eigenvalues --    0.02438   0.03820   0.06316   0.06936   0.08583
 Alpha virt. eigenvalues --    0.09410   0.10146   0.11349   0.12538   0.13229
 Alpha virt. eigenvalues --    0.13781   0.14031   0.14159   0.14504   0.15118

 Mulliken charges:
               1
     1  Cl  -0.493490
     2  S    1.513628
     3  C    3.167150
     4  N    4.332940
     5  O   -2.936916
     6  O   -2.814473
     7  N    4.687737
     8  O   -3.173663
     9  O   -2.892138
    10  N    4.503502
    11  O   -2.716481
    12  O   -3.177797
 Sum of Mulliken charges =  -0.00000

 Dipole moment (field-independent basis, Debye):
    X=             -0.8370    Y=             -3.1252    Z=             -0.6393  Tot=              3.2979

 Test job not archived.
 1\1\GINC-SE072\SP\RHF\Aug-CC-pVDZ\C1Cl1N3O6S1\OHZDE\09-Apr-2025\0\\#t
 hf aug-cc-pvdz iop(5/13=1,5/36=2,99/5=2) pseudo=read geom=check guess=
 (read,tcheck) scf=(maxcycle=1)\\title\\0,1\Cl,0,2.688156,-0.114336,-0.
 066593\S,0,1.003598,-1.263511,-0.379747\C,0,-0.30069,-0.069448,-0.0275
 07\N,0,-1.587627,-0.907057,0.112039\O,0,-2.490983,-0.430594,0.748392\O
 ,0,-1.548182,-1.981503,-0.459479\N,0,-0.160223,0.728064,1.316479\O,0,0
 .228976,0.073504,2.253456\O,0,-0.50044,1.885362,1.285241\N,0,-0.530126
 ,0.960035,-1.170354\O,0,-1.596329,0.901622,-1.740777\O,0,0.406176,1.69

 Normal termination of Gaussian 16 at Wed Apr  9 00:17:40 2025.
