 Gaussian 16, Revision C.01,

 ----------------------------------------------------------------------
 #t hf aug-cc-pvdz symm=none int=(grid=ultrafine) guess=(read,tcheck) s
 table=(opt,rrhf)
 ----------------------------------------------------------------------
 -----
 title
 -----
 Symbolic Z-matrix:
 Charge =  0 Multiplicity = 1

 SCF Done:  E(RHF) =  -553.228343967     A.U. after   16 cycles
 Normal termination of Gaussian 16 at Wed Apr  9 00:55:20 2025.
 Gaussian 16:  ES64L-G16RevC.01  3-Jul-2019

 ----------------------------------------------------------------------
 #t hf aug-cc-pvdz iop(5/13=1,5/36=2,99/5=2) pseudo=read geom=check gue
 ss=(read,tcheck) scf=(maxcycle=1)
 ----------------------------------------------------------------------
 -----
 title
 -----
 Structure from the checkpoint file:  "BDE49_nonexpt_955_mol1.chk"
 Charge =  0 Multiplicity = 1

                         Standard orientation:
 ---------------------------------------------------------------------
 Center     Atomic      Atomic             Coordinates (Angstroms)
 Number     Number       Type             X           Y           Z
 ---------------------------------------------------------------------
      1          9           0       -3.857362   -0.023956    0.404558
      2          7           0       -0.626416   -1.066667   -0.068163
      3          7           0       -2.884276   -0.765387   -0.324340
      4          1           0       -2.907216   -1.695215    0.090914
      5          6           0       -1.604196   -0.198480   -0.136078
      6          6           0       -1.441244    1.212377   -0.133624
      7          1           0       -2.309070    1.854935   -0.180030
      8          6           0       -0.166077    1.700084   -0.063259
      9          1           0        0.013371    2.770113   -0.050664
     10          6           0        2.285403    1.238418    0.041510
     11          1           0        2.497232    2.302609    0.051919
     12          6           0        3.309226    0.321367    0.083751
     13          1           0        4.338993    0.656440    0.128159
     14          6           0        3.023981   -1.063020    0.070353
     15          1           0        3.840311   -1.775739    0.104156
     16          6           0        1.725381   -1.512142    0.014265
     17          1           0        1.485813   -2.568396    0.004006
     18          6           0        0.651373   -0.590856   -0.032073
     19          6           0        0.938096    0.808125   -0.018505
 ---------------------------------------------------------------------

 SCF Done:  E(RHF) =  -555.679874182     A.U. after    2 cycles

 The electronic state is 1-A.
 Alpha  occ. eigenvalues --  -29.27564 -15.82462 -15.74332 -11.53085 -11.51347
 Alpha  occ. eigenvalues --  -11.48357 -11.46700 -11.44153 -11.42970 -11.42057
 Alpha  occ. eigenvalues --  -11.41486 -11.38026  -1.52793  -1.40051  -1.28144
 Alpha  occ. eigenvalues --   -1.21059  -1.09166  -1.08581  -0.93036  -0.90309
 Alpha  occ. eigenvalues --   -0.86931  -0.76550  -0.73702  -0.71557  -0.68916
 Alpha  occ. eigenvalues --   -0.63241  -0.61623  -0.59870  -0.57847  -0.56021
 Alpha  occ. eigenvalues --   -0.55201  -0.53740  -0.47856  -0.45921  -0.45058
 Alpha  occ. eigenvalues --   -0.41653  -0.38501  -0.36997  -0.32400  -0.30292
 Alpha  occ. eigenvalues --   -0.26808  -0.21965
 Alpha virt. eigenvalues --    0.03279   0.04631   0.04951   0.06056   0.06408
 Alpha virt. eigenvalues --    0.06599   0.07889   0.08208   0.09256   0.10267
 Alpha virt. eigenvalues --    0.10825   0.11281   0.11840   0.12337   0.13220

 Mulliken charges:
               1
     1  F   -0.205922
     2  N   -4.613807
     3  N   -2.462283
     4  H    0.807535
     5  C   -0.043703
     6  C   -2.290334
     7  H    1.526756
     8  C    0.152431
     9  H    1.773054
    10  C   -1.623923
    11  H    1.738227
    12  C   -2.213357
    13  H    1.500227
    14  C   -1.551544
    15  H    1.508275
    16  C   -2.612715
    17  H    1.815405
    18  C    1.493478
    19  C    5.302201
 Sum of Mulliken charges =  -0.00000

 Dipole moment (field-independent basis, Debye):
    X=              0.0710    Y=              1.6940    Z=              1.0170  Tot=              1.9771

 Test job not archived.
 1\1\GINC-SE083\SP\RHF\Aug-CC-pVDZ\C9H7F1N2\OHZDE\09-Apr-2025\0\\#t hf
 aug-cc-pvdz iop(5/13=1,5/36=2,99/5=2) pseudo=read geom=check guess=(re
 ad,tcheck) scf=(maxcycle=1)\\title\\0,1\F,0,-3.857362,-0.023956,0.4045
 58\N,0,-0.626416,-1.066667,-0.068163\N,0,-2.884276,-0.765387,-0.32434\
 H,0,-2.907216,-1.695215,0.090914\C,0,-1.604196,-0.19848,-0.136078\C,0,
 -1.441244,1.212377,-0.133624\H,0,-2.30907,1.854935,-0.18003\C,0,-0.166
 077,1.700084,-0.063259\H,0,0.013371,2.770113,-0.050664\C,0,2.285403,1.
 238418,0.04151\H,0,2.497232,2.302609,0.051919\C,0,3.309226,0.321367,0.

 Normal termination of Gaussian 16 at Wed Apr  9 00:55:34 2025.
