 Gaussian 16, Revision C.01,

 ----------------------------------------------------------------------
 #t hf aug-cc-pvdz symm=none int=(grid=ultrafine) guess=(read,tcheck) s
 table=(opt,rrhf)
 ----------------------------------------------------------------------
 -----
 title
 -----
 Symbolic Z-matrix:
 Charge =  0 Multiplicity = 1

 SCF Done:  E(RHF) =  -768.974832993     A.U. after   13 cycles
 Normal termination of Gaussian 16 at Wed Apr  9 00:10:35 2025.
 Gaussian 16:  ES64L-G16RevC.01  3-Jul-2019

 ----------------------------------------------------------------------
 #t hf aug-cc-pvdz iop(5/13=1,5/36=2,99/5=2) pseudo=read geom=check gue
 ss=(read,tcheck) scf=(maxcycle=1)
 ----------------------------------------------------------------------
 -----
 title
 -----
 Structure from the checkpoint file:  "BDE49_nonexpt_2355_mol1.chk"
 Charge =  0 Multiplicity = 1

                         Standard orientation:
 ---------------------------------------------------------------------
 Center     Atomic      Atomic             Coordinates (Angstroms)
 Number     Number       Type             X           Y           Z
 ---------------------------------------------------------------------
      1         14           0       -0.208910   -0.850370   -0.430570
      2         14           0       -2.120508    0.324893    0.285241
      3          6           0        1.348993    0.232744   -0.059114
      4          8           0        1.428496    1.343854   -0.508443
      5          1           0       -0.213448   -1.082361   -1.891764
      6          1           0       -0.081471   -2.162513    0.259933
      7          8           0        2.351619   -0.259728    0.723031
      8          1           0       -3.324485   -0.506400    0.048099
      9          1           0       -2.238866    1.593662   -0.465240
     10          1           0        2.143687   -1.164417    0.986728
     11          1           0       -2.008451    0.609245    1.734813
 ---------------------------------------------------------------------

 SCF Done:  E(RHF) =  -770.068794294     A.U. after    2 cycles

 The electronic state is 1-A.
 Alpha  occ. eigenvalues --  -76.24410 -76.23357 -21.12925 -21.06229 -11.49146
 Alpha  occ. eigenvalues --   -5.58050  -5.56764  -2.21476  -2.20292  -2.19576
 Alpha  occ. eigenvalues --   -2.18852  -2.18815  -2.17813  -1.81760  -1.65739
 Alpha  occ. eigenvalues --   -0.88090  -0.79518  -0.74602  -0.63203  -0.55415
 Alpha  occ. eigenvalues --   -0.54118  -0.50424  -0.48899  -0.47888  -0.45527
 Alpha  occ. eigenvalues --   -0.37353  -0.33904  -0.28106
 Alpha virt. eigenvalues --    0.03520   0.03989   0.05079   0.05975   0.06774
 Alpha virt. eigenvalues --    0.07004   0.07983   0.08441   0.08886   0.09193
 Alpha virt. eigenvalues --    0.09523   0.09578   0.11298   0.11600   0.13121

 Mulliken charges:
               1
     1  Si   3.959151
     2  Si   4.793025
     3  C    3.235675
     4  O   -2.458168
     5  H   -1.829353
     6  H   -1.585475
     7  O   -2.707613
     8  H   -1.539563
     9  H   -1.486382
    10  H    1.117072
    11  H   -1.498369
 Sum of Mulliken charges =  -0.00000

 Dipole moment (field-independent basis, Debye):
    X=             -0.7257    Y=             -1.2659    Z=              0.5783  Tot=              1.5696

 Test job not archived.
 1\1\GINC-SE403\SP\RHF\Aug-CC-pVDZ\C1H6O2Si2\OHZDE\09-Apr-2025\0\\#t hf
  aug-cc-pvdz iop(5/13=1,5/36=2,99/5=2) pseudo=read geom=check guess=(r
 ead,tcheck) scf=(maxcycle=1)\\title\\0,1\Si,0,-0.20891,-0.85037,-0.430
 57\Si,0,-2.120508,0.324893,0.285241\C,0,1.348993,0.232744,-0.059114\O,
 0,1.428496,1.343854,-0.508443\H,0,-0.213448,-1.082361,-1.891764\H,0,-0
 .081471,-2.162513,0.259933\O,0,2.351619,-0.259728,0.723031\H,0,-3.3244
 85,-0.5064,0.048099\H,0,-2.238866,1.593662,-0.46524\H,0,2.143687,-1.16
 4417,0.986728\H,0,-2.008451,0.609245,1.734813\\Version=ES64L-G16RevC.0

 Normal termination of Gaussian 16 at Wed Apr  9 00:10:45 2025.
