 Gaussian 16, Revision C.01,

 ----------------------------------------------------------------------
 #t hf aug-cc-pvdz symm=none int=(grid=ultrafine) guess=(read,tcheck) s
 table=(opt,rrhf)
 ----------------------------------------------------------------------
 -----
 title
 -----
 Symbolic Z-matrix:
 Charge =  0 Multiplicity = 1

 SCF Done:  E(RHF) =  -1026.73719835     A.U. after   16 cycles
 Normal termination of Gaussian 16 at Tue Apr  8 23:19:22 2025.
 Gaussian 16:  ES64L-G16RevC.01  3-Jul-2019

 ----------------------------------------------------------------------
 #t hf aug-cc-pvdz iop(5/13=1,5/36=2,99/5=2) pseudo=read geom=check gue
 ss=(read,tcheck) scf=(maxcycle=1)
 ----------------------------------------------------------------------
 -----
 title
 -----
 Structure from the checkpoint file:  "BDE49_expt_447_mol1.chk"
 Charge =  0 Multiplicity = 1

                         Standard orientation:
 ---------------------------------------------------------------------
 Center     Atomic      Atomic             Coordinates (Angstroms)
 Number     Number       Type             X           Y           Z
 ---------------------------------------------------------------------
      1          6           0       -3.311931   -0.953597    0.877033
      2          6           0       -2.054490   -1.533554    0.921206
      3          6           0       -3.534997    0.201017    0.119431
      4          6           0       -2.470565    0.762231   -0.587048
      5          6           0       -1.202617    0.181554   -0.531663
      6          6           0       -0.978745   -0.970054    0.219722
      7          7           0        0.303261   -1.559704    0.335761
      8         16           0        1.487153   -1.473697   -0.870491
      9          6           0        2.642682   -0.260205   -0.230759
     10          6           0        2.484542    0.366175    1.004236
     11          6           0        3.745253    0.044473   -1.035444
     12          6           0        4.684497    0.973430   -0.599446
     13          6           0        3.430135    1.297312    1.429541
     14          6           0        4.531804    1.604918    0.634569
     15          1           0        1.628127    0.122360    1.619945
     16          1           0        3.301426    1.783444    2.390457
     17          1           0        5.264161    2.329318    0.971293
     18          1           0        3.869461   -0.441704   -1.997897
     19          1           0        5.537733    1.204420   -1.227539
     20          1           0       -1.903417   -2.435152    1.507071
     21          1           0       -4.144334   -1.386876    1.418087
     22          1           0       -2.606274    1.654584   -1.183184
     23          1           0       -0.384665    0.630597   -1.080678
     24          1           0        0.335125   -2.408319    0.881407
     25          8           0       -4.812470    0.690756    0.136095
     26          6           0       -5.091775    1.858557   -0.618802
     27          1           0       -4.502236    2.715131   -0.271238
     28          1           0       -6.149726    2.066992   -0.466432
     29          1           0       -4.905648    1.702700   -1.687979
 ---------------------------------------------------------------------

 SCF Done:  E(RHF) =  -1029.93230904     A.U. after    2 cycles

 The electronic state is 1-A.
 Alpha  occ. eigenvalues --  -75.71661 -21.06764 -15.76300 -13.22155 -13.17478
 Alpha  occ. eigenvalues --  -13.09792 -11.53548 -11.51473 -11.45946 -11.44680
 Alpha  occ. eigenvalues --  -11.44337 -11.43532 -11.43328 -11.41191 -11.41166
 Alpha  occ. eigenvalues --  -11.40900 -11.40511 -11.36682 -11.36551  -8.05722
 Alpha  occ. eigenvalues --   -1.78068  -1.45023  -1.34603  -1.27680  -1.14482
 Alpha  occ. eigenvalues --   -1.09968  -1.09352  -1.07137  -1.00806  -0.96490
 Alpha  occ. eigenvalues --   -0.87910  -0.86766  -0.84112  -0.81792  -0.71607
 Alpha  occ. eigenvalues --   -0.71142  -0.66492  -0.65268  -0.62799  -0.62051
 Alpha  occ. eigenvalues --   -0.61996  -0.59016  -0.58249  -0.57823  -0.57475
 Alpha  occ. eigenvalues --   -0.53839  -0.53298  -0.51909  -0.51391  -0.47195
 Alpha  occ. eigenvalues --   -0.46421  -0.45280  -0.44312  -0.39831  -0.38882
 Alpha  occ. eigenvalues --   -0.37024  -0.34004  -0.33419  -0.33196  -0.23781
 Alpha  occ. eigenvalues --   -0.22267
 Alpha virt. eigenvalues --    0.03288   0.03975   0.05010   0.05118   0.05361
 Alpha virt. eigenvalues --    0.05700   0.05928   0.06297   0.06515   0.07328
 Alpha virt. eigenvalues --    0.07740   0.07841   0.08224   0.09905   0.10229

 Mulliken charges:
               1
     1  C   -2.928997
     2  C   -3.913511
     3  C    4.369927
     4  C   -1.817860
     5  C   -0.352552
     6  C    4.398691
     7  N   -4.464669
     8  S    0.505807
     9  C    3.259057
    10  C   -1.818763
    11  C   -4.412512
    12  C   -1.319825
    13  C   -1.297853
    14  C   -3.167772
    15  H    2.129090
    16  H    1.501964
    17  H    1.555293
    18  H    1.810408
    19  H    1.551946
    20  H    1.905506
    21  H    1.975246
    22  H    1.848912
    23  H    2.374190
    24  H    0.706071
    25  O   -4.735204
    26  C   -3.878981
    27  H    1.411910
    28  H    1.400099
    29  H    1.404379
 Sum of Mulliken charges =   0.00000

 Dipole moment (field-independent basis, Debye):
    X=             -0.5411    Y=             -0.3927    Z=             -0.7249  Tot=              0.9861

 Test job not archived.
 1\1\GINC-SE070\SP\RHF\Aug-CC-pVDZ\C13H13N1O1S1\OHZDE\08-Apr-2025\0\\#t
  hf aug-cc-pvdz iop(5/13=1,5/36=2,99/5=2) pseudo=read geom=check guess
 =(read,tcheck) scf=(maxcycle=1)\\title\\0,1\C,0,-3.311931,-0.953597,0.
 877033\C,0,-2.05449,-1.533554,0.921206\C,0,-3.534997,0.201017,0.119431
 \C,0,-2.470565,0.762231,-0.587048\C,0,-1.202617,0.181554,-0.531663\C,0
 ,-0.978745,-0.970054,0.219722\N,0,0.303261,-1.559704,0.335761\S,0,1.48
 7153,-1.473697,-0.870491\C,0,2.642682,-0.260205,-0.230759\C,0,2.484542
 ,0.366175,1.004236\C,0,3.745253,0.044473,-1.035444\C,0,4.684497,0.9734

 Normal termination of Gaussian 16 at Tue Apr  8 23:19:56 2025.
