 Gaussian 16, Revision C.01,

 ----------------------------------------------------------------------
 #t hf aug-cc-pvdz symm=none int=(grid=ultrafine) guess=(read,tcheck) s
 table=(opt,rrhf)
 ----------------------------------------------------------------------
 -----
 title
 -----
 Symbolic Z-matrix:
 Charge =  0 Multiplicity = 1

 SCF Done:  E(RHF) =  -1325.09363340     A.U. after   12 cycles
 Normal termination of Gaussian 16 at Wed Apr  9 00:08:56 2025.
 Gaussian 16:  ES64L-G16RevC.01  3-Jul-2019

 ----------------------------------------------------------------------
 #t hf aug-cc-pvdz iop(5/13=1,5/36=2,99/5=2) pseudo=read geom=check gue
 ss=(read,tcheck) scf=(maxcycle=1)
 ----------------------------------------------------------------------
 -----
 title
 -----
 Structure from the checkpoint file:  "BDE49_nonexpt_224_mol1.chk"
 Charge =  0 Multiplicity = 1

                         Standard orientation:
 ---------------------------------------------------------------------
 Center     Atomic      Atomic             Coordinates (Angstroms)
 Number     Number       Type             X           Y           Z
 ---------------------------------------------------------------------
      1         17           0        1.802022    1.761545   -0.134656
      2          5           0        1.018261    0.209870    0.057089
      3         17           0        2.018234   -1.236265    0.204821
      4          6           0       -0.578375    0.054581   -0.023741
      5          8           0       -1.140103   -1.023430    0.681829
      6          8           0       -0.771250   -0.196595   -1.414483
      7          8           0       -1.174495    1.265340    0.295888
      8          6           0       -1.033658   -0.933655    2.101286
      9          1           0        0.013318   -0.928551    2.426044
     10          1           0       -1.520965   -1.822745    2.498774
     11          1           0       -1.530538   -0.037494    2.481809
     12          6           0       -0.932861   -1.545616   -1.871357
     13          1           0       -1.023067   -1.466619   -2.954481
     14          1           0       -1.831742   -1.999757   -1.453628
     15          1           0       -0.068021   -2.166958   -1.624439
     16          6           0       -2.564005    1.386820   -0.041097
     17          1           0       -2.888010    2.332036    0.391325
     18          1           0       -3.149125    0.566647    0.383636
     19          1           0       -2.697340    1.409035   -1.123704
 ---------------------------------------------------------------------

 SCF Done:  E(RHF) =  -1327.38644188     A.U. after    2 cycles

 The electronic state is 1-A.
 Alpha  occ. eigenvalues --  -99.90143 -99.89750 -21.06232 -21.05700 -21.05627
 Alpha  occ. eigenvalues --  -11.48661 -11.42092 -11.41064 -11.40475 -10.47464
 Alpha  occ. eigenvalues --  -10.46997  -9.67495  -9.67143  -9.67054  -9.66917
 Alpha  occ. eigenvalues --   -9.66627  -9.66470  -7.71786  -1.88239  -1.71152
 Alpha  occ. eigenvalues --   -1.70285  -1.39660  -1.29765  -1.07173  -0.99874
 Alpha  occ. eigenvalues --   -0.98309  -0.89167  -0.76234  -0.69184  -0.67089
 Alpha  occ. eigenvalues --   -0.66679  -0.62815  -0.61442  -0.60105  -0.59306
 Alpha  occ. eigenvalues --   -0.57920  -0.57040  -0.55392  -0.54456  -0.52001
 Alpha  occ. eigenvalues --   -0.50281  -0.49587  -0.45284  -0.39620  -0.36837
 Alpha  occ. eigenvalues --   -0.34629  -0.30566  -0.29499
 Alpha virt. eigenvalues --    0.03328   0.04269   0.04419   0.04832   0.05223
 Alpha virt. eigenvalues --    0.05589   0.06106   0.06322   0.06491   0.07075
 Alpha virt. eigenvalues --    0.08241   0.09882   0.09930   0.10369   0.11990

 Mulliken charges:
               1
     1  Cl  -1.674174
     2  B    3.420419
     3  Cl  -1.605592
     4  C    9.469501
     5  O   -4.022614
     6  O   -3.815367
     7  O   -3.991066
     8  C   -3.585068
     9  H    1.417625
    10  H    1.358921
    11  H    1.496322
    12  C   -3.353193
    13  H    1.332382
    14  H    1.507819
    15  H    1.401547
    16  C   -3.630923
    17  H    1.302245
    18  H    1.449066
    19  H    1.522152
 Sum of Mulliken charges =  -0.00000

 Dipole moment (field-independent basis, Debye):
    X=             -2.3914    Y=             -0.8310    Z=             -0.1582  Tot=              2.5366

 Test job not archived.
 1\1\GINC-SE249\SP\RHF\Aug-CC-pVDZ\C4H9B1Cl2O3\OHZDE\09-Apr-2025\0\\#t
 hf aug-cc-pvdz iop(5/13=1,5/36=2,99/5=2) pseudo=read geom=check guess=
 (read,tcheck) scf=(maxcycle=1)\\title\\0,1\Cl,0,1.802022,1.761545,-0.1
 34656\B,0,1.018261,0.20987,0.057089\Cl,0,2.018234,-1.236265,0.204821\C
 ,0,-0.578375,0.054581,-0.023741\O,0,-1.140103,-1.02343,0.681829\O,0,-0
 .77125,-0.196595,-1.414483\O,0,-1.174495,1.26534,0.295888\C,0,-1.03365
 8,-0.933655,2.101286\H,0,0.013318,-0.928551,2.426044\H,0,-1.520965,-1.
 822745,2.498774\H,0,-1.530538,-0.037494,2.481809\C,0,-0.932861,-1.5456

 Normal termination of Gaussian 16 at Wed Apr  9 00:09:07 2025.
