 Gaussian 16, Revision C.01,

 ----------------------------------------------------------------------
 #t hf aug-cc-pvdz symm=none int=(grid=ultrafine) guess=(read,tcheck) s
 table=(opt,rrhf)
 ----------------------------------------------------------------------
 -----
 title
 -----
 Symbolic Z-matrix:
 Charge =  0 Multiplicity = 1

 SCF Done:  E(RHF) =  -420.326031684     A.U. after   16 cycles
 Normal termination of Gaussian 16 at Tue Apr  8 23:22:09 2025.
 Gaussian 16:  ES64L-G16RevC.01  3-Jul-2019

 ----------------------------------------------------------------------
 #t hf aug-cc-pvdz iop(5/13=1,5/36=2,99/5=2) pseudo=read geom=check gue
 ss=(read,tcheck) scf=(maxcycle=1)
 ----------------------------------------------------------------------
 -----
 title
 -----
 Structure from the checkpoint file:  "BDE49_nonexpt_1176_mol1.chk"
 Charge =  0 Multiplicity = 1

                         Standard orientation:
 ---------------------------------------------------------------------
 Center     Atomic      Atomic             Coordinates (Angstroms)
 Number     Number       Type             X           Y           Z
 ---------------------------------------------------------------------
      1          9           0       -2.616614    0.415772    0.000000
      2          8           0       -1.746330   -0.721777    0.000001
      3          6           0       -0.431837   -0.268578    0.000000
      4          6           0       -0.063812    1.074727    0.000001
      5          7           0        0.390786   -1.293747   -0.000001
      6          6           0        1.700529   -1.023188   -0.000001
      7          6           0        1.302348    1.331200    0.000000
      8          6           0        2.208361    0.271205   -0.000001
      9          1           0       -0.801098    1.862184    0.000002
     10          1           0        1.654189    2.356406    0.000001
     11          1           0        3.277162    0.442243   -0.000001
     12          1           0        2.360871   -1.884527   -0.000002
 ---------------------------------------------------------------------

 SCF Done:  E(RHF) =  -422.101080957     A.U. after    2 cycles

 The electronic state is 1-A.
 Alpha  occ. eigenvalues --  -29.30939 -21.17884 -15.75689 -11.52652 -11.49015
 Alpha  occ. eigenvalues --  -11.46116 -11.42975 -11.39979  -1.84807  -1.45483
 Alpha  occ. eigenvalues --   -1.21590  -1.11784  -0.93063  -0.89868  -0.76215
 Alpha  occ. eigenvalues --   -0.70793  -0.66402  -0.62663  -0.61499  -0.59334
 Alpha  occ. eigenvalues --   -0.55089  -0.50413  -0.49124  -0.39183  -0.38946
 Alpha  occ. eigenvalues --   -0.37299  -0.35271  -0.27534  -0.22762
 Alpha virt. eigenvalues --    0.03069   0.04873   0.05083   0.06633   0.09328
 Alpha virt. eigenvalues --    0.10057   0.10356   0.11125   0.12145   0.12435
 Alpha virt. eigenvalues --    0.13254   0.13816   0.13932   0.14446   0.14483

 Mulliken charges:
               1
     1  F   -0.221226
     2  O   -1.882375
     3  C    2.115999
     4  C   -1.579916
     5  N   -3.281624
     6  C   -1.175907
     7  C    0.578912
     8  C   -0.541416
     9  H    1.560178
    10  H    1.475690
    11  H    1.381699
    12  H    1.569987
 Sum of Mulliken charges =   0.00000

 Dipole moment (field-independent basis, Debye):
    X=              0.4767    Y=              2.5007    Z=              0.0000  Tot=              2.5458

 Test job not archived.
 1\1\GINC-SE253\SP\RHF\Aug-CC-pVDZ\C5H4F1N1O1\OHZDE\08-Apr-2025\0\\#t h
 f aug-cc-pvdz iop(5/13=1,5/36=2,99/5=2) pseudo=read geom=check guess=(
 read,tcheck) scf=(maxcycle=1)\\title\\0,1\F,0,-2.616614,0.415772,0.\O,
 0,-1.74633,-0.721777,0.000001\C,0,-0.431837,-0.268578,0.\C,0,-0.063812
 ,1.074727,0.000001\N,0,0.390786,-1.293747,-0.000001\C,0,1.700529,-1.02
 3188,-0.000001\C,0,1.302348,1.3312,0.\C,0,2.208361,0.271205,-0.000001\
 H,0,-0.801098,1.862184,0.000002\H,0,1.654189,2.356406,0.000001\H,0,3.2
 77162,0.442243,-0.000001\H,0,2.360871,-1.884527,-0.000002\\Version=ES6

 Normal termination of Gaussian 16 at Tue Apr  8 23:22:14 2025.
