 Gaussian 16, Revision C.01,

 ----------------------------------------------------------------------
 #t hf aug-cc-pvdz symm=none int=(grid=ultrafine) guess=(read,tcheck) s
 table=(opt,rrhf)
 ----------------------------------------------------------------------
 -----
 title
 -----
 Symbolic Z-matrix:
 Charge =  0 Multiplicity = 1

 SCF Done:  E(RHF) =  -537.104297397     A.U. after   13 cycles
 Normal termination of Gaussian 16 at Tue Apr  8 23:58:44 2025.
 Gaussian 16:  ES64L-G16RevC.01  3-Jul-2019

 ----------------------------------------------------------------------
 #t hf aug-cc-pvdz iop(5/13=1,5/36=2,99/5=2) pseudo=read geom=check gue
 ss=(read,tcheck) scf=(maxcycle=1)
 ----------------------------------------------------------------------
 -----
 title
 -----
 Structure from the checkpoint file:  "BDE49_nonexpt_2049_mol1.chk"
 Charge =  0 Multiplicity = 1

                         Standard orientation:
 ---------------------------------------------------------------------
 Center     Atomic      Atomic             Coordinates (Angstroms)
 Number     Number       Type             X           Y           Z
 ---------------------------------------------------------------------
      1         14           0        1.958583    0.289699   -0.000000
      2          6           0        0.200902   -0.491048   -0.000003
      3          8           0        0.271765   -1.718452    0.000003
      4          7           0       -0.988319    0.181227   -0.000001
      5          6           0       -1.113000    1.627647   -0.000000
      6          1           0       -0.130596    2.094580   -0.000001
      7          1           0       -1.658808    1.969028    0.886983
      8          1           0       -1.658810    1.969028   -0.886982
      9          6           0       -2.236129   -0.574094   -0.000000
     10          1           0       -1.994421   -1.634320   -0.000001
     11          1           0       -2.828392   -0.332791   -0.889141
     12          1           0       -2.828389   -0.332792    0.889144
     13          1           0        2.622040   -0.227813    1.213365
     14          1           0        2.068648    1.771109   -0.000001
     15          1           0        2.622044   -0.227814   -1.213363
 ---------------------------------------------------------------------

 SCF Done:  E(RHF) =  -538.414033531     A.U. after    2 cycles

 The electronic state is 1-A.
 Alpha  occ. eigenvalues --  -76.22723 -21.02168 -15.75339 -11.45740 -11.41355
 Alpha  occ. eigenvalues --  -11.39418  -5.56195  -2.20345  -2.18599  -2.18334
 Alpha  occ. eigenvalues --   -1.69771  -1.42745  -1.05971  -0.99295  -0.83065
 Alpha  occ. eigenvalues --   -0.72322  -0.65759  -0.63854  -0.62246  -0.56208
 Alpha  occ. eigenvalues --   -0.52968  -0.52422  -0.50947  -0.47288  -0.45691
 Alpha  occ. eigenvalues --   -0.45271  -0.29254  -0.27030
 Alpha virt. eigenvalues --    0.03199   0.04737   0.05298   0.05303   0.05847
 Alpha virt. eigenvalues --    0.06921   0.07141   0.07558   0.07884   0.08758
 Alpha virt. eigenvalues --    0.09743   0.10652   0.11957   0.13009   0.13506

 Mulliken charges:
               1
     1  Si   6.217794
     2  C    2.764876
     3  O   -2.640040
     4  N   -3.006949
     5  C   -3.500822
     6  H    1.880412
     7  H    1.375076
     8  H    1.375077
     9  C   -3.505953
    10  H    1.412281
    11  H    1.447211
    12  H    1.447209
    13  H   -1.857190
    14  H   -1.551792
    15  H   -1.857190
 Sum of Mulliken charges =   0.00000

 Dipole moment (field-independent basis, Debye):
    X=             -1.8334    Y=              1.7612    Z=              0.0000  Tot=              2.5423

 Test job not archived.
 1\1\GINC-SE424\SP\RHF\Aug-CC-pVDZ\C3H9N1O1Si1\OHZDE\08-Apr-2025\0\\#t
 hf aug-cc-pvdz iop(5/13=1,5/36=2,99/5=2) pseudo=read geom=check guess=
 (read,tcheck) scf=(maxcycle=1)\\title\\0,1\Si,0,1.958583,0.289699,0.\C
 ,0,0.200902,-0.491048,-0.000003\O,0,0.271765,-1.718452,0.000003\N,0,-0
 .988319,0.181227,-0.000001\C,0,-1.113,1.627647,0.\H,0,-0.130596,2.0945
 8,-0.000001\H,0,-1.658808,1.969028,0.886983\H,0,-1.65881,1.969028,-0.8
 86982\C,0,-2.236129,-0.574094,0.\H,0,-1.994421,-1.63432,-0.000001\H,0,
 -2.828392,-0.332791,-0.889141\H,0,-2.828389,-0.332792,0.889144\H,0,2.6

 Normal termination of Gaussian 16 at Tue Apr  8 23:58:49 2025.
