 Gaussian 16, Revision C.01,

 ----------------------------------------------------------------------
 #t hf aug-cc-pvdz symm=none int=(grid=ultrafine) guess=(read,tcheck) s
 table=(opt,rrhf)
 ----------------------------------------------------------------------
 -----
 title
 -----
 Symbolic Z-matrix:
 Charge =  0 Multiplicity = 1

 SCF Done:  E(RHF) =  -680.254493113     A.U. after   15 cycles
 Normal termination of Gaussian 16 at Wed Apr  9 00:54:26 2025.
 Gaussian 16:  ES64L-G16RevC.01  3-Jul-2019

 ----------------------------------------------------------------------
 #t hf aug-cc-pvdz iop(5/13=1,5/36=2,99/5=2) pseudo=read geom=check gue
 ss=(read,tcheck) scf=(maxcycle=1)
 ----------------------------------------------------------------------
 -----
 title
 -----
 Structure from the checkpoint file:  "BDE49_nonexpt_985_mol1.chk"
 Charge =  0 Multiplicity = 1

                         Standard orientation:
 ---------------------------------------------------------------------
 Center     Atomic      Atomic             Coordinates (Angstroms)
 Number     Number       Type             X           Y           Z
 ---------------------------------------------------------------------
      1          6           0        1.523583   -0.178841    0.539424
      2         16           0        0.037064   -1.079421   -0.005147
      3          7           0       -1.195075    0.275669    0.010387
      4          8           0       -0.846204    1.377098    0.380272
      5          8           0       -2.297472   -0.064379   -0.357764
      6          6           0        2.205466    0.647553   -0.545669
      7          1           0        2.170777   -0.981755    0.907704
      8          1           0        1.230642    0.427725    1.397234
      9          1           0        2.493477    0.026009   -1.395866
     10          1           0        3.107932    1.115874   -0.141673
     11          1           0        1.544798    1.439169   -0.900345
 ---------------------------------------------------------------------

 SCF Done:  E(RHF) =  -681.741120091     A.U. after    2 cycles

 The electronic state is 1-A.
 Alpha  occ. eigenvalues --  -75.75612 -21.11019 -21.10855 -16.01337 -13.19677
 Alpha  occ. eigenvalues --  -13.16786 -13.08887 -11.45008 -11.38934  -8.09483
 Alpha  occ. eigenvalues --   -2.00737  -1.71073  -1.27640  -1.12494  -0.94750
 Alpha  occ. eigenvalues --   -0.84337  -0.71482  -0.68007  -0.64286  -0.62248
 Alpha  occ. eigenvalues --   -0.60009  -0.54530  -0.52529  -0.42902  -0.32981
 Alpha  occ. eigenvalues --   -0.32791  -0.32202  -0.28056
 Alpha virt. eigenvalues --    0.02718   0.04505   0.05132   0.06255   0.07051
 Alpha virt. eigenvalues --    0.07414   0.09916   0.11081   0.12249   0.12846
 Alpha virt. eigenvalues --    0.14433   0.14720   0.15080   0.15951   0.17226

 Mulliken charges:
               1
     1  C   -3.967234
     2  S    1.518249
     3  N    4.231117
     4  O   -2.554971
     5  O   -2.618092
     6  C   -3.448107
     7  H    1.456752
     8  H    1.577818
     9  H    1.311290
    10  H    1.177498
    11  H    1.315680
 Sum of Mulliken charges =  -0.00000

 Dipole moment (field-independent basis, Debye):
    X=              2.4756    Y=             -1.9095    Z=              0.1629  Tot=              3.1307

 Test job not archived.
 1\1\GINC-SE368\SP\RHF\Aug-CC-pVDZ\C2H5N1O2S1\OHZDE\09-Apr-2025\0\\#t h
 f aug-cc-pvdz iop(5/13=1,5/36=2,99/5=2) pseudo=read geom=check guess=(
 read,tcheck) scf=(maxcycle=1)\\title\\0,1\C,0,1.523583,-0.178841,0.539
 424\S,0,0.037064,-1.079421,-0.005147\N,0,-1.195075,0.275669,0.010387\O
 ,0,-0.846204,1.377098,0.380272\O,0,-2.297472,-0.064379,-0.357764\C,0,2
 .205466,0.647553,-0.545669\H,0,2.170777,-0.981755,0.907704\H,0,1.23064
 2,0.427725,1.397234\H,0,2.493477,0.026009,-1.395866\H,0,3.107932,1.115
 874,-0.141673\H,0,1.544798,1.439169,-0.900345\\Version=ES64L-G16RevC.0

 Normal termination of Gaussian 16 at Wed Apr  9 00:54:29 2025.
