 Gaussian 16, Revision C.01,

 ----------------------------------------------------------------------
 #t hf aug-cc-pvdz symm=none int=(grid=ultrafine) guess=(read,tcheck) s
 table=opt
 ----------------------------------------------------------------------
 -----
 title
 -----
 Symbolic Z-matrix:
 Charge =  0 Multiplicity = 2

 SCF Done:  E(UHF) =  -463.264814503     A.U. after   19 cycles

 1\1\GINC-SE249\Stability\UHF\Aug-CC-pVDZ\F1O1Si1\OHZDE\08-Apr-2025\0\\
 #t hf aug-cc-pvdz symm=none int=(grid=ultrafine) guess=(read,tcheck) s
 table=opt\\title\\0,2\Si,0,0.,0.392016,0.\O,0,1.456381,-0.06585,0.\F,0
 ,-1.294561,-0.551269,0.\\Version=ES64L-G16RevC.01\HF=-463.2648145\S2=0
 .766853\S2-1=0.\S2A=0.750092\RMSD=6.352e-09\Dipole=-1.0828046,0.747863
 9,0.\Quadrupole=-4.5848109,1.5284823,3.0563286,-0.6080787,0.,0.\PG=Unk
 nown\\@
 The archive entry for this job was punched.

 Normal termination of Gaussian 16 at Tue Apr  8 23:56:18 2025.
 Gaussian 16:  ES64L-G16RevC.01  3-Jul-2019

 ----------------------------------------------------------------------
 #t hf aug-cc-pvdz iop(5/13=1,5/36=2,99/5=2) pseudo=read geom=check gue
 ss=(read,tcheck) scf=(maxcycle=1)
 ----------------------------------------------------------------------
 -----
 title
 -----
 Structure from the checkpoint file:  "BDE49_nonexpt_1989_mol2.chk"
 Charge =  0 Multiplicity = 2

                         Standard orientation:
 ---------------------------------------------------------------------
 Center     Atomic      Atomic             Coordinates (Angstroms)
 Number     Number       Type             X           Y           Z
 ---------------------------------------------------------------------
      1         14           0        0.000000    0.392016    0.000000
      2          8           0        1.456381   -0.065850    0.000000
      3          9           0       -1.294561   -0.551269   -0.000000
 ---------------------------------------------------------------------

 SCF Done:  E(UHF) =  -464.029956962     A.U. after    2 cycles

 The electronic state is 2-A'.
 Alpha  occ. eigenvalues --  -76.32314 -29.33001 -21.06777  -5.67621  -2.36464
 Alpha  occ. eigenvalues --   -2.27063  -2.23716  -1.56952  -0.87176  -0.52592
 Alpha  occ. eigenvalues --   -0.45082  -0.43768  -0.40463  -0.36104  -0.33922
 Alpha  occ. eigenvalues --   -0.27312
 Alpha virt. eigenvalues --    0.04256   0.05764   0.07280   0.08900   0.10724
 Alpha virt. eigenvalues --    0.15779   0.19763   0.22493   0.23543   0.24927
 Alpha virt. eigenvalues --    0.26035   0.26388   0.28086   0.30569   0.30802

  Beta  occ. eigenvalues --  -76.31803 -29.32513 -21.05711  -5.66717  -2.35756
  Beta  occ. eigenvalues --   -2.24773  -2.22763  -1.53824  -0.83527  -0.46804
  Beta  occ. eigenvalues --   -0.43131  -0.42471  -0.36203  -0.35909  -0.33146
  Beta virt. eigenvalues --    0.01995   0.05109   0.06788   0.08378   0.11452
  Beta virt. eigenvalues --    0.13929   0.17329   0.21495   0.23253   0.23871
  Beta virt. eigenvalues --    0.25688   0.26127   0.27435   0.28293   0.30776

 Mulliken charges and spin densities:
               1          2
     1  Si   2.732277   0.816455
     2  O   -1.798497   0.201296
     3  F   -0.933780  -0.017751
 Sum of Mulliken charges =  -0.00000   1.00000

 Dipole moment (field-independent basis, Debye):
    X=             -4.2785    Y=             -0.6956    Z=             -0.0000  Tot=              4.3347
                          Isotropic Fermi Contact Couplings
        Atom                 a.u.       MegaHertz       Gauss      10(-4) cm-1
     1  Si(29)             0.43214    -384.05533    -137.04049    -128.10707
     2  O(17)              0.06093     -36.93691     -13.18001     -12.32083
     3  F(19)              0.09073     381.72259     136.20811     127.32895
 --------------------------------------------------------
       Center         ----  Spin Dipole Couplings  ----
                      3XX-RR        3YY-RR        3ZZ-RR
 --------------------------------------------------------
     1   Atom       -0.694122      1.354634     -0.660512

 Normal termination of Gaussian 16 at Tue Apr  8 23:56:20 2025.
