 Gaussian 16, Revision C.01,

 ----------------------------------------------------------------------
 #t hf aug-cc-pvdz symm=none int=(grid=ultrafine) guess=(read,tcheck) s
 table=(opt,rrhf)
 ----------------------------------------------------------------------
 -----
 title
 -----
 Symbolic Z-matrix:
 Charge =  0 Multiplicity = 1

 SCF Done:  E(RHF) =  -855.522639016     A.U. after   16 cycles
 Normal termination of Gaussian 16 at Tue Apr  8 23:20:28 2025.
 Gaussian 16:  ES64L-G16RevC.01  3-Jul-2019

 ----------------------------------------------------------------------
 #t hf aug-cc-pvdz iop(5/13=1,5/36=2,99/5=2) pseudo=read geom=check gue
 ss=(read,tcheck) scf=(maxcycle=1)
 ----------------------------------------------------------------------
 -----
 title
 -----
 Structure from the checkpoint file:  "BDE49_nonexpt_1083_mol1.chk"
 Charge =  0 Multiplicity = 1

                         Standard orientation:
 ---------------------------------------------------------------------
 Center     Atomic      Atomic             Coordinates (Angstroms)
 Number     Number       Type             X           Y           Z
 ---------------------------------------------------------------------
      1         17           0       -2.666796   -0.010775   -0.549304
      2          8           0       -1.633063    0.255759    0.868087
      3          8           0       -0.375186    0.712088    0.471440
      4          6           0        0.505489   -0.385896    0.229770
      5          8           0        0.157747   -1.527376    0.331085
      6          7           0        1.721303    0.098231   -0.119330
      7          6           0        2.074269    1.514297   -0.171551
      8          1           0        1.182359    2.132308   -0.197558
      9          1           0        2.658208    1.702178   -1.076680
     10          1           0        2.678552    1.798742    0.697325
     11          6           0        2.807393   -0.856121   -0.312442
     12          1           0        3.270495   -0.699612   -1.291145
     13          1           0        2.405969   -1.864623   -0.260075
     14          1           0        3.571934   -0.730881    0.462058
 ---------------------------------------------------------------------

 SCF Done:  E(RHF) =  -857.493938075     A.U. after    2 cycles

 The electronic state is 1-A.
 Alpha  occ. eigenvalues --  -99.94873 -21.17413 -21.14538 -21.04817 -15.76970
 Alpha  occ. eigenvalues --  -11.53834 -11.41932 -11.40951 -10.51527  -9.71375
 Alpha  occ. eigenvalues --   -9.70633  -9.70491  -2.03688  -1.73108  -1.51868
 Alpha  occ. eigenvalues --   -1.43239  -1.22654  -1.06735  -1.00484  -0.76723
 Alpha  occ. eigenvalues --   -0.71349  -0.68663  -0.65201  -0.63773  -0.60638
 Alpha  occ. eigenvalues --   -0.58717  -0.57290  -0.55412  -0.54338  -0.54035
 Alpha  occ. eigenvalues --   -0.50307  -0.45643  -0.37799  -0.36314  -0.31877
 Alpha  occ. eigenvalues --   -0.30478
 Alpha virt. eigenvalues --    0.02870   0.03263   0.05000   0.05344   0.06130
 Alpha virt. eigenvalues --    0.06630   0.07948   0.08662   0.10100   0.11934
 Alpha virt. eigenvalues --    0.12573   0.13090   0.13758   0.13964   0.14694

 Mulliken charges:
               1
     1  Cl   0.399145
     2  O   -0.518634
     3  O   -1.511263
     4  C    5.758482
     5  O   -2.700190
     6  N   -2.964664
     7  C   -3.498577
     8  H    1.561012
     9  H    1.412188
    10  H    1.416757
    11  C   -3.525543
    12  H    1.359410
    13  H    1.392055
    14  H    1.419820
 Sum of Mulliken charges =  -0.00000

 Dipole moment (field-independent basis, Debye):
    X=              4.1431    Y=              1.8863    Z=              0.8062  Tot=              4.6231

 Test job not archived.
 1\1\GINC-SE094\SP\RHF\Aug-CC-pVDZ\C3H6Cl1N1O3\OHZDE\08-Apr-2025\0\\#t
 hf aug-cc-pvdz iop(5/13=1,5/36=2,99/5=2) pseudo=read geom=check guess=
 (read,tcheck) scf=(maxcycle=1)\\title\\0,1\Cl,0,-2.666796,-0.010775,-0
 .549304\O,0,-1.633063,0.255759,0.868087\O,0,-0.375186,0.712088,0.47144
 \C,0,0.505489,-0.385896,0.22977\O,0,0.157747,-1.527376,0.331085\N,0,1.
 721303,0.098231,-0.11933\C,0,2.074269,1.514297,-0.171551\H,0,1.182359,
 2.132308,-0.197558\H,0,2.658208,1.702178,-1.07668\H,0,2.678552,1.79874
 2,0.697325\C,0,2.807393,-0.856121,-0.312442\H,0,3.270495,-0.699612,-1.

 Normal termination of Gaussian 16 at Tue Apr  8 23:20:33 2025.
