 Gaussian 16, Revision C.01,

 ----------------------------------------------------------------------
 #t hf aug-cc-pvdz symm=none int=(grid=ultrafine) guess=(read,tcheck) s
 table=opt
 ----------------------------------------------------------------------
 -----
 title
 -----
 Symbolic Z-matrix:
 Charge =  0 Multiplicity = 2

 SCF Done:  E(UHF) =  -535.988929666     A.U. after   15 cycles
 Normal termination of Gaussian 16 at Wed Apr  9 00:21:10 2025.
 Gaussian 16:  ES64L-G16RevC.01  3-Jul-2019

 ----------------------------------------------------------------------
 #t hf aug-cc-pvdz iop(5/13=1,5/36=2,99/5=2) pseudo=read geom=check gue
 ss=(read,tcheck) scf=(maxcycle=1)
 ----------------------------------------------------------------------
 -----
 title
 -----
 Structure from the checkpoint file:  "BDE49_nonexpt_2622_mol2.chk"
 Charge =  0 Multiplicity = 2

                         Standard orientation:
 ---------------------------------------------------------------------
 Center     Atomic      Atomic             Coordinates (Angstroms)
 Number     Number       Type             X           Y           Z
 ---------------------------------------------------------------------
      1         16           0        1.128122   -0.128166    0.000008
      2          6           0       -0.514526    0.549467    0.000006
      3          9           0       -1.523405   -0.399889   -0.000020
      4          1           0       -0.626068    1.176434   -0.892015
      5          1           0       -0.626075    1.176423    0.892035
 ---------------------------------------------------------------------

 SCF Done:  E(UHF) =  -536.707656705     A.U. after    2 cycles

 The electronic state is 2-A.
 Alpha  occ. eigenvalues --  -75.72400 -29.27003 -13.11959 -13.06122 -13.03859
 Alpha  occ. eigenvalues --  -11.47129  -8.06197  -1.26312  -1.01284  -0.70547
 Alpha  occ. eigenvalues --   -0.68241  -0.52908  -0.38857  -0.31688  -0.27906
 Alpha  occ. eigenvalues --   -0.26514  -0.22406
 Alpha virt. eigenvalues --    0.03534   0.05262   0.06274   0.11429   0.12981
 Alpha virt. eigenvalues --    0.14021   0.14607   0.15982   0.16772   0.21218
 Alpha virt. eigenvalues --    0.23613   0.26297   0.26324   0.29233   0.31079

  Beta  occ. eigenvalues --  -75.71408 -29.27028 -13.11401 -13.03269 -13.00152
  Beta  occ. eigenvalues --  -11.47260  -8.05086  -1.23508  -0.94529  -0.70215
  Beta  occ. eigenvalues --   -0.66820  -0.51739  -0.38782  -0.26942  -0.26661
  Beta  occ. eigenvalues --   -0.21515
  Beta virt. eigenvalues --    0.03034   0.03596   0.05758   0.06453   0.11709
  Beta virt. eigenvalues --    0.13124   0.14758   0.15923   0.16257   0.18469
  Beta virt. eigenvalues --    0.21856   0.23808   0.26509   0.27672   0.31442

 Mulliken charges and spin densities:
               1          2
     1  S    0.553866   1.120450
     2  C   -3.773747  -0.142426
     3  F    0.404987  -0.006124
     4  H    1.407451   0.014050
     5  H    1.407443   0.014050
 Sum of Mulliken charges =   0.00000   1.00000

 Dipole moment (field-independent basis, Debye):
    X=             -1.3206    Y=             -0.9280    Z=             -0.0000  Tot=              1.6140
                          Isotropic Fermi Contact Couplings
        Atom                 a.u.       MegaHertz       Gauss      10(-4) cm-1
     1  S(33)              0.27115      93.13377      33.23244      31.06608
     2  C(13)             -0.01560     -17.54171      -6.25932      -5.85128
     3  F(19)             -0.00299     -12.59644      -4.49472      -4.20172
     4  H(1)               0.01216      54.34518      19.39171      18.12760
     5  H(1)               0.01216      54.34434      19.39141      18.12732
 --------------------------------------------------------
       Center         ----  Spin Dipole Couplings  ----
                      3XX-RR        3YY-RR        3ZZ-RR

 Normal termination of Gaussian 16 at Wed Apr  9 00:21:12 2025.
