 Gaussian 16, Revision C.01,

 ----------------------------------------------------------------------
 #t hf aug-cc-pvdz symm=none int=(grid=ultrafine) guess=(read,tcheck) s
 table=(opt,rrhf)
 ----------------------------------------------------------------------
 -----
 title
 -----
 Symbolic Z-matrix:
 Charge =  0 Multiplicity = 1

 SCF Done:  E(RHF) =  -423.202615787     A.U. after   12 cycles
 Normal termination of Gaussian 16 at Wed Apr  9 00:00:27 2025.
 Gaussian 16:  ES64L-G16RevC.01  3-Jul-2019

 ----------------------------------------------------------------------
 #t hf aug-cc-pvdz iop(5/13=1,5/36=2,99/5=2) pseudo=read geom=check gue
 ss=(read,tcheck) scf=(maxcycle=1)
 ----------------------------------------------------------------------
 -----
 title
 -----
 Structure from the checkpoint file:  "BDE49_nonexpt_2089_mol1.chk"
 Charge =  0 Multiplicity = 1

                         Standard orientation:
 ---------------------------------------------------------------------
 Center     Atomic      Atomic             Coordinates (Angstroms)
 Number     Number       Type             X           Y           Z
 ---------------------------------------------------------------------
      1         14           0       -1.668031    0.020100   -0.000003
      2          7           0        0.011914   -0.440206    0.000002
      3          6           0        0.994439    0.358333   -0.000001
      4          6           0        2.424062   -0.099759    0.000006
      5          1           0        2.946359    0.295169   -0.878748
      6          1           0        2.475685   -1.188259    0.000012
      7          1           0        2.946354    0.295180    0.878757
      8          1           0        0.865951    1.457171   -0.000007
      9          1           0       -2.305020   -0.554022    1.205299
     10          1           0       -2.305016   -0.554036   -1.205301
     11          1           0       -1.866290    1.497390   -0.000012
 ---------------------------------------------------------------------

 SCF Done:  E(RHF) =  -424.010316102     A.U. after    2 cycles

 The electronic state is 1-A.
 Alpha  occ. eigenvalues --  -76.22026 -15.71374 -11.45220 -11.37982  -5.55667
 Alpha  occ. eigenvalues --   -2.20784  -2.17495  -2.17487  -1.34131  -1.07753
 Alpha  occ. eigenvalues --   -0.82986  -0.74890  -0.61250  -0.58366  -0.55339
 Alpha  occ. eigenvalues --   -0.51673  -0.48554  -0.46154  -0.41083  -0.34582
 Alpha virt. eigenvalues --    0.03670   0.04852   0.05867   0.06115   0.06861
 Alpha virt. eigenvalues --    0.06870   0.07484   0.07871   0.10130   0.10233
 Alpha virt. eigenvalues --    0.11817   0.12450   0.14248   0.15507   0.15720

 Mulliken charges:
               1
     1  Si   5.623171
     2  N   -3.265796
     3  C    0.695709
     4  C   -3.629821
     5  H    1.212402
     6  H    1.258759
     7  H    1.212403
     8  H    1.735974
     9  H   -1.679315
    10  H   -1.679314
    11  H   -1.484171
 Sum of Mulliken charges =  -0.00000

 Dipole moment (field-independent basis, Debye):
    X=              1.5500    Y=              1.0824    Z=              0.0000  Tot=              1.8905

 Test job not archived.
 1\1\GINC-SE099\SP\RHF\Aug-CC-pVDZ\C2H7N1Si1\OHZDE\09-Apr-2025\0\\#t hf
  aug-cc-pvdz iop(5/13=1,5/36=2,99/5=2) pseudo=read geom=check guess=(r
 ead,tcheck) scf=(maxcycle=1)\\title\\0,1\Si,0,-1.668031,0.0201,-0.0000
 03\N,0,0.011914,-0.440206,0.000002\C,0,0.994439,0.358333,-0.000001\C,0
 ,2.424062,-0.099759,0.000006\H,0,2.946359,0.295169,-0.878748\H,0,2.475
 685,-1.188259,0.000012\H,0,2.946354,0.29518,0.878757\H,0,0.865951,1.45
 7171,-0.000007\H,0,-2.30502,-0.554022,1.205299\H,0,-2.305016,-0.554036
 ,-1.205301\H,0,-1.86629,1.49739,-0.000012\\Version=ES64L-G16RevC.01\St

 Normal termination of Gaussian 16 at Wed Apr  9 00:00:30 2025.
