 Gaussian 16, Revision C.01,

 ----------------------------------------------------------------------
 #t hf aug-cc-pvdz symm=none int=(grid=ultrafine) guess=(read,tcheck) s
 table=(opt,rrhf)
 ----------------------------------------------------------------------
 -----
 title
 -----
 Symbolic Z-matrix:
 Charge =  0 Multiplicity = 1

 SCF Done:  E(RHF) =  -174.327001349     A.U. after   13 cycles
 Normal termination of Gaussian 16 at Wed Apr  9 00:36:50 2025.
 Gaussian 16:  ES64L-G16RevC.01  3-Jul-2019

 ----------------------------------------------------------------------
 #t hf aug-cc-pvdz iop(5/13=1,5/36=2,99/5=2) pseudo=read geom=check gue
 ss=(read,tcheck) scf=(maxcycle=1)
 ----------------------------------------------------------------------
 -----
 title
 -----
 Structure from the checkpoint file:  "BDE49_nonexpt_523_mol1.chk"
 Charge =  0 Multiplicity = 1

                         Standard orientation:
 ---------------------------------------------------------------------
 Center     Atomic      Atomic             Coordinates (Angstroms)
 Number     Number       Type             X           Y           Z
 ---------------------------------------------------------------------
      1          1           0        2.438894    0.398708   -1.053267
      2          5           0        1.911805    0.227130    0.000007
      3          1           0        2.438853    0.398870    1.053273
      4          7           0        0.618669   -0.166276   -0.000005
      5          7           0       -0.492398   -0.635596   -0.000031
      6          6           0       -1.606089    0.339222    0.000020
      7          1           0       -2.217121    0.135789   -0.882410
      8          1           0       -1.249892    1.373064    0.000078
      9          1           0       -2.217127    0.135691    0.882423
 ---------------------------------------------------------------------

 SCF Done:  E(RHF) =  -175.154583433     A.U. after    2 cycles

 The electronic state is 1-A.
 Alpha  occ. eigenvalues --  -15.82077 -15.77866 -11.40277  -7.62058  -1.55956
 Alpha  occ. eigenvalues --   -1.17585  -0.99574  -0.71952  -0.64581  -0.63319
 Alpha  occ. eigenvalues --   -0.58927  -0.54767  -0.51515  -0.42855  -0.33123
 Alpha virt. eigenvalues --    0.03317   0.04121   0.04330   0.05187   0.06756
 Alpha virt. eigenvalues --    0.07489   0.08573   0.11231   0.11665   0.12681
 Alpha virt. eigenvalues --    0.13767   0.14306   0.15267   0.17012   0.17108

 Mulliken charges:
               1
     1  H   -2.717135
     2  B    6.278988
     3  H   -2.717081
     4  N   -3.424856
     5  N    1.445409
     6  C   -2.963396
     7  H    1.356232
     8  H    1.385603
     9  H    1.356237
 Sum of Mulliken charges =   0.00000

 Dipole moment (field-independent basis, Debye):
    X=             -1.7211    Y=              0.6662    Z=              0.0001  Tot=              1.8456

 Test job not archived.
 1\1\GINC-SE141\SP\RHF\Aug-CC-pVDZ\C1H5B1N2\OHZDE\09-Apr-2025\0\\#t hf
 aug-cc-pvdz iop(5/13=1,5/36=2,99/5=2) pseudo=read geom=check guess=(re
 ad,tcheck) scf=(maxcycle=1)\\title\\0,1\H,0,2.438894,0.398708,-1.05326
 7\B,0,1.911805,0.22713,0.000007\H,0,2.438853,0.39887,1.053273\N,0,0.61
 8669,-0.166276,-0.000005\N,0,-0.492398,-0.635596,-0.000031\C,0,-1.6060
 89,0.339222,0.00002\H,0,-2.217121,0.135789,-0.88241\H,0,-1.249892,1.37
 3064,0.000078\H,0,-2.217127,0.135691,0.882423\\Version=ES64L-G16RevC.0
 1\State=1-A\HF=-175.1545834\RMSD=3.686e-01\Dipole=-0.6771401,0.2621207

 Normal termination of Gaussian 16 at Wed Apr  9 00:36:52 2025.
