 Gaussian 16, Revision C.01,

 ----------------------------------------------------------------------
 #t hf aug-cc-pvdz symm=none int=(grid=ultrafine) guess=(read,tcheck) s
 table=(opt,rrhf)
 ----------------------------------------------------------------------
 -----
 title
 -----
 Symbolic Z-matrix:
 Charge =  0 Multiplicity = 1

 SCF Done:  E(RHF) =  -484.842005267     A.U. after   14 cycles
 Normal termination of Gaussian 16 at Wed Apr  9 00:42:10 2025.
 Gaussian 16:  ES64L-G16RevC.01  3-Jul-2019

 ----------------------------------------------------------------------
 #t hf aug-cc-pvdz iop(5/13=1,5/36=2,99/5=2) pseudo=read geom=check gue
 ss=(read,tcheck) scf=(maxcycle=1)
 ----------------------------------------------------------------------
 -----
 title
 -----
 Structure from the checkpoint file:  "BDE49_nonexpt_688_mol1.chk"
 Charge =  0 Multiplicity = 1

                         Standard orientation:
 ---------------------------------------------------------------------
 Center     Atomic      Atomic             Coordinates (Angstroms)
 Number     Number       Type             X           Y           Z
 ---------------------------------------------------------------------
      1          5           0       -1.380939   -1.511694    0.495406
      2         15           0       -0.628331   -0.129408   -0.413935
      3          6           0        1.205293   -0.232767   -0.642992
      4          6           0        2.063722    0.047493    0.596900
      5          1           0        1.477496    0.446648   -1.456872
      6          1           0        1.388314   -1.245297   -1.014374
      7          1           0        1.893140    1.053513    0.988335
      8          1           0        3.127840   -0.031832    0.353145
      9          6           0       -1.039730    1.553200    0.220071
     10          1           0       -2.107037    1.573306    0.447007
     11          1           0       -0.837470    2.307263   -0.543160
     12          1           0       -0.486666    1.806250    1.126176
     13          1           0        1.843205   -0.664655    1.395199
     14          1           0       -0.896802   -2.594580    0.392621
     15          1           0       -2.448070   -1.358576    1.000052
 ---------------------------------------------------------------------

 SCF Done:  E(RHF) =  -485.794101413     A.U. after    2 cycles

 The electronic state is 1-A.
 Alpha  occ. eigenvalues -- -105.14214 -11.40780 -11.37768 -11.36462  -7.59980
 Alpha  occ. eigenvalues --   -2.73684  -1.54104  -1.47995  -1.39872  -1.14216
 Alpha  occ. eigenvalues --   -1.01233  -0.88382  -0.79268  -0.62061  -0.61548
 Alpha  occ. eigenvalues --   -0.56774  -0.56622  -0.54864  -0.50277  -0.49671
 Alpha  occ. eigenvalues --   -0.48063  -0.19061  -0.11638  -0.04120
 Alpha virt. eigenvalues --    0.03098   0.04138   0.04890   0.05756   0.06228
 Alpha virt. eigenvalues --    0.06917   0.07049   0.07354   0.08000   0.08452
 Alpha virt. eigenvalues --    0.09353   0.10099   0.11147   0.12586   0.13388

 Mulliken charges:
               1
     1  B    5.030301
     2  P    5.580374
     3  C   -4.574553
     4  C   -4.160155
     5  H    1.199832
     6  H    1.271065
     7  H    1.387347
     8  H    1.096024
     9  C   -6.319755
    10  H    1.253874
    11  H    1.199547
    12  H    1.227913
    13  H    1.280729
    14  H   -2.644766
    15  H   -2.827777
 Sum of Mulliken charges =   0.00000

 Dipole moment (field-independent basis, Debye):
    X=              2.6544    Y=              6.0415    Z=             -5.8823  Tot=              8.8401

 Test job not archived.
 1\1\GINC-SE435\SP\RHF\Aug-CC-pVDZ\C3H10B1P1\OHZDE\09-Apr-2025\0\\#t hf
  aug-cc-pvdz iop(5/13=1,5/36=2,99/5=2) pseudo=read geom=check guess=(r
 ead,tcheck) scf=(maxcycle=1)\\title\\0,1\B,0,-1.38094,-1.511693,0.4954
 06\P,0,-0.628331,-0.129408,-0.413935\C,0,1.205293,-0.232767,-0.642992\
 C,0,2.063722,0.047492,0.5969\H,0,1.477496,0.446648,-1.456872\H,0,1.388
 313,-1.245297,-1.014374\H,0,1.89314,1.053513,0.988335\H,0,3.12784,-0.0
 31833,0.353145\C,0,-1.03973,1.5532,0.220071\H,0,-2.107037,1.573307,0.4
 47007\H,0,-0.837469,2.307263,-0.54316\H,0,-0.486666,1.80625,1.126176\H

 Normal termination of Gaussian 16 at Wed Apr  9 00:42:14 2025.
