 Gaussian 16, Revision C.01,

 ----------------------------------------------------------------------
 #t hf aug-cc-pvdz symm=none int=(grid=ultrafine) guess=(read,tcheck) s
 table=(opt,rrhf)
 ----------------------------------------------------------------------
 -----
 title
 -----
 Symbolic Z-matrix:
 Charge =  0 Multiplicity = 1

 SCF Done:  E(RHF) =  -803.546067176     A.U. after   15 cycles
 Normal termination of Gaussian 16 at Tue Apr  8 22:43:19 2025.
 Gaussian 16:  ES64L-G16RevC.01  3-Jul-2019

 ----------------------------------------------------------------------
 #t hf aug-cc-pvdz iop(5/13=1,5/36=2,99/5=2) pseudo=read geom=check gue
 ss=(read,tcheck) scf=(maxcycle=1)
 ----------------------------------------------------------------------
 -----
 title
 -----
 Structure from the checkpoint file:  "BDE49_expt_1401_mol1.chk"
 Charge =  0 Multiplicity = 1

                         Standard orientation:
 ---------------------------------------------------------------------
 Center     Atomic      Atomic             Coordinates (Angstroms)
 Number     Number       Type             X           Y           Z
 ---------------------------------------------------------------------
      1          6           0        1.361789    1.344779   -0.000001
      2          6           0        1.146528   -0.024893   -0.000001
      3          6           0       -0.132703   -0.578530    0.000000
      4          6           0        0.245686    2.184911    0.000000
      5          6           0       -1.040379    1.668573    0.000000
      6          6           0       -1.234871    0.280754    0.000000
      7          1           0        2.367240    1.742850   -0.000001
      8         17           0        2.527954   -1.113900   -0.000001
      9          1           0       -0.245836   -1.652392    0.000000
     10          1           0        0.390134    3.259152   -0.000001
     11          1           0       -1.911347    2.311596    0.000000
     12          8           0       -2.528859   -0.137778    0.000001
     13          6           0       -2.794256   -1.534510    0.000002
     14          1           0       -3.878635   -1.629598    0.000003
     15          1           0       -2.388328   -2.019787    0.894449
     16          1           0       -2.388330   -2.019788   -0.894444
 ---------------------------------------------------------------------

 SCF Done:  E(RHF) =  -805.395525825     A.U. after    2 cycles

 The electronic state is 1-A.
 Alpha  occ. eigenvalues --  -99.89424 -21.08361 -11.53641 -11.47996 -11.45297
 Alpha  occ. eigenvalues --  -11.42773 -11.42354 -11.41707 -11.38214 -10.46760
 Alpha  occ. eigenvalues --   -9.66790  -9.65919  -9.65728  -1.79818  -1.39095
 Alpha  occ. eigenvalues --   -1.26903  -1.10191  -1.09117  -0.99896  -0.87743
 Alpha  occ. eigenvalues --   -0.84820  -0.72386  -0.67028  -0.64656  -0.63240
 Alpha  occ. eigenvalues --   -0.62142  -0.59615  -0.57422  -0.56141  -0.51139
 Alpha  occ. eigenvalues --   -0.50694  -0.49296  -0.45985  -0.41549  -0.40353
 Alpha  occ. eigenvalues --   -0.34265  -0.27329
 Alpha virt. eigenvalues --    0.03068   0.04894   0.05474   0.05759   0.06323
 Alpha virt. eigenvalues --    0.06375   0.07729   0.08704   0.09374   0.09554
 Alpha virt. eigenvalues --    0.11882   0.12261   0.12347   0.13849   0.13868

 Mulliken charges:
               1
     1  C   -1.986390
     2  C   -0.477407
     3  C   -2.195138
     4  C    0.735537
     5  C   -4.131771
     6  C    6.146986
     7  H    1.694696
     8  Cl  -0.800793
     9  H    1.839804
    10  H    1.467179
    11  H    1.820384
    12  O   -4.725319
    13  C   -3.550094
    14  H    1.423203
    15  H    1.369560
    16  H    1.369562
 Sum of Mulliken charges =   0.00000

 Dipole moment (field-independent basis, Debye):
    X=             -2.6654    Y=              0.6478    Z=              0.0000  Tot=              2.7430

 Test job not archived.
 1\1\GINC-SE460\SP\RHF\Aug-CC-pVDZ\C7H7Cl1O1\OHZDE\08-Apr-2025\0\\#t hf
  aug-cc-pvdz iop(5/13=1,5/36=2,99/5=2) pseudo=read geom=check guess=(r
 ead,tcheck) scf=(maxcycle=1)\\title\\0,1\C,0,1.361789,1.344779,-0.0000
 01\C,0,1.146528,-0.024893,-0.000001\C,0,-0.132703,-0.57853,0.\C,0,0.24
 5686,2.184911,0.\C,0,-1.040379,1.668573,0.\C,0,-1.234871,0.280754,0.\H
 ,0,2.36724,1.74285,-0.000001\Cl,0,2.527954,-1.1139,-0.000001\H,0,-0.24
 5836,-1.652392,0.\H,0,0.390134,3.259152,-0.000001\H,0,-1.911347,2.3115
 96,0.\O,0,-2.528859,-0.137778,0.000001\C,0,-2.794256,-1.53451,0.000002

 Normal termination of Gaussian 16 at Tue Apr  8 22:43:26 2025.
