 Gaussian 16, Revision C.01,

 ----------------------------------------------------------------------
 #t hf aug-cc-pvdz symm=none int=(grid=ultrafine) guess=(read,tcheck) s
 table=(opt,rrhf)
 ----------------------------------------------------------------------
 -----
 title
 -----
 Symbolic Z-matrix:
 Charge =  0 Multiplicity = 1

 SCF Done:  E(RHF) =  -1018.84737122     A.U. after   15 cycles
 Normal termination of Gaussian 16 at Tue Apr  8 23:48:35 2025.
 Gaussian 16:  ES64L-G16RevC.01  3-Jul-2019

 ----------------------------------------------------------------------
 #t hf aug-cc-pvdz iop(5/13=1,5/36=2,99/5=2) pseudo=read geom=check gue
 ss=(read,tcheck) scf=(maxcycle=1)
 ----------------------------------------------------------------------
 -----
 title
 -----
 Structure from the checkpoint file:  "BDE49_nonexpt_1774_mol1.chk"
 Charge =  0 Multiplicity = 1

                         Standard orientation:
 ---------------------------------------------------------------------
 Center     Atomic      Atomic             Coordinates (Angstroms)
 Number     Number       Type             X           Y           Z
 ---------------------------------------------------------------------
      1          6           0       -0.530990   -1.201861   -0.283885
      2          6           0       -1.890308   -1.200087    0.009912
      3          6           0       -2.593489    0.000001    0.160104
      4          6           0       -1.890308    1.200089    0.009913
      5          6           0       -0.530989    1.201862   -0.283883
      6          6           0        0.178215    0.000001   -0.435673
      7          1           0       -0.018147   -2.152324   -0.393863
      8          1           0       -2.414166   -2.143617    0.125508
      9         14           0        1.995880    0.000002   -0.818204
     10          6           0       -4.074456   -0.000002    0.447819
     11          1           0       -0.018146    2.152326   -0.393859
     12         17           0        3.150368   -0.000002    0.930150
     13          1           0       -4.370209   -0.884792    1.015790
     14          1           0       -4.651899   -0.000110   -0.483223
     15          1           0       -4.370248    0.884888    1.015613
     16          1           0       -2.414166    2.143618    0.125511
     17          1           0        2.376182    1.219433   -1.557504
     18          1           0        2.376182   -1.219426   -1.557509
 ---------------------------------------------------------------------

 SCF Done:  E(RHF) =  -1020.56578715     A.U. after    2 cycles

 The electronic state is 1-A.
 Alpha  occ. eigenvalues --  -99.87238 -76.25540 -11.51452 -11.44184 -11.43814
 Alpha  occ. eigenvalues --  -11.41350 -11.41159 -11.39436 -11.36535 -10.44608
 Alpha  occ. eigenvalues --   -9.64533  -9.63928  -9.63890  -5.59119  -2.23643
 Alpha  occ. eigenvalues --   -2.22127  -2.21106  -1.35715  -1.27439  -1.15135
 Alpha  occ. eigenvalues --   -1.09889  -1.00247  -0.87366  -0.84480  -0.77703
 Alpha  occ. eigenvalues --   -0.67209  -0.64294  -0.61628  -0.58381  -0.58353
 Alpha  occ. eigenvalues --   -0.54994  -0.54750  -0.53611  -0.52338  -0.49489
 Alpha  occ. eigenvalues --   -0.49154  -0.46598  -0.44507  -0.39777  -0.33736
 Alpha  occ. eigenvalues --   -0.33472
 Alpha virt. eigenvalues --    0.03128   0.04487   0.05103   0.05123   0.05520
 Alpha virt. eigenvalues --    0.06365   0.06656   0.07308   0.07573   0.08899
 Alpha virt. eigenvalues --    0.09095   0.09690   0.10169   0.11077   0.11098

 Mulliken charges:
               1
     1  C   -3.102419
     2  C   -0.517522
     3  C    3.011910
     4  C   -0.517380
     5  C   -3.102373
     6  C   -1.224786
     7  H    1.913936
     8  H    1.838836
     9  Si   4.652449
    10  C   -5.750969
    11  H    1.913935
    12  Cl  -0.978234
    13  H    1.128599
    14  H    1.152389
    15  H    1.128663
    16  H    1.838842
    17  H   -1.692937
    18  H   -1.692939
 Sum of Mulliken charges =   0.00000

 Dipole moment (field-independent basis, Debye):
    X=             -3.2036    Y=             -0.0000    Z=             -0.8527  Tot=              3.3151

 Test job not archived.
 1\1\GINC-SE284\SP\RHF\Aug-CC-pVDZ\C7H9Cl1Si1\OHZDE\08-Apr-2025\0\\#t h
 f aug-cc-pvdz iop(5/13=1,5/36=2,99/5=2) pseudo=read geom=check guess=(
 read,tcheck) scf=(maxcycle=1)\\title\\0,1\C,0,-0.53099,-1.201861,-0.28
 3885\C,0,-1.890308,-1.200087,0.009912\C,0,-2.593489,0.000001,0.160104\
 C,0,-1.890308,1.200089,0.009913\C,0,-0.530989,1.201862,-0.283883\C,0,0
 .178215,0.000001,-0.435673\H,0,-0.018147,-2.152324,-0.393863\H,0,-2.41
 4166,-2.143617,0.125508\Si,0,1.99588,0.000002,-0.818204\C,0,-4.074456,
 -0.000002,0.447819\H,0,-0.018146,2.152326,-0.393859\Cl,0,3.150368,-0.0

 Normal termination of Gaussian 16 at Tue Apr  8 23:48:44 2025.
