 Gaussian 16, Revision C.01,

 ----------------------------------------------------------------------
 #t hf aug-cc-pvdz symm=none int=(grid=ultrafine) guess=(read,tcheck) s
 table=(opt,rrhf)
 ----------------------------------------------------------------------
 -----
 title
 -----
 Symbolic Z-matrix:
 Charge =  0 Multiplicity = 1

 SCF Done:  E(RHF) =  -537.063622658     A.U. after   13 cycles
 Normal termination of Gaussian 16 at Tue Apr  8 22:55:59 2025.
 Gaussian 16:  ES64L-G16RevC.01  3-Jul-2019

 ----------------------------------------------------------------------
 #t hf aug-cc-pvdz iop(5/13=1,5/36=2,99/5=2) pseudo=read geom=check gue
 ss=(read,tcheck) scf=(maxcycle=1)
 ----------------------------------------------------------------------
 -----
 title
 -----
 Structure from the checkpoint file:  "BDE49_expt_1815_mol1.chk"
 Charge =  0 Multiplicity = 1

                         Standard orientation:
 ---------------------------------------------------------------------
 Center     Atomic      Atomic             Coordinates (Angstroms)
 Number     Number       Type             X           Y           Z
 ---------------------------------------------------------------------
      1         14           0       -0.327856   -0.000003    0.048194
      2          7           0        1.265198    0.000050   -0.921980
      3          8           0        2.287063    0.000013   -0.258061
      4          6           0       -1.208007    1.550360   -0.531915
      5          1           0       -0.680293    2.452800   -0.211340
      6          1           0       -2.221661    1.591176   -0.120951
      7          1           0       -1.284943    1.572818   -1.622168
      8          6           0       -1.208017   -1.550291   -0.532098
      9          1           0       -1.284955   -1.572618   -1.622354
     10          1           0       -2.221671   -1.591150   -0.121138
     11          1           0       -0.680308   -2.452773   -0.211632
     12          6           0        0.010853   -0.000113    1.887230
     13          1           0        0.584750    0.882225    2.181801
     14          1           0        0.584734   -0.882494    2.181699
     15          1           0       -0.927541   -0.000137    2.450416
 ---------------------------------------------------------------------

 SCF Done:  E(RHF) =  -538.382955873     A.U. after    2 cycles

 The electronic state is 1-A.
 Alpha  occ. eigenvalues --  -76.21599 -21.11514 -15.81389 -11.35808 -11.35787
 Alpha  occ. eigenvalues --  -11.35518  -5.55910  -2.19757  -2.19496  -2.19435
 Alpha  occ. eigenvalues --   -1.81942  -1.10038  -1.02401  -1.02349  -0.97249
 Alpha  occ. eigenvalues --   -0.67043  -0.59231  -0.57981  -0.57751  -0.56681
 Alpha  occ. eigenvalues --   -0.56269  -0.54596  -0.53397  -0.50583  -0.49549
 Alpha  occ. eigenvalues --   -0.40521  -0.40492  -0.23128
 Alpha virt. eigenvalues --    0.02494   0.05041   0.05291   0.05638   0.06430
 Alpha virt. eigenvalues --    0.06563   0.07085   0.07194   0.08477   0.08508
 Alpha virt. eigenvalues --    0.10122   0.10185   0.10562   0.12550   0.14204

 Mulliken charges:
               1
     1  Si   8.106610
     2  N   -0.334556
     3  O   -1.327479
     4  C   -5.529277
     5  H    1.102154
     6  H    1.201652
     7  H    1.198816
     8  C   -5.529277
     9  H    1.198815
    10  H    1.201651
    11  H    1.102156
    12  C   -5.782265
    13  H    1.130873
    14  H    1.130875
    15  H    1.129251
 Sum of Mulliken charges =   0.00000

 Dipole moment (field-independent basis, Debye):
    X=             -1.7851    Y=             -0.0001    Z=              1.5392  Tot=              2.3570

 Test job not archived.
 1\1\GINC-SE036\SP\RHF\Aug-CC-pVDZ\C3H9N1O1Si1\OHZDE\08-Apr-2025\0\\#t
 hf aug-cc-pvdz iop(5/13=1,5/36=2,99/5=2) pseudo=read geom=check guess=
 (read,tcheck) scf=(maxcycle=1)\\title\\0,1\Si,0,-0.327856,-0.000003,0.
 048194\N,0,1.265198,0.00005,-0.92198\O,0,2.287063,0.000013,-0.258061\C
 ,0,-1.208007,1.55036,-0.531915\H,0,-0.680293,2.4528,-0.21134\H,0,-2.22
 1661,1.591176,-0.120951\H,0,-1.284943,1.572818,-1.622168\C,0,-1.208017
 ,-1.550291,-0.532098\H,0,-1.284955,-1.572618,-1.622354\H,0,-2.221671,-
 1.59115,-0.121138\H,0,-0.680308,-2.452773,-0.211632\C,0,0.010853,-0.00

 Normal termination of Gaussian 16 at Tue Apr  8 22:56:04 2025.
