 Gaussian 16, Revision C.01,

 ----------------------------------------------------------------------
 #t hf aug-cc-pvdz symm=none int=(grid=ultrafine) guess=(read,tcheck) s
 table=(opt,rrhf)
 ----------------------------------------------------------------------
 -----
 title
 -----
 Symbolic Z-matrix:
 Charge =  0 Multiplicity = 1

 SCF Done:  E(RHF) =  -246.940795651     A.U. after   14 cycles
 Normal termination of Gaussian 16 at Tue Apr  8 22:39:28 2025.
 Gaussian 16:  ES64L-G16RevC.01  3-Jul-2019

 ----------------------------------------------------------------------
 #t hf aug-cc-pvdz iop(5/13=1,5/36=2,99/5=2) pseudo=read geom=check gue
 ss=(read,tcheck) scf=(maxcycle=1)
 ----------------------------------------------------------------------
 -----
 title
 -----
 Structure from the checkpoint file:  "BDE49_expt_1232_mol1.chk"
 Charge =  0 Multiplicity = 1

                         Standard orientation:
 ---------------------------------------------------------------------
 Center     Atomic      Atomic             Coordinates (Angstroms)
 Number     Number       Type             X           Y           Z
 ---------------------------------------------------------------------
      1          6           0        0.310122    0.000000   -0.326776
      2          7           0       -0.952476    0.000000    0.486172
      3          8           0       -1.958461   -0.000000   -0.172010
      4          6           0        1.071371   -1.275209    0.042815
      5          1           0        0.502136   -2.166182   -0.232231
      6          1           0        1.266916   -1.309718    1.117587
      7          6           0        1.071371    1.275208    0.042815
      8          1           0        0.023138    0.000000   -1.383422
      9          1           0        1.266916    1.309718    1.117587
     10          1           0        0.502136    2.166182   -0.232230
     11          1           0        2.028302    1.304652   -0.483773
     12          1           0        2.028301   -1.304651   -0.483773
 ---------------------------------------------------------------------

 SCF Done:  E(RHF) =  -248.088155609     A.U. after    2 cycles

 The electronic state is 1-A.
 Alpha  occ. eigenvalues --  -21.12040 -15.85052 -11.44440 -11.40488 -11.37082
 Alpha  occ. eigenvalues --   -1.85467  -1.27001  -1.02491  -0.99910  -0.81879
 Alpha  occ. eigenvalues --   -0.65198  -0.63286  -0.60068  -0.55603  -0.55521
 Alpha  occ. eigenvalues --   -0.51489  -0.51159  -0.46437  -0.44481  -0.26710
 Alpha virt. eigenvalues --    0.03721   0.05420   0.05747   0.06089   0.06252
 Alpha virt. eigenvalues --    0.06768   0.06986   0.11617   0.12127   0.13234
 Alpha virt. eigenvalues --    0.13523   0.14793   0.15194   0.15548   0.16704

 Mulliken charges:
               1
     1  C   -2.132765
     2  N    0.900996
     3  O   -2.084813
     4  C   -3.027144
     5  H    1.268599
     6  H    1.278654
     7  C   -3.027140
     8  H    1.749508
     9  H    1.278654
    10  H    1.268599
    11  H    1.263426
    12  H    1.263427
 Sum of Mulliken charges =  -0.00000

 Dipole moment (field-independent basis, Debye):
    X=              1.2878    Y=             -0.0000    Z=             -0.9239  Tot=              1.5849

 Test job not archived.
 1\1\GINC-SE342\SP\RHF\Aug-CC-pVDZ\C3H7N1O1\OHZDE\08-Apr-2025\0\\#t hf
 aug-cc-pvdz iop(5/13=1,5/36=2,99/5=2) pseudo=read geom=check guess=(re
 ad,tcheck) scf=(maxcycle=1)\\title\\0,1\C,0,-0.310122,0.,-0.326776\N,0
 ,0.952476,0.,0.486172\O,0,1.958461,0.,-0.17201\C,0,-1.071371,1.275209,
 0.042815\H,0,-0.502136,2.166182,-0.232231\H,0,-1.266916,1.309718,1.117
 587\C,0,-1.071371,-1.275208,0.042815\H,0,-0.023138,0.,-1.383422\H,0,-1
 .266916,-1.309718,1.117587\H,0,-0.502137,-2.166182,-0.23223\H,0,-2.028
 302,-1.304651,-0.483773\H,0,-2.028301,1.304652,-0.483773\\Version=ES64

 Normal termination of Gaussian 16 at Tue Apr  8 22:39:31 2025.
