 Gaussian 16, Revision C.01,

 ----------------------------------------------------------------------
 #t hf aug-cc-pvdz symm=none int=(grid=ultrafine) guess=(read,tcheck) s
 table=(opt,rrhf)
 ----------------------------------------------------------------------
 -----
 title
 -----
 Symbolic Z-matrix:
 Charge =  0 Multiplicity = 1

 SCF Done:  E(RHF) =  -1262.74366436     A.U. after   16 cycles
 Normal termination of Gaussian 16 at Wed Apr  9 00:52:12 2025.
 Gaussian 16:  ES64L-G16RevC.01  3-Jul-2019

 ----------------------------------------------------------------------
 #t hf aug-cc-pvdz iop(5/13=1,5/36=2,99/5=2) pseudo=read geom=check gue
 ss=(read,tcheck) scf=(maxcycle=1)
 ----------------------------------------------------------------------
 -----
 title
 -----
 Structure from the checkpoint file:  "BDE49_nonexpt_885_mol1.chk"
 Charge =  0 Multiplicity = 1

                         Standard orientation:
 ---------------------------------------------------------------------
 Center     Atomic      Atomic             Coordinates (Angstroms)
 Number     Number       Type             X           Y           Z
 ---------------------------------------------------------------------
      1          6           0       -0.087315   -0.360781    0.037172
      2          6           0        0.747391    0.763216   -0.140714
      3          6           0        2.141213    0.643669   -0.104700
      4          1           0        2.760366    1.519878   -0.250792
      5          6           0        2.699608   -0.599939    0.107448
      6          6           0        1.915696   -1.734741    0.276700
      7          1           0        2.392170   -2.694706    0.433058
      8          6           0        0.531529   -1.607288    0.234635
      9          1           0       -0.077166   -2.495230    0.363912
     10          5           0       -1.657036   -0.300886    0.054916
     11         16           0       -2.607649    0.287092    1.483260
     12         16           0       -2.529627   -0.937726   -1.397619
     13          6           0        0.171095    2.108803   -0.405841
     14          1           0       -0.935153    2.141324   -0.477796
     15          8           0        0.827092    3.114032   -0.545770
     16          9           0        4.041294   -0.725927    0.145311
     17          1           0       -1.565997    0.591162    2.277307
     18          1           0       -3.796309   -0.804405   -0.960354
 ---------------------------------------------------------------------

 SCF Done:  E(RHF) =  -1265.19187540     A.U. after    2 cycles

 The electronic state is 1-A.
 Alpha  occ. eigenvalues --  -75.71481 -75.71305 -29.29834 -21.07308 -13.19621
 Alpha  occ. eigenvalues --  -13.18050 -13.13868 -13.11887 -13.09441 -13.06920
 Alpha  occ. eigenvalues --  -11.55536 -11.50334 -11.48949 -11.46007 -11.45487
 Alpha  occ. eigenvalues --  -11.43783 -11.40048  -8.05518  -8.05086  -7.71923
 Alpha  occ. eigenvalues --   -1.72076  -1.40095  -1.24363  -1.17009  -1.14082
 Alpha  occ. eigenvalues --   -1.11633  -0.96502  -0.95211  -0.84572  -0.76916
 Alpha  occ. eigenvalues --   -0.75373  -0.66739  -0.63184  -0.61472  -0.59477
 Alpha  occ. eigenvalues --   -0.58179  -0.55414  -0.55096  -0.50463  -0.48593
 Alpha  occ. eigenvalues --   -0.47895  -0.42529  -0.40375  -0.38884  -0.36631
 Alpha  occ. eigenvalues --   -0.35555  -0.34557  -0.30447  -0.28524  -0.26938
 Alpha  occ. eigenvalues --   -0.24370
 Alpha virt. eigenvalues --    0.01817   0.02535   0.03385   0.03658   0.05631
 Alpha virt. eigenvalues --    0.06737   0.07104   0.07913   0.08110   0.08603
 Alpha virt. eigenvalues --    0.09473   0.10513   0.10906   0.11169   0.11323

 Mulliken charges:
               1
     1  C    0.159481
     2  C    5.086542
     3  C   -5.550690
     4  H    1.888993
     5  C    3.965870
     6  C   -5.363569
     7  H    1.705554
     8  C   -1.306267
     9  H    1.777069
    10  B    5.607674
    11  S   -3.595254
    12  S   -3.483855
    13  C   -0.756804
    14  H    1.097956
    15  O   -3.359304
    16  F    0.662618
    17  H    0.713441
    18  H    0.750545
 Sum of Mulliken charges =   0.00000

 Dipole moment (field-independent basis, Debye):
    X=              0.8247    Y=             -2.2999    Z=             -0.6837  Tot=              2.5371

 Test job not archived.
 1\1\GINC-SE097\SP\RHF\Aug-CC-pVDZ\C7H6B1F1O1S2\OHZDE\09-Apr-2025\0\\#t
  hf aug-cc-pvdz iop(5/13=1,5/36=2,99/5=2) pseudo=read geom=check guess
 =(read,tcheck) scf=(maxcycle=1)\\title\\0,1\C,0,-0.087315,-0.360781,0.
 037172\C,0,0.747391,0.763216,-0.140714\C,0,2.141213,0.643669,-0.1047\H
 ,0,2.760366,1.519878,-0.250792\C,0,2.699608,-0.599939,0.107448\C,0,1.9
 15696,-1.734741,0.2767\H,0,2.39217,-2.694706,0.433058\C,0,0.531529,-1.
 607288,0.234635\H,0,-0.077166,-2.49523,0.363912\B,0,-1.657036,-0.30088
 6,0.054916\S,0,-2.607649,0.287092,1.48326\S,0,-2.529627,-0.937726,-1.3

 Normal termination of Gaussian 16 at Wed Apr  9 00:52:25 2025.
