 Gaussian 16, Revision C.01,

 ----------------------------------------------------------------------
 #t hf aug-cc-pvdz symm=none int=(grid=ultrafine) guess=(read,tcheck) s
 table=(opt,rrhf)
 ----------------------------------------------------------------------
 -----
 title
 -----
 Symbolic Z-matrix:
 Charge =  0 Multiplicity = 1

 SCF Done:  E(RHF) =  -734.067067836     A.U. after   16 cycles
 Normal termination of Gaussian 16 at Wed Apr  9 00:56:47 2025.
 Gaussian 16:  ES64L-G16RevC.01  3-Jul-2019

 ----------------------------------------------------------------------
 #t hf aug-cc-pvdz iop(5/13=1,5/36=2,99/5=2) pseudo=read geom=check gue
 ss=(read,tcheck) scf=(maxcycle=1)
 ----------------------------------------------------------------------
 -----
 title
 -----
 Structure from the checkpoint file:  "BDE49_nonexpt_978_mol1.chk"
 Charge =  0 Multiplicity = 1

                         Standard orientation:
 ---------------------------------------------------------------------
 Center     Atomic      Atomic             Coordinates (Angstroms)
 Number     Number       Type             X           Y           Z
 ---------------------------------------------------------------------
      1          6           0        1.052696   -0.087706    0.000015
      2          6           0        1.694315    1.158315    0.000039
      3          1           0        1.112964    2.066030    0.000080
      4          6           0        3.085130    1.196985    0.000008
      5          1           0        3.578279    2.162156    0.000026
      6          6           0        3.839284    0.026773   -0.000045
      7          1           0        4.921696    0.072572   -0.000068
      8          6           0        3.187113   -1.203018   -0.000067
      9          1           0        3.758194   -2.124117   -0.000108
     10          6           0        1.798363   -1.271502   -0.000039
     11          1           0        1.298216   -2.228167   -0.000057
     12          7           0       -0.363346   -0.171147    0.000045
     13          9           0       -0.842086   -1.471790    0.000012
     14          6           0       -1.339726    0.788276    0.000055
     15          8           0       -1.102129    1.979198   -0.000051
     16          6           0       -2.802979    0.302861   -0.000029
     17          9           0       -3.076430   -0.444253   -1.104214
     18          9           0       -3.076647   -0.443975    1.104290
     19          1           0       -3.437603    1.190236   -0.000198
 ---------------------------------------------------------------------

 SCF Done:  E(RHF) =  -737.051437285     A.U. after    2 cycles

 The electronic state is 1-A.
 Alpha  occ. eigenvalues --  -29.32327 -29.30665 -29.30632 -21.08170 -15.85957
 Alpha  occ. eigenvalues --  -11.59084 -11.55043 -11.53590 -11.47864 -11.44911
 Alpha  occ. eigenvalues --  -11.42617 -11.42335 -11.38243  -1.76494  -1.53197
 Alpha  occ. eigenvalues --   -1.34934  -1.30080  -1.11271  -1.11218  -0.95255
 Alpha  occ. eigenvalues --   -0.90729  -0.86064  -0.83401  -0.80264  -0.77873
 Alpha  occ. eigenvalues --   -0.72171  -0.69475  -0.65566  -0.61420  -0.60284
 Alpha  occ. eigenvalues --   -0.58771  -0.55461  -0.51813  -0.49924  -0.47121
 Alpha  occ. eigenvalues --   -0.46075  -0.45835  -0.42933  -0.39557  -0.39196
 Alpha  occ. eigenvalues --   -0.35637  -0.34558  -0.33970  -0.31191  -0.28997
 Alpha  occ. eigenvalues --   -0.24547  -0.23620  -0.22286
 Alpha virt. eigenvalues --    0.03443   0.05021   0.05169   0.05603   0.06860
 Alpha virt. eigenvalues --    0.07164   0.09586   0.10664   0.10691   0.10923
 Alpha virt. eigenvalues --    0.11523   0.11833   0.12598   0.12711   0.12886

 Mulliken charges:
               1
     1  C    2.802352
     2  C   -2.838237
     3  H    2.030260
     4  C   -0.637077
     5  H    1.485155
     6  C   -3.072020
     7  H    1.569821
     8  C   -0.614213
     9  H    1.476771
    10  C   -2.143806
    11  H    1.914478
    12  N   -2.555155
    13  F   -0.593142
    14  C    3.730740
    15  O   -3.594691
    16  C   -0.889122
    17  F    0.163445
    18  F    0.163436
    19  H    1.601006
 Sum of Mulliken charges =  -0.00000

 Dipole moment (field-independent basis, Debye):
    X=             -0.5077    Y=             -4.3870    Z=             -0.0000  Tot=              4.4163

 Test job not archived.
 1\1\GINC-SE044\SP\RHF\Aug-CC-pVDZ\C8H6F3N1O1\OHZDE\09-Apr-2025\0\\#t h
 f aug-cc-pvdz iop(5/13=1,5/36=2,99/5=2) pseudo=read geom=check guess=(
 read,tcheck) scf=(maxcycle=1)\\title\\0,1\C,0,-1.052696,-0.087706,-0.0
 00015\C,0,-1.694315,1.158315,-0.000039\H,0,-1.112964,2.06603,-0.00008\
 C,0,-3.08513,1.196985,-0.000008\H,0,-3.578279,2.162156,-0.000026\C,0,-
 3.839284,0.026773,0.000045\H,0,-4.921696,0.072572,0.000068\C,0,-3.1871
 13,-1.203018,0.000067\H,0,-3.758194,-2.124117,0.000108\C,0,-1.798363,-
 1.271502,0.000039\H,0,-1.298216,-2.228167,0.000057\N,0,0.363346,-0.171

 Normal termination of Gaussian 16 at Wed Apr  9 00:56:59 2025.
