 Gaussian 16, Revision C.01,

 ----------------------------------------------------------------------
 #t hf aug-cc-pvdz symm=none int=(grid=ultrafine) guess=(read,tcheck) s
 table=(opt,rrhf)
 ----------------------------------------------------------------------
 -----
 title
 -----
 Symbolic Z-matrix:
 Charge =  0 Multiplicity = 1

 SCF Done:  E(RHF) =  -371.594730880     A.U. after   11 cycles
 Normal termination of Gaussian 16 at Wed Apr  9 00:46:54 2025.
 Gaussian 16:  ES64L-G16RevC.01  3-Jul-2019

 ----------------------------------------------------------------------
 #t hf aug-cc-pvdz iop(5/13=1,5/36=2,99/5=2) pseudo=read geom=check gue
 ss=(read,tcheck) scf=(maxcycle=1)
 ----------------------------------------------------------------------
 -----
 title
 -----
 Structure from the checkpoint file:  "BDE49_nonexpt_821_mol1.chk"
 Charge =  0 Multiplicity = 1

                         Standard orientation:
 ---------------------------------------------------------------------
 Center     Atomic      Atomic             Coordinates (Angstroms)
 Number     Number       Type             X           Y           Z
 ---------------------------------------------------------------------
      1         14           0       -1.181496   -0.069171   -0.000000
      2          5           0        0.724151    0.610842    0.000020
      3          7           0        1.799232   -0.269166   -0.000009
      4          1           0        1.698819   -1.273527   -0.000030
      5          1           0        2.762338    0.035421   -0.000014
      6          1           0        0.968357    1.780941    0.000020
      7          1           0       -1.247551   -1.557746   -0.000021
      8          1           0       -1.928194    0.406644   -1.194591
      9          1           0       -1.928201    0.406611    1.194600
 ---------------------------------------------------------------------

 SCF Done:  E(RHF) =  -372.144508083     A.U. after    2 cycles

 The electronic state is 1-A.
 Alpha  occ. eigenvalues --  -76.19131 -15.74036  -7.59941  -5.52700  -2.15330
 Alpha  occ. eigenvalues --   -2.14695  -2.14642  -1.32554  -0.83615  -0.72800
 Alpha  occ. eigenvalues --   -0.67306  -0.52045  -0.46010  -0.45344  -0.42057
 Alpha  occ. eigenvalues --   -0.35878
 Alpha virt. eigenvalues --    0.03172   0.03671   0.04563   0.04867   0.07727
 Alpha virt. eigenvalues --    0.08865   0.09031   0.09055   0.09715   0.10522
 Alpha virt. eigenvalues --    0.10664   0.11956   0.12429   0.13601   0.16745

 Mulliken charges:
               1
     1  Si   5.944577
     2  B    2.578468
     3  N   -2.544225
     4  H    0.907363
     5  H    0.811745
     6  H   -2.723233
     7  H   -1.647123
     8  H   -1.663787
     9  H   -1.663785
 Sum of Mulliken charges =  -0.00000

 Dipole moment (field-independent basis, Debye):
    X=              2.3319    Y=             -0.7413    Z=             -0.0000  Tot=              2.4469

 Test job not archived.
 1\1\GINC-SE343\SP\RHF\Aug-CC-pVDZ\B1H6N1Si1\OHZDE\09-Apr-2025\0\\#t hf
  aug-cc-pvdz iop(5/13=1,5/36=2,99/5=2) pseudo=read geom=check guess=(r
 ead,tcheck) scf=(maxcycle=1)\\title\\0,1\Si,0,-1.181496,-0.069171,0.\B
 ,0,0.724151,0.610842,0.00002\N,0,1.799232,-0.269166,-0.000009\H,0,1.69
 8819,-1.273527,-0.00003\H,0,2.762338,0.035421,-0.000014\H,0,0.968357,1
 .780941,0.00002\H,0,-1.247551,-1.557746,-0.000021\H,0,-1.928194,0.4066
 44,-1.194591\H,0,-1.928201,0.406611,1.1946\\Version=ES64L-G16RevC.01\S
 tate=1-A\HF=-372.1445081\RMSD=9.268e-02\Dipole=0.9174466,-0.2916603,-0

 Normal termination of Gaussian 16 at Wed Apr  9 00:46:57 2025.
