 Gaussian 16, Revision C.01,

 ----------------------------------------------------------------------
 #t hf aug-cc-pvdz symm=none int=(grid=ultrafine) guess=(read,tcheck) s
 table=(opt,rrhf)
 ----------------------------------------------------------------------
 -----
 title
 -----
 Symbolic Z-matrix:
 Charge =  0 Multiplicity = 1

 SCF Done:  E(RHF) =  -869.654368896     A.U. after   19 cycles
 Normal termination of Gaussian 16 at Tue Apr  8 23:18:27 2025.
 Gaussian 16:  ES64L-G16RevC.01  3-Jul-2019

 ----------------------------------------------------------------------
 #t hf aug-cc-pvdz iop(5/13=1,5/36=2,99/5=2) pseudo=read geom=check gue
 ss=(read,tcheck) scf=(maxcycle=1)
 ----------------------------------------------------------------------
 -----
 title
 -----
 Structure from the checkpoint file:  "BDE49_nonexpt_1002_mol1.chk"
 Charge =  0 Multiplicity = 1

                         Standard orientation:
 ---------------------------------------------------------------------
 Center     Atomic      Atomic             Coordinates (Angstroms)
 Number     Number       Type             X           Y           Z
 ---------------------------------------------------------------------
      1          6           0       -3.637479   -0.388544   -0.034508
      2          6           0       -3.209926    0.939707   -0.015874
      3          6           0       -1.852862    1.232515    0.005946
      4          6           0       -2.703896   -1.423223   -0.031396
      5          6           0       -1.343589   -1.133405   -0.009722
      6          6           0       -0.909204    0.196066    0.009267
      7          1           0       -4.697299   -0.616496   -0.051550
      8          1           0       -3.936141    1.744300   -0.018232
      9          1           0       -1.499267    2.255743    0.020860
     10          1           0       -3.034809   -2.455006   -0.046681
     11          1           0       -0.621664   -1.941059   -0.009655
     12          6           0        0.532087    0.583413    0.034457
     13         16           0        1.723521   -0.817984    0.081183
     14          7           0        3.308258    0.328334   -0.090888
     15          8           0        4.309910   -0.251191   -0.070839
     16          8           0        0.915622    1.721535    0.032530
 ---------------------------------------------------------------------

 SCF Done:  E(RHF) =  -871.983986938     A.U. after    2 cycles

 The electronic state is 1-A.
 Alpha  occ. eigenvalues --  -75.72134 -21.19598 -21.07293 -15.94955 -13.15056
 Alpha  occ. eigenvalues --  -13.11700 -13.03400 -11.53851 -11.52985 -11.45653
 Alpha  occ. eigenvalues --  -11.45069 -11.43448 -11.42704 -11.38689  -8.06025
 Alpha  occ. eigenvalues --   -1.93619  -1.73666  -1.36521  -1.19052  -1.12506
 Alpha  occ. eigenvalues --   -1.11213  -0.97097  -0.90772  -0.88364  -0.78574
 Alpha  occ. eigenvalues --   -0.72275  -0.66866  -0.63345  -0.61202  -0.60304
 Alpha  occ. eigenvalues --   -0.59364  -0.58944  -0.58136  -0.55292  -0.50353
 Alpha  occ. eigenvalues --   -0.48428  -0.47690  -0.45709  -0.35020  -0.33934
 Alpha  occ. eigenvalues --   -0.27672  -0.27158  -0.25224
 Alpha virt. eigenvalues --    0.02841   0.04791   0.04921   0.06339   0.06742
 Alpha virt. eigenvalues --    0.07194   0.08399   0.09232   0.09797   0.10908
 Alpha virt. eigenvalues --    0.11148   0.12122   0.12922   0.13128   0.13319

 Mulliken charges:
               1
     1  C   -2.961436
     2  C   -1.036552
     3  C   -3.449564
     4  C   -2.654168
     5  C    0.966723
     6  C    3.744155
     7  H    1.525581
     8  H    1.457972
     9  H    1.737757
    10  H    1.492875
    11  H    2.147718
    12  C    0.256376
    13  S    1.170353
    14  N    1.205666
    15  O   -1.827039
    16  O   -3.776416
 Sum of Mulliken charges =  -0.00000

 Dipole moment (field-independent basis, Debye):
    X=             -1.3467    Y=             -2.2426    Z=              0.1110  Tot=              2.6183

 Test job not archived.
 1\1\GINC-SE120\SP\RHF\Aug-CC-pVDZ\C7H5N1O2S1\OHZDE\08-Apr-2025\0\\#t h
 f aug-cc-pvdz iop(5/13=1,5/36=2,99/5=2) pseudo=read geom=check guess=(
 read,tcheck) scf=(maxcycle=1)\\title\\0,1\C,0,-3.637479,-0.388544,-0.0
 34508\C,0,-3.209926,0.939707,-0.015874\C,0,-1.852862,1.232515,0.005946
 \C,0,-2.703896,-1.423223,-0.031396\C,0,-1.343589,-1.133405,-0.009722\C
 ,0,-0.909204,0.196066,0.009267\H,0,-4.697299,-0.616496,-0.05155\H,0,-3
 .936141,1.7443,-0.018232\H,0,-1.499267,2.255743,0.02086\H,0,-3.034809,
 -2.455006,-0.046681\H,0,-0.621664,-1.941059,-0.009655\C,0,0.532087,0.5

 Normal termination of Gaussian 16 at Tue Apr  8 23:18:36 2025.
