 Gaussian 16, Revision C.01,

 ----------------------------------------------------------------------
 #t hf aug-cc-pvdz symm=none int=(grid=ultrafine) guess=(read,tcheck) s
 table=(opt,rrhf)
 ----------------------------------------------------------------------
 -----
 title
 -----
 Symbolic Z-matrix:
 Charge =  0 Multiplicity = 1

 SCF Done:  E(RHF) =  -243.704103670     A.U. after   14 cycles
 Normal termination of Gaussian 16 at Tue Apr  8 23:04:41 2025.
 Gaussian 16:  ES64L-G16RevC.01  3-Jul-2019

 ----------------------------------------------------------------------
 #t hf aug-cc-pvdz iop(5/13=1,5/36=2,99/5=2) pseudo=read geom=check gue
 ss=(read,tcheck) scf=(maxcycle=1)
 ----------------------------------------------------------------------
 -----
 title
 -----
 Structure from the checkpoint file:  "BDE49_expt_309_mol1.chk"
 Charge =  0 Multiplicity = 1

                         Standard orientation:
 ---------------------------------------------------------------------
 Center     Atomic      Atomic             Coordinates (Angstroms)
 Number     Number       Type             X           Y           Z
 ---------------------------------------------------------------------
      1          6           0       -1.325990   -0.000610   -0.002729
      2          7           0        0.176738    0.000000   -0.011176
      3          1           0       -1.663845    0.902011   -0.503314
      4          1           0       -1.632492    0.004965    1.043089
      5          1           0       -1.663335   -0.908439   -0.494079
      6          8           0        0.729287    1.087585    0.003054
      7          8           0        0.730519   -1.086945    0.003060
 ---------------------------------------------------------------------

 SCF Done:  E(RHF) =  -244.753185022     A.U. after    2 cycles

 The electronic state is 1-A.
 Alpha  occ. eigenvalues --  -21.10042 -21.09871 -15.99904 -11.45187  -1.99855
 Alpha  occ. eigenvalues --   -1.69450  -1.19631  -0.87394  -0.70938  -0.69285
 Alpha  occ. eigenvalues --   -0.67138  -0.57028  -0.56950  -0.36117  -0.31876
 Alpha  occ. eigenvalues --   -0.31439
 Alpha virt. eigenvalues --    0.02836   0.05409   0.05743   0.09260   0.13467
 Alpha virt. eigenvalues --    0.13858   0.14195   0.14837   0.15811   0.15936
 Alpha virt. eigenvalues --    0.19781   0.23524   0.24052   0.24702   0.25996

 Mulliken charges:
               1
     1  C   -3.116883
     2  N    4.387377
     3  H    1.342563
     4  H    1.347472
     5  H    1.343001
     6  O   -2.651732
     7  O   -2.651797
 Sum of Mulliken charges =   0.00000

 Dipole moment (field-independent basis, Debye):
    X=             -2.4238    Y=             -0.0020    Z=              0.0025  Tot=              2.4238

 Test job not archived.
 1\1\GINC-SE118\SP\RHF\Aug-CC-pVDZ\C1H3N1O2\OHZDE\08-Apr-2025\0\\#t hf
 aug-cc-pvdz iop(5/13=1,5/36=2,99/5=2) pseudo=read geom=check guess=(re
 ad,tcheck) scf=(maxcycle=1)\\title\\0,1\C,0,-1.32599,-0.00061,-0.00272
 9\N,0,0.176738,0.,-0.011176\H,0,-1.663845,0.902011,-0.503314\H,0,-1.63
 2492,0.004965,1.043089\H,0,-1.663335,-0.908439,-0.494079\O,0,0.729287,
 1.087585,0.003054\O,0,0.730519,-1.086945,0.00306\\Version=ES64L-G16Rev
 C.01\State=1-A\HF=-244.753185\RMSD=9.081e-02\Dipole=-0.9535896,-0.0007
 725,0.000975\Quadrupole=0.6708841,-1.704997,1.0341129,-0.0001698,-0.06

 Normal termination of Gaussian 16 at Tue Apr  8 23:04:42 2025.
