 Gaussian 16, Revision C.01,

 ----------------------------------------------------------------------
 #t hf aug-cc-pvdz symm=none int=(grid=ultrafine) guess=(read,tcheck) s
 table=opt
 ----------------------------------------------------------------------
 -----
 title
 -----
 Symbolic Z-matrix:
 Charge =  0 Multiplicity = 2

 SCF Done:  E(UHF) =  -336.322766632     A.U. after   22 cycles
 Normal termination of Gaussian 16 at Wed Apr  9 00:32:46 2025.
 Gaussian 16:  ES64L-G16RevC.01  3-Jul-2019

 ----------------------------------------------------------------------
 #t hf aug-cc-pvdz iop(5/13=1,5/36=2,99/5=2) pseudo=read geom=check gue
 ss=(read,tcheck) scf=(maxcycle=1)
 ----------------------------------------------------------------------
 -----
 title
 -----
 Structure from the checkpoint file:  "BDE49_nonexpt_381_mol2.chk"
 Charge =  0 Multiplicity = 2

                         Standard orientation:
 ---------------------------------------------------------------------
 Center     Atomic      Atomic             Coordinates (Angstroms)
 Number     Number       Type             X           Y           Z
 ---------------------------------------------------------------------
      1          9           0       -2.015700   -0.017117   -0.202619
      2          5           0       -0.945595   -0.027629    0.530975
      3          6           0        0.542788    0.133040    0.056415
      4          8           0        1.137394    1.151203   -0.070925
      5          9           0        1.168156   -1.079518   -0.066933
 ---------------------------------------------------------------------

 SCF Done:  E(UHF) =  -337.527504530     A.U. after    2 cycles

 The electronic state is 2-A.
 Alpha  occ. eigenvalues --  -29.31791 -29.31270 -21.11918 -11.53946  -7.74443
 Alpha  occ. eigenvalues --   -1.78638  -1.15471  -0.97261  -0.75137  -0.61660
 Alpha  occ. eigenvalues --   -0.60115  -0.52316  -0.48723  -0.44348  -0.43794
 Alpha  occ. eigenvalues --   -0.35226  -0.32050  -0.30682  -0.22811
 Alpha virt. eigenvalues --    0.03822   0.04006   0.05458   0.07395   0.12301
 Alpha virt. eigenvalues --    0.12810   0.13942   0.14847   0.16450   0.18003
 Alpha virt. eigenvalues --    0.20453   0.20932   0.22967   0.23879   0.24919

  Beta  occ. eigenvalues --  -29.31800 -29.30983 -21.11427 -11.53850  -7.72466
  Beta  occ. eigenvalues --   -1.77740  -1.12987  -0.95515  -0.74273  -0.61131
  Beta  occ. eigenvalues --   -0.57409  -0.48170  -0.46271  -0.44039  -0.43354
  Beta  occ. eigenvalues --   -0.30855  -0.30296  -0.29713
  Beta virt. eigenvalues --    0.03188   0.03980   0.05294   0.07028   0.08899
  Beta virt. eigenvalues --    0.12915   0.13982   0.14397   0.16477   0.17720
  Beta virt. eigenvalues --    0.18941   0.20640   0.22425   0.23430   0.24921

 Mulliken charges and spin densities:
               1          2
     1  F   -0.124541  -0.071518
     2  B    1.202945   0.993549
     3  C    1.062253  -0.095007
     4  O   -2.605022   0.159328
     5  F    0.464366   0.013649
 Sum of Mulliken charges =  -0.00000   1.00000

 Dipole moment (field-independent basis, Debye):
    X=             -2.6744    Y=             -3.0422    Z=             -2.2022  Tot=              4.6106
                          Isotropic Fermi Contact Couplings
        Atom                 a.u.       MegaHertz       Gauss      10(-4) cm-1
     1  F(19)              0.04449     187.17825      66.78985      62.43594
     2  B(11)              0.18564     266.27100      95.01211      88.81845
     3  C(13)              0.04790      53.85229      19.21584      17.96319
     4  O(17)              0.02700     -16.36805      -5.84053      -5.45979
     5  F(19)             -0.00327     -13.77285      -4.91449      -4.59413
 --------------------------------------------------------
       Center         ----  Spin Dipole Couplings  ----
                      3XX-RR        3YY-RR        3ZZ-RR

 Normal termination of Gaussian 16 at Wed Apr  9 00:32:53 2025.
