 Gaussian 16, Revision C.01,

 ----------------------------------------------------------------------
 #t hf aug-cc-pvdz symm=none int=(grid=ultrafine) guess=(read,tcheck) s
 table=opt
 ----------------------------------------------------------------------
 -----
 title
 -----
 Symbolic Z-matrix:
 Charge =  0 Multiplicity = 2

 SCF Done:  E(UHF) =  -775.969459014     A.U. after   15 cycles
 Normal termination of Gaussian 16 at Tue Apr  8 23:14:27 2025.
 Gaussian 16:  ES64L-G16RevC.01  3-Jul-2019

 ----------------------------------------------------------------------
 #t hf aug-cc-pvdz iop(5/13=1,5/36=2,99/5=2) pseudo=read geom=check gue
 ss=(read,tcheck) scf=(maxcycle=1)
 ----------------------------------------------------------------------
 -----
 title
 -----
 Structure from the checkpoint file:  "BDE49_expt_803_mol2.chk"
 Charge =  0 Multiplicity = 2

                         Standard orientation:
 ---------------------------------------------------------------------
 Center     Atomic      Atomic             Coordinates (Angstroms)
 Number     Number       Type             X           Y           Z
 ---------------------------------------------------------------------
      1         14           0        0.219994   -0.980604   -0.000000
      2         14           0       -0.747842    1.179484    0.000000
      3          6           0       -0.350845   -1.913707    1.541835
      4          6           0        2.114777   -0.914485   -0.000000
      5          6           0       -0.350845   -1.913707   -1.541835
      6          6           0       -0.350845    2.208575   -1.545877
      7          6           0       -0.350845    2.208575    1.545877
      8          1           0       -1.440455   -2.000950   -1.573702
      9          1           0        0.067338   -2.925915   -1.556040
     10          1           0       -0.029310   -1.410804   -2.458652
     11          1           0       -0.029310   -1.410804    2.458652
     12          1           0        0.067338   -2.925915    1.556040
     13          1           0       -1.440455   -2.000950    1.573702
     14          1           0        0.711908    2.477012    1.577735
     15          1           0       -0.587613    1.662994    2.462768
     16          1           0       -0.926355    3.139092    1.552526
     17          1           0        0.711908    2.477012   -1.577735
     18          1           0       -0.926355    3.139092   -1.552526
     19          1           0       -0.587613    1.662994   -2.462768
     20          1           0        2.497893   -0.395947    0.883622
     21          1           0        2.497893   -0.395947   -0.883622
     22          1           0        2.534696   -1.926785   -0.000000
 ---------------------------------------------------------------------

 SCF Done:  E(UHF) =  -777.323703233     A.U. after    2 cycles

 The electronic state is 2-A'.
 Alpha  occ. eigenvalues --  -76.19321 -76.18590 -11.34541 -11.34429 -11.34150
 Alpha  occ. eigenvalues --  -11.34111 -11.33937  -5.53019  -5.52528  -2.16590
 Alpha  occ. eigenvalues --   -2.16095  -2.15997  -2.15788  -2.14832  -2.13682
 Alpha  occ. eigenvalues --   -1.07192  -1.05065  -1.00571  -1.00331  -0.99947
 Alpha  occ. eigenvalues --   -0.69760  -0.60373  -0.56747  -0.56171  -0.55941
 Alpha  occ. eigenvalues --   -0.55833  -0.55260  -0.54506  -0.54231  -0.53937
 Alpha  occ. eigenvalues --   -0.53559  -0.52747  -0.39911  -0.39059  -0.38050
 Alpha  occ. eigenvalues --   -0.32329  -0.23138
 Alpha virt. eigenvalues --    0.03132   0.04470   0.04807   0.05565   0.06158
 Alpha virt. eigenvalues --    0.06227   0.06451   0.06460   0.06730   0.07372
 Alpha virt. eigenvalues --    0.07529   0.08067   0.08097   0.08635   0.08685

  Beta  occ. eigenvalues --  -76.18820 -76.18572 -11.34548 -11.34436 -11.34125
  Beta  occ. eigenvalues --  -11.34081 -11.33941  -5.52498  -5.52250  -2.16129
  Beta  occ. eigenvalues --   -2.15993  -2.15926  -2.15322  -2.13873  -2.10981
  Beta  occ. eigenvalues --   -1.07009  -1.04411  -1.00502  -1.00200  -0.99868
  Beta  occ. eigenvalues --   -0.67421  -0.58441  -0.56453  -0.55889  -0.55807
  Beta  occ. eigenvalues --   -0.55186  -0.54892  -0.54388  -0.53802  -0.53725
  Beta  occ. eigenvalues --   -0.53541  -0.52705  -0.39686  -0.38580  -0.37970
  Beta  occ. eigenvalues --   -0.30798
  Beta virt. eigenvalues --    0.03007   0.04411   0.04937   0.04993   0.06173
  Beta virt. eigenvalues --    0.06201   0.06344   0.06463   0.06598   0.07018
  Beta virt. eigenvalues --    0.07387   0.07812   0.08123   0.08414   0.08718

 Mulliken charges and spin densities:
               1          2
     1  Si   8.061982  -0.003233
     2  Si   4.224447   1.399705
     3  C   -6.317699  -0.032316
     4  C   -6.351185   0.001677
     5  C   -6.317699  -0.032316
     6  C   -5.712290  -0.058415
     7  C   -5.712290  -0.058415
     8  H    1.208162  -0.030854
     9  H    1.120079  -0.006386
    10  H    1.117696   0.007327
    11  H    1.117696   0.007327
    12  H    1.120079  -0.006386
    13  H    1.208162  -0.030854
    14  H    1.259391  -0.006965
    15  H    1.410406  -0.007936
    16  H    1.273524  -0.052734
    17  H    1.259391  -0.006965
    18  H    1.273524  -0.052734
    19  H    1.410406  -0.007936
    20  H    1.133407  -0.009346
    21  H    1.133407  -0.009346
    22  H    1.079404  -0.002896
 Sum of Mulliken charges =  -0.00000   1.00000

 Dipole moment (field-independent basis, Debye):
    X=              0.3791    Y=              0.0118    Z=             -0.0000  Tot=              0.3793
                          Isotropic Fermi Contact Couplings
        Atom                 a.u.       MegaHertz       Gauss      10(-4) cm-1
     1  Si(29)             0.02810     -24.97711      -8.91245      -8.33147
     2  Si(29)             0.31291    -278.09193     -99.23012     -92.76148
     3  C(13)             -0.00330      -3.70639      -1.32253      -1.23632
     4  C(13)              0.01904      21.40474       7.63774       7.13985
     5  C(13)             -0.00330      -3.70639      -1.32253      -1.23632
     6  C(13)              0.00551       6.19559       2.21074       2.06663
     7  C(13)              0.00551       6.19559       2.21074       2.06663
     8  H(1)              -0.00004      -0.18045      -0.06439      -0.06019

 Normal termination of Gaussian 16 at Tue Apr  8 23:14:34 2025.
