 Gaussian 16, Revision C.01,

 ----------------------------------------------------------------------
 #t hf aug-cc-pvdz symm=none int=(grid=ultrafine) guess=(read,tcheck) s
 table=(opt,rrhf)
 ----------------------------------------------------------------------
 -----
 title
 -----
 Symbolic Z-matrix:
 Charge =  0 Multiplicity = 1

 SCF Done:  E(RHF) =  -419.903222900     A.U. after   13 cycles
 Normal termination of Gaussian 16 at Tue Apr  8 22:54:38 2025.
 Gaussian 16:  ES64L-G16RevC.01  3-Jul-2019

 ----------------------------------------------------------------------
 #t hf aug-cc-pvdz iop(5/13=1,5/36=2,99/5=2) pseudo=read geom=check gue
 ss=(read,tcheck) scf=(maxcycle=1)
 ----------------------------------------------------------------------
 -----
 title
 -----
 Structure from the checkpoint file:  "BDE49_expt_1814_mol1.chk"
 Charge =  0 Multiplicity = 1

                         Standard orientation:
 ---------------------------------------------------------------------
 Center     Atomic      Atomic             Coordinates (Angstroms)
 Number     Number       Type             X           Y           Z
 ---------------------------------------------------------------------
      1         14           0        0.532398   -0.851646    0.000000
      2          7           0        0.000000    0.943057    0.000000
      3          8           0       -1.196282    1.136488    0.000000
      4          1           0       -0.620042   -1.779045    0.000000
      5          1           0        1.368363   -0.995603    1.211175
      6          1           0        1.368363   -0.995603   -1.211175
 ---------------------------------------------------------------------

 SCF Done:  E(RHF) =  -420.594298494     A.U. after    2 cycles

 The electronic state is 1-A'.
 Alpha  occ. eigenvalues --  -76.25814 -21.13540 -15.83932  -5.59299  -2.22729
 Alpha  occ. eigenvalues --   -2.21432  -2.21232  -1.84129  -1.01464  -0.76727
 Alpha  occ. eigenvalues --   -0.59061  -0.54745  -0.53705  -0.49115  -0.48005
 Alpha  occ. eigenvalues --   -0.24992
 Alpha virt. eigenvalues --    0.03974   0.05780   0.05881   0.06017   0.08987
 Alpha virt. eigenvalues --    0.09047   0.10701   0.12688   0.15011   0.15899
 Alpha virt. eigenvalues --    0.16290   0.17116   0.19464   0.20630   0.23029

 Mulliken charges:
               1
     1  Si   5.705363
     2  N    0.478734
     3  O   -1.496948
     4  H   -1.511586
     5  H   -1.587781
     6  H   -1.587781
 Sum of Mulliken charges =  -0.00000

 Dipole moment (field-independent basis, Debye):
    X=             -0.2238    Y=             -1.3931    Z=              0.0000  Tot=              1.4109

 Test job not archived.
 1\1\GINC-SE329\SP\RHF\Aug-CC-pVDZ\H3N1O1Si1\OHZDE\08-Apr-2025\0\\#t hf
  aug-cc-pvdz iop(5/13=1,5/36=2,99/5=2) pseudo=read geom=check guess=(r
 ead,tcheck) scf=(maxcycle=1)\\title\\0,1\Si,0,0.532398,-0.851646,0.\N,
 0,0.,0.943057,0.\O,0,-1.196282,1.136488,0.\H,0,-0.620042,-1.779045,0.\
 H,0,1.368363,-0.995603,1.211175\H,0,1.368363,-0.995603,-1.211175\\Vers
 ion=ES64L-G16RevC.01\State=1-A'\HF=-420.5942985\RMSD=9.043e-02\Dipole=
 -0.0880625,-0.5480694,0.\Quadrupole=-0.1920178,-0.851474,1.0434918,-0.
 8010914,0.,0.\PG=CS [SG(H1N1O1Si1),X(H2)]\\@

 Normal termination of Gaussian 16 at Tue Apr  8 22:54:40 2025.
