 Gaussian 16, Revision C.01,

 ----------------------------------------------------------------------
 #t hf aug-cc-pvdz symm=none int=(grid=ultrafine) guess=(read,tcheck) s
 table=(opt,rrhf)
 ----------------------------------------------------------------------
 -----
 title
 -----
 Symbolic Z-matrix:
 Charge =  0 Multiplicity = 1

 SCF Done:  E(RHF) =  -846.346931752     A.U. after   13 cycles
 Normal termination of Gaussian 16 at Wed Apr  9 00:32:17 2025.
 Gaussian 16:  ES64L-G16RevC.01  3-Jul-2019

 ----------------------------------------------------------------------
 #t hf aug-cc-pvdz iop(5/13=1,5/36=2,99/5=2) pseudo=read geom=check gue
 ss=(read,tcheck) scf=(maxcycle=1)
 ----------------------------------------------------------------------
 -----
 title
 -----
 Structure from the checkpoint file:  "BDE49_nonexpt_376_mol1.chk"
 Charge =  0 Multiplicity = 1

                         Standard orientation:
 ---------------------------------------------------------------------
 Center     Atomic      Atomic             Coordinates (Angstroms)
 Number     Number       Type             X           Y           Z
 ---------------------------------------------------------------------
      1          9           0        1.731875    1.216417   -0.042464
      2          9           0        1.935106   -1.056831   -0.002937
      3          5           0        1.200083    0.021169   -0.023908
      4         16           0       -0.684555   -0.161331    0.047651
      5          8           0       -1.105112   -1.240996   -0.793741
      6          8           0       -1.045077   -0.066954    1.443655
      7          8           0       -1.183737    1.205098   -0.679869
      8          1           0       -1.378965    1.861992    0.005363
 ---------------------------------------------------------------------

 SCF Done:  E(RHF) =  -848.300648793     A.U. after    2 cycles

 The electronic state is 1-A.
 Alpha  occ. eigenvalues --  -75.93997 -29.31968 -29.31617 -21.15501 -21.08837
 Alpha  occ. eigenvalues --  -21.08602 -13.57171 -13.46722 -13.39688  -8.29115
 Alpha  occ. eigenvalues --   -7.78734  -1.92712  -1.74272  -1.69089  -1.21634
 Alpha  occ. eigenvalues --   -0.97660  -0.84116  -0.72543  -0.66470  -0.59209
 Alpha  occ. eigenvalues --   -0.58390  -0.53175  -0.51296  -0.48451  -0.47732
 Alpha  occ. eigenvalues --   -0.45519  -0.42691  -0.40668  -0.39345  -0.38879
 Alpha  occ. eigenvalues --   -0.38642  -0.26206
 Alpha virt. eigenvalues --    0.02974   0.03239   0.04495   0.06120   0.06411
 Alpha virt. eigenvalues --    0.10209   0.11464   0.11954   0.13675   0.14357
 Alpha virt. eigenvalues --    0.15344   0.16460   0.19004   0.19323   0.20084

 Mulliken charges:
               1
     1  F   -0.380742
     2  F    0.063731
     3  B    1.329170
     4  S    5.682002
     5  O   -2.543655
     6  O   -2.575665
     7  O   -2.439605
     8  H    0.864763
 Sum of Mulliken charges =   0.00000

 Dipole moment (field-independent basis, Debye):
    X=              3.1154    Y=              1.8525    Z=             -0.1545  Tot=              3.6279

 Test job not archived.
 1\1\GINC-SE455\SP\RHF\Aug-CC-pVDZ\B1F2H1O3S1\OHZDE\09-Apr-2025\0\\#t h
 f aug-cc-pvdz iop(5/13=1,5/36=2,99/5=2) pseudo=read geom=check guess=(
 read,tcheck) scf=(maxcycle=1)\\title\\0,1\F,0,1.731875,1.216417,-0.042
 464\F,0,1.935106,-1.056831,-0.002937\B,0,1.200083,0.021169,-0.023908\S
 ,0,-0.684555,-0.161331,0.047651\O,0,-1.105112,-1.240996,-0.793741\O,0,
 -1.045077,-0.066954,1.443655\O,0,-1.183737,1.205098,-0.679869\H,0,-1.3
 78965,1.861992,0.005363\\Version=ES64L-G16RevC.01\State=1-A\HF=-848.30
 06488\RMSD=1.949e-01\Dipole=1.2257014,0.7288427,-0.0607765\Quadrupole=

 Normal termination of Gaussian 16 at Wed Apr  9 00:32:20 2025.
