 Gaussian 16, Revision C.01,

 ----------------------------------------------------------------------
 #t hf aug-cc-pvdz symm=none int=(grid=ultrafine) guess=(read,tcheck) s
 table=opt
 ----------------------------------------------------------------------
 -----
 title
 -----
 Symbolic Z-matrix:
 Charge =  0 Multiplicity = 2

 SCF Done:  E(UHF) =  -518.430603190     A.U. after   15 cycles
 Normal termination of Gaussian 16 at Tue Apr  8 23:59:35 2025.
 Gaussian 16:  ES64L-G16RevC.01  3-Jul-2019

 ----------------------------------------------------------------------
 #t hf aug-cc-pvdz iop(5/13=1,5/36=2,99/5=2) pseudo=read geom=check gue
 ss=(read,tcheck) scf=(maxcycle=1)
 ----------------------------------------------------------------------
 -----
 title
 -----
 Structure from the checkpoint file:  "BDE49_nonexpt_2072_mol2.chk"
 Charge =  0 Multiplicity = 2

                         Standard orientation:
 ---------------------------------------------------------------------
 Center     Atomic      Atomic             Coordinates (Angstroms)
 Number     Number       Type             X           Y           Z
 ---------------------------------------------------------------------
      1         14           0        1.803244   -0.357833    0.047446
      2          6           0        0.005933    0.243757    0.374576
      3          8           0       -0.847188   -0.627480   -0.330545
      4          8           0       -0.167555    1.602957   -0.004532
      5          6           0       -2.228317   -0.494107    0.014344
      6          1           0       -2.393124   -0.758638    1.066818
      7          1           0       -2.778990   -1.186594   -0.621353
      8          1           0       -2.579587    0.526622   -0.160097
      9          1           0        0.058954    1.674952   -0.939752
     10          1           0       -0.234995    0.232779    1.445359
     11          1           0        2.173574    0.042307   -1.337489
     12          1           0        1.961004   -1.823479    0.229374
 ---------------------------------------------------------------------

 SCF Done:  E(UHF) =  -519.578097206     A.U. after    2 cycles

 The electronic state is 2-A.
 Alpha  occ. eigenvalues --  -76.22883 -21.08026 -21.05598 -11.43204 -11.40356
 Alpha  occ. eigenvalues --   -5.56300  -2.20146  -2.18509  -2.17700  -1.79905
 Alpha  occ. eigenvalues --   -1.66792  -1.02059  -0.90138  -0.76887  -0.64036
 Alpha  occ. eigenvalues --   -0.62151  -0.61382  -0.55967  -0.51091  -0.48071
 Alpha  occ. eigenvalues --   -0.46753  -0.37140  -0.32912  -0.30204  -0.27041
 Alpha virt. eigenvalues --    0.03895   0.04916   0.05592   0.06045   0.06259
 Alpha virt. eigenvalues --    0.06694   0.07129   0.07767   0.09351   0.09926
 Alpha virt. eigenvalues --    0.12921   0.13866   0.15014   0.15091   0.15408

  Beta  occ. eigenvalues --  -76.22327 -21.08036 -21.05501 -11.43147 -11.40326
  Beta  occ. eigenvalues --   -5.55431  -2.19416  -2.17844  -2.14204  -1.79768
  Beta  occ. eigenvalues --   -1.66733  -1.01754  -0.89619  -0.73471  -0.63759
  Beta  occ. eigenvalues --   -0.62103  -0.60386  -0.55878  -0.50652  -0.47846
  Beta  occ. eigenvalues --   -0.46204  -0.36939  -0.31687  -0.30071
  Beta virt. eigenvalues --    0.03187   0.04460   0.05189   0.05717   0.06134
  Beta virt. eigenvalues --    0.06383   0.06727   0.07661   0.09320   0.09813
  Beta virt. eigenvalues --    0.10284   0.13091   0.14108   0.15259   0.15416

 Mulliken charges and spin densities:
               1          2
     1  Si   3.788752   1.074925
     2  C    1.188981  -0.019331
     3  O   -2.923794  -0.067549
     4  O   -2.537017   0.000753
     5  C   -2.812373   0.004161
     6  H    1.328833  -0.000773
     7  H    1.282517   0.001388
     8  H    1.306330  -0.000026
     9  H    0.706072  -0.001342
    10  H    1.722279   0.001124
    11  H   -1.551022  -0.010488
    12  H   -1.499557   0.017158
 Sum of Mulliken charges =  -0.00000   1.00000

 Dipole moment (field-independent basis, Debye):
    X=             -0.6709    Y=              0.0644    Z=              0.3118  Tot=              0.7426
                          Isotropic Fermi Contact Couplings
        Atom                 a.u.       MegaHertz       Gauss      10(-4) cm-1
     1  Si(29)             0.46459    -412.89123    -147.32986    -137.72569
     2  C(13)              0.01831      20.58588       7.34555       6.86671
     3  O(17)              0.04247     -25.74513      -9.18650      -8.58765
     4  O(17)             -0.00110       0.66977       0.23899       0.22341
     5  C(13)              0.00914      10.27709       3.66712       3.42807
     6  H(1)              -0.00016      -0.73561      -0.26248      -0.24537
     7  H(1)               0.00012       0.52948       0.18893       0.17661
     8  H(1)              -0.00015      -0.65418      -0.23343      -0.21821

 Normal termination of Gaussian 16 at Tue Apr  8 23:59:38 2025.
