 Gaussian 16, Revision C.01,

 ----------------------------------------------------------------------
 #t hf aug-cc-pvdz symm=none int=(grid=ultrafine) guess=(read,tcheck) s
 table=(opt,rrhf)
 ----------------------------------------------------------------------
 -----
 title
 -----
 Symbolic Z-matrix:
 Charge =  0 Multiplicity = 1

 SCF Done:  E(RHF) =  -519.778795123     A.U. after   15 cycles
 Normal termination of Gaussian 16 at Wed Apr  9 00:43:48 2025.
 Gaussian 16:  ES64L-G16RevC.01  3-Jul-2019

 ----------------------------------------------------------------------
 #t hf aug-cc-pvdz iop(5/13=1,5/36=2,99/5=2) pseudo=read geom=check gue
 ss=(read,tcheck) scf=(maxcycle=1)
 ----------------------------------------------------------------------
 -----
 title
 -----
 Structure from the checkpoint file:  "BDE49_nonexpt_678_mol1.chk"
 Charge =  0 Multiplicity = 1

                         Standard orientation:
 ---------------------------------------------------------------------
 Center     Atomic      Atomic             Coordinates (Angstroms)
 Number     Number       Type             X           Y           Z
 ---------------------------------------------------------------------
      1          5           0       -1.914523    0.071217   -0.000002
      2          8           0       -2.238000    1.396706   -0.000001
      3          1           0       -1.435712    1.935510   -0.000001
      4          8           0       -2.931596   -0.845839   -0.000001
      5          1           0       -3.789671   -0.409184   -0.000001
      6          6           0       -0.440342   -0.475963   -0.000002
      7          6           0        0.699235    0.355597    0.000000
      8          1           0        1.132383    3.614680    0.000013
      9          1           0        2.181795    2.487666    0.894620
     10          1           0        2.181800    2.487676   -0.894599
     11          8           0        0.462379    1.714124    0.000002
     12          6           0        1.564017    2.615023    0.000009
     13          6           0        1.988790   -0.178051    0.000000
     14          1           0        2.859413    0.463265    0.000001
     15          6           0        2.158940   -1.562279   -0.000002
     16          1           0        3.163780   -1.970329   -0.000002
     17          6           0        1.057222   -2.409835   -0.000004
     18          1           0        1.192192   -3.485064   -0.000005
     19          6           0       -0.222144   -1.859709   -0.000004
     20          1           0       -1.089939   -2.508942   -0.000005
 ---------------------------------------------------------------------

 SCF Done:  E(RHF) =  -522.101803914     A.U. after    2 cycles

 The electronic state is 1-A.
 Alpha  occ. eigenvalues --  -21.08647 -21.04218 -21.03590 -11.53796 -11.46852
 Alpha  occ. eigenvalues --  -11.43172 -11.42915 -11.41080 -11.40336 -11.36224
 Alpha  occ. eigenvalues --   -7.65395  -1.81896  -1.78712  -1.64108  -1.32038
 Alpha  occ. eigenvalues --   -1.10928  -1.08802  -0.99972  -0.88434  -0.83921
 Alpha  occ. eigenvalues --   -0.76280  -0.69683  -0.66192  -0.63571  -0.63152
 Alpha  occ. eigenvalues --   -0.62564  -0.60497  -0.55727  -0.53823  -0.53321
 Alpha  occ. eigenvalues --   -0.49677  -0.46719  -0.46569  -0.43701  -0.41454
 Alpha  occ. eigenvalues --   -0.39076  -0.34842  -0.34355  -0.33262  -0.27389
 Alpha virt. eigenvalues --    0.03041   0.04302   0.05192   0.05385   0.05422
 Alpha virt. eigenvalues --    0.05751   0.06776   0.07028   0.07141   0.07720
 Alpha virt. eigenvalues --    0.09374   0.10377   0.10441   0.11116   0.12855

 Mulliken charges:
               1
     1  B    4.535348
     2  O   -5.101085
     3  H    1.948153
     4  O   -4.412448
     5  H    1.127381
     6  C   -5.988929
     7  C   10.558261
     8  H    1.397483
     9  H    1.454590
    10  H    1.454594
    11  O   -5.219511
    12  C   -3.862878
    13  C   -3.860633
    14  H    1.946500
    15  C   -0.558494
    16  H    1.551902
    17  C   -3.128210
    18  H    1.602189
    19  C    2.455914
    20  H    2.099874
 Sum of Mulliken charges =  -0.00000

 Dipole moment (field-independent basis, Debye):
    X=              1.8291    Y=              1.4073    Z=              0.0000  Tot=              2.3078

 Test job not archived.
 1\1\GINC-SE015\SP\RHF\Aug-CC-pVDZ\C7H9B1O3\OHZDE\09-Apr-2025\0\\#t hf
 aug-cc-pvdz iop(5/13=1,5/36=2,99/5=2) pseudo=read geom=check guess=(re
 ad,tcheck) scf=(maxcycle=1)\\title\\0,1\B,0,-1.914523,0.071217,-0.0000
 02\O,0,-2.238,1.396706,-0.000001\H,0,-1.435712,1.93551,-0.000001\O,0,-
 2.931596,-0.845839,-0.000001\H,0,-3.789671,-0.409184,-0.000001\C,0,-0.
 440342,-0.475963,-0.000002\C,0,0.699235,0.355597,0.\H,0,1.132383,3.614
 68,0.000013\H,0,2.181795,2.487666,0.89462\H,0,2.1818,2.487676,-0.89459
 9\O,0,0.462379,1.714124,0.000002\C,0,1.564017,2.615023,0.000009\C,0,1.

 Normal termination of Gaussian 16 at Wed Apr  9 00:44:01 2025.
