 Gaussian 16, Revision C.01,

 ----------------------------------------------------------------------
 #t hf aug-cc-pvdz symm=none int=(grid=ultrafine) guess=(read,tcheck) s
 table=(opt,rrhf)
 ----------------------------------------------------------------------
 -----
 title
 -----
 Symbolic Z-matrix:
 Charge =  0 Multiplicity = 1

 SCF Done:  E(RHF) =  -286.090015213     A.U. after   13 cycles
 Normal termination of Gaussian 16 at Tue Apr  8 22:40:45 2025.
 Gaussian 16:  ES64L-G16RevC.01  3-Jul-2019

 ----------------------------------------------------------------------
 #t hf aug-cc-pvdz iop(5/13=1,5/36=2,99/5=2) pseudo=read geom=check gue
 ss=(read,tcheck) scf=(maxcycle=1)
 ----------------------------------------------------------------------
 -----
 title
 -----
 Structure from the checkpoint file:  "BDE49_expt_1296_mol1.chk"
 Charge =  0 Multiplicity = 1

                         Standard orientation:
 ---------------------------------------------------------------------
 Center     Atomic      Atomic             Coordinates (Angstroms)
 Number     Number       Type             X           Y           Z
 ---------------------------------------------------------------------
      1          6           0       -2.080914    0.305410    0.755215
      2          6           0       -1.509644   -0.260264   -0.547949
      3          1           0       -2.176322   -0.473066    1.519734
      4          1           0       -3.073764    0.733508    0.593708
      5          1           0       -1.439417    1.096365    1.150278
      6          6           0       -0.128110   -0.899641   -0.380934
      7          1           0       -1.427617    0.539889   -1.287650
      8          1           0       -2.194219   -1.010420   -0.957279
      9          6           0        0.975041    0.123792   -0.105918
     10          1           0        0.153581   -1.424855   -1.302002
     11          1           0       -0.143915   -1.655036    0.413558
     12          8           0        0.888428    1.294123   -0.427854
     13          7           0        2.085283   -0.378842    0.513513
     14          1           0        2.182285   -1.354950    0.734192
     15          1           0        2.876748    0.231687    0.641210
 ---------------------------------------------------------------------

 SCF Done:  E(RHF) =  -287.438630907     A.U. after    2 cycles

 The electronic state is 1-A.
 Alpha  occ. eigenvalues --  -21.01908 -15.77611 -11.50164 -11.42112 -11.38724
 Alpha  occ. eigenvalues --  -11.34941  -1.69993  -1.34478  -1.20809  -1.03025
 Alpha  occ. eigenvalues --   -0.87591  -0.77921  -0.70718  -0.65593  -0.63268
 Alpha  occ. eigenvalues --   -0.57222  -0.55160  -0.51016  -0.48836  -0.45946
 Alpha  occ. eigenvalues --   -0.45506  -0.44373  -0.32270  -0.28335
 Alpha virt. eigenvalues --    0.03445   0.04815   0.05392   0.05527   0.05942
 Alpha virt. eigenvalues --    0.06412   0.07360   0.07982   0.08418   0.11846
 Alpha virt. eigenvalues --    0.12196   0.13565   0.14000   0.14868   0.15021

 Mulliken charges:
               1
     1  C   -3.676394
     2  C   -2.758239
     3  H    1.278650
     4  H    1.148845
     5  H    1.349064
     6  C   -3.351744
     7  H    1.399335
     8  H    1.243791
     9  C    5.234288
    10  H    1.420466
    11  H    1.519254
    12  O   -3.157271
    13  N   -3.155074
    14  H    0.773087
    15  H    0.731945
 Sum of Mulliken charges =  -0.00000

 Dipole moment (field-independent basis, Debye):
    X=              0.7579    Y=             -2.0220    Z=              0.5730  Tot=              2.2341

 Test job not archived.
 1\1\GINC-SE362\SP\RHF\Aug-CC-pVDZ\C4H9N1O1\OHZDE\08-Apr-2025\0\\#t hf
 aug-cc-pvdz iop(5/13=1,5/36=2,99/5=2) pseudo=read geom=check guess=(re
 ad,tcheck) scf=(maxcycle=1)\\title\\0,1\C,0,-2.080914,0.30541,0.755215
 \C,0,-1.509644,-0.260264,-0.547949\H,0,-2.176322,-0.473066,1.519734\H,
 0,-3.073764,0.733508,0.593708\H,0,-1.439417,1.096365,1.150278\C,0,-0.1
 2811,-0.899641,-0.380934\H,0,-1.427617,0.539889,-1.28765\H,0,-2.194219
 ,-1.01042,-0.957279\C,0,0.975041,0.123792,-0.105918\H,0,0.153581,-1.42
 4855,-1.302002\H,0,-0.143915,-1.655036,0.413558\O,0,0.888428,1.294123,

 Normal termination of Gaussian 16 at Tue Apr  8 22:40:49 2025.
