 Gaussian 16, Revision C.01,

 ----------------------------------------------------------------------
 #t hf aug-cc-pvdz symm=none int=(grid=ultrafine) guess=(read,tcheck) s
 table=(opt,rrhf)
 ----------------------------------------------------------------------
 -----
 title
 -----
 Symbolic Z-matrix:
 Charge =  0 Multiplicity = 1

 SCF Done:  E(RHF) =  -437.005938888     A.U. after   12 cycles
 Normal termination of Gaussian 16 at Wed Apr  9 00:29:43 2025.
 Gaussian 16:  ES64L-G16RevC.01  3-Jul-2019

 ----------------------------------------------------------------------
 #t hf aug-cc-pvdz iop(5/13=1,5/36=2,99/5=2) pseudo=read geom=check gue
 ss=(read,tcheck) scf=(maxcycle=1)
 ----------------------------------------------------------------------
 -----
 title
 -----
 Structure from the checkpoint file:  "BDE49_nonexpt_332_mol1.chk"
 Charge =  0 Multiplicity = 1

                         Standard orientation:
 ---------------------------------------------------------------------
 Center     Atomic      Atomic             Coordinates (Angstroms)
 Number     Number       Type             X           Y           Z
 ---------------------------------------------------------------------
      1          6           0        0.406893   -0.020846    0.000000
      2          5           0       -1.061761   -0.663419   -0.000006
      3          9           0        1.104588   -0.434509    1.093268
      4          9           0        0.437406    1.327925   -0.000001
      5          9           0        1.104594   -0.434510   -1.093264
      6          8           0       -2.102873    0.177429   -0.000002
      7          1           0       -2.961083   -0.258978    0.000004
      8          1           0       -1.167776   -1.848442    0.000009
 ---------------------------------------------------------------------

 SCF Done:  E(RHF) =  -438.601551034     A.U. after    2 cycles

 The electronic state is 1-A.
 Alpha  occ. eigenvalues --  -29.29902 -29.29867 -29.29684 -21.10339 -11.54008
 Alpha  occ. eigenvalues --   -7.66692  -1.79020  -1.38605  -0.89347  -0.85718
 Alpha  occ. eigenvalues --   -0.85649  -0.66587  -0.64020  -0.47956  -0.47369
 Alpha  occ. eigenvalues --   -0.45189  -0.42422  -0.41122  -0.35501  -0.35151
 Alpha  occ. eigenvalues --   -0.25582  -0.25158  -0.24737  -0.20462
 Alpha virt. eigenvalues --    0.02465   0.04508   0.04537   0.07022   0.09286
 Alpha virt. eigenvalues --    0.09559   0.12615   0.14020   0.16069   0.16175
 Alpha virt. eigenvalues --    0.18081   0.21233   0.21887   0.22177   0.24101

 Mulliken charges:
               1
     1  C   -2.367171
     2  B    6.984385
     3  F    0.069546
     4  F    0.218866
     5  F    0.069546
     6  O   -3.198549
     7  H    1.246832
     8  H   -3.023455
 Sum of Mulliken charges =  -0.00000

 Dipole moment (field-independent basis, Debye):
    X=             -0.3315    Y=              0.2730    Z=              0.0000  Tot=              0.4295

 Test job not archived.
 1\1\GINC-SE455\SP\RHF\Aug-CC-pVDZ\C1H2B1F3O1\OHZDE\09-Apr-2025\0\\#t h
 f aug-cc-pvdz iop(5/13=1,5/36=2,99/5=2) pseudo=read geom=check guess=(
 read,tcheck) scf=(maxcycle=1)\\title\\0,1\C,0,0.406893,-0.020846,0.\B,
 0,-1.061761,-0.663419,-0.000006\F,0,1.104588,-0.434509,1.093268\F,0,0.
 437406,1.327925,-0.000001\F,0,1.104594,-0.43451,-1.093264\O,0,-2.10287
 3,0.177429,-0.000002\H,0,-2.961083,-0.258977,0.000004\H,0,-1.167776,-1
 .848442,0.000009\\Version=ES64L-G16RevC.01\State=1-A\HF=-438.601551\RM
 SD=1.394e-01\Dipole=-0.1304211,0.1074242,0.0000007\Quadrupole=3.593820

 Normal termination of Gaussian 16 at Wed Apr  9 00:29:45 2025.
