 Gaussian 16, Revision C.01,

 ----------------------------------------------------------------------
 #t hf aug-cc-pvdz symm=none int=(grid=ultrafine) guess=(read,tcheck) s
 table=(opt,rrhf)
 ----------------------------------------------------------------------
 -----
 title
 -----
 Symbolic Z-matrix:
 Charge =  0 Multiplicity = 1

 SCF Done:  E(RHF) =  -769.016327699     A.U. after   13 cycles
 Normal termination of Gaussian 16 at Wed Apr  9 00:10:52 2025.
 Gaussian 16:  ES64L-G16RevC.01  3-Jul-2019

 ----------------------------------------------------------------------
 #t hf aug-cc-pvdz iop(5/13=1,5/36=2,99/5=2) pseudo=read geom=check gue
 ss=(read,tcheck) scf=(maxcycle=1)
 ----------------------------------------------------------------------
 -----
 title
 -----
 Structure from the checkpoint file:  "BDE49_nonexpt_2361_mol1.chk"
 Charge =  0 Multiplicity = 1

                         Standard orientation:
 ---------------------------------------------------------------------
 Center     Atomic      Atomic             Coordinates (Angstroms)
 Number     Number       Type             X           Y           Z
 ---------------------------------------------------------------------
      1         14           0       -0.214416    1.112884    0.231705
      2         14           0       -1.827372   -0.568734   -0.134589
      3          8           0        1.322713    0.714784   -0.423836
      4          1           0       -0.032372    1.400951    1.671947
      5          1           0       -0.528330    2.367334   -0.481496
      6          6           0        1.880358   -0.481146   -0.205019
      7          1           0       -3.160034    0.081690   -0.215472
      8          1           0       -1.839081   -1.550635    0.969623
      9          1           0       -1.559526   -1.250580   -1.422273
     10          8           0        1.371736   -1.368727    0.427874
     11          1           0        2.866639   -0.548446   -0.684136
 ---------------------------------------------------------------------

 SCF Done:  E(RHF) =  -770.111159481     A.U. after    2 cycles

 The electronic state is 1-A.
 Alpha  occ. eigenvalues --  -76.25441 -76.22131 -21.09712 -21.07122 -11.51992
 Alpha  occ. eigenvalues --   -5.58879  -5.55517  -2.24274  -2.20650  -2.19956
 Alpha  occ. eigenvalues --   -2.17637  -2.17570  -2.16691  -1.82151  -1.65870
 Alpha  occ. eigenvalues --   -0.89975  -0.79429  -0.71692  -0.65744  -0.57200
 Alpha  occ. eigenvalues --   -0.55445  -0.49676  -0.47722  -0.46753  -0.43504
 Alpha  occ. eigenvalues --   -0.37050  -0.33604  -0.32150
 Alpha virt. eigenvalues --    0.03725   0.04627   0.05350   0.06070   0.07090
 Alpha virt. eigenvalues --    0.07609   0.08099   0.08760   0.09543   0.09807
 Alpha virt. eigenvalues --    0.10087   0.10547   0.11265   0.12460   0.13128

 Mulliken charges:
               1
     1  Si   4.671325
     2  Si   4.517460
     3  O   -3.085932
     4  H   -1.721439
     5  H   -1.692650
     6  C    2.488117
     7  H   -1.556391
     8  H   -1.531163
     9  H   -1.494553
    10  O   -2.276680
    11  H    1.681906
 Sum of Mulliken charges =   0.00000

 Dipole moment (field-independent basis, Debye):
    X=              0.4627    Y=              0.4473    Z=             -0.5224  Tot=              0.8289

 Test job not archived.
 1\1\GINC-SE070\SP\RHF\Aug-CC-pVDZ\C1H6O2Si2\OHZDE\09-Apr-2025\0\\#t hf
  aug-cc-pvdz iop(5/13=1,5/36=2,99/5=2) pseudo=read geom=check guess=(r
 ead,tcheck) scf=(maxcycle=1)\\title\\0,1\Si,0,-0.214416,1.112884,0.231
 705\Si,0,-1.827372,-0.568734,-0.134589\O,0,1.322713,0.714784,-0.423836
 \H,0,-0.032372,1.400951,1.671947\H,0,-0.52833,2.367334,-0.481496\C,0,1
 .880358,-0.481146,-0.205019\H,0,-3.160034,0.08169,-0.215472\H,0,-1.839
 081,-1.550635,0.969623\H,0,-1.559526,-1.25058,-1.422273\O,0,1.371736,-
 1.368727,0.427874\H,0,2.866639,-0.548446,-0.684136\\Version=ES64L-G16R

 Normal termination of Gaussian 16 at Wed Apr  9 00:10:55 2025.
