 Gaussian 16, Revision C.01,

 ----------------------------------------------------------------------
 #t hf aug-cc-pvdz symm=none int=(grid=ultrafine) guess=(read,tcheck) s
 table=(opt,rrhf)
 ----------------------------------------------------------------------
 -----
 title
 -----
 Symbolic Z-matrix:
 Charge =  0 Multiplicity = 1

 SCF Done:  E(RHF) =  -795.948727369     A.U. after   18 cycles
 Normal termination of Gaussian 16 at Tue Apr  8 22:57:04 2025.
 Gaussian 16:  ES64L-G16RevC.01  3-Jul-2019

 ----------------------------------------------------------------------
 #t hf aug-cc-pvdz iop(5/13=1,5/36=2,99/5=2) pseudo=read geom=check gue
 ss=(read,tcheck) scf=(maxcycle=1)
 ----------------------------------------------------------------------
 -----
 title
 -----
 Structure from the checkpoint file:  "BDE49_expt_1829_mol1.chk"
 Charge =  0 Multiplicity = 1

                         Standard orientation:
 ---------------------------------------------------------------------
 Center     Atomic      Atomic             Coordinates (Angstroms)
 Number     Number       Type             X           Y           Z
 ---------------------------------------------------------------------
      1          7           0       -2.911035    0.000016    0.885260
      2          8           0       -2.136779   -0.000371    1.754075
      3         16           0       -2.170237    0.000118   -0.917284
      4          6           0       -0.441453    0.000074   -0.564212
      5          6           0        0.249274   -1.207151   -0.397667
      6          6           0        1.604502   -1.200561   -0.089562
      7          6           0        2.305444    0.000003    0.071319
      8          6           0        1.604491    1.200609   -0.089222
      9          6           0        0.249263    1.207255   -0.397325
     10          1           0       -0.278931   -2.144958   -0.520256
     11          1           0        2.127322   -2.144217    0.027757
     12          6           0        3.769220   -0.000055    0.435783
     13          1           0       -0.278952    2.145097   -0.519608
     14          1           0        4.277469    0.884888    0.046704
     15          1           0        4.277620   -0.884522    0.045813
     16          1           0        3.899011   -0.000598    1.523642
     17          1           0        2.127288    2.144241    0.028391
 ---------------------------------------------------------------------

 SCF Done:  E(RHF) =  -798.023806964     A.U. after    2 cycles

 The electronic state is 1-A.
 Alpha  occ. eigenvalues --  -75.70867 -21.17137 -15.92142 -13.20542 -13.09101
 Alpha  occ. eigenvalues --  -13.08543 -11.52208 -11.44870 -11.44469 -11.43976
 Alpha  occ. eigenvalues --  -11.41620 -11.39709 -11.37234  -8.04731  -1.90997
 Alpha  occ. eigenvalues --   -1.37338  -1.20550  -1.10958  -1.10342  -1.00217
 Alpha  occ. eigenvalues --   -0.91708  -0.88034  -0.82042  -0.68231  -0.65067
 Alpha  occ. eigenvalues --   -0.62504  -0.62136  -0.58840  -0.58770  -0.58501
 Alpha  occ. eigenvalues --   -0.56719  -0.53176  -0.50474  -0.49562  -0.45188
 Alpha  occ. eigenvalues --   -0.39407  -0.34203  -0.34072  -0.25564  -0.24277
 Alpha virt. eigenvalues --    0.03204   0.04536   0.05073   0.05857   0.06005
 Alpha virt. eigenvalues --    0.06587   0.07827   0.08216   0.09003   0.09558
 Alpha virt. eigenvalues --    0.10097   0.10616   0.11648   0.13118   0.13118

 Mulliken charges:
               1
     1  N    1.360562
     2  O   -1.826378
     3  S    0.727300
     4  C    2.471897
     5  C   -4.316386
     6  C   -1.105632
     7  C    2.575780
     8  C   -1.105631
     9  C   -4.316294
    10  H    1.848698
    11  H    1.879979
    12  C   -5.359411
    13  H    1.848649
    14  H    1.140362
    15  H    1.140120
    16  H    1.156404
    17  H    1.879980
 Sum of Mulliken charges =  -0.00000

 Dipole moment (field-independent basis, Debye):
    X=              2.4646    Y=             -0.0003    Z=             -0.2559  Tot=              2.4778

 Test job not archived.
 1\1\GINC-SE072\SP\RHF\Aug-CC-pVDZ\C7H7N1O1S1\OHZDE\08-Apr-2025\0\\#t h
 f aug-cc-pvdz iop(5/13=1,5/36=2,99/5=2) pseudo=read geom=check guess=(
 read,tcheck) scf=(maxcycle=1)\\title\\0,1\N,0,-2.911035,0.000016,0.885
 26\O,0,-2.136779,-0.000371,1.754075\S,0,-2.170237,0.000118,-0.917284\C
 ,0,-0.441453,0.000074,-0.564212\C,0,0.249274,-1.207151,-0.397667\C,0,1
 .604502,-1.200561,-0.089562\C,0,2.305444,0.000003,0.071319\C,0,1.60449
 1,1.200609,-0.089222\C,0,0.249263,1.207255,-0.397325\H,0,-0.278931,-2.
 144958,-0.520256\H,0,2.127322,-2.144217,0.027757\C,0,3.76922,-0.000055

 Normal termination of Gaussian 16 at Tue Apr  8 22:57:12 2025.
