 Gaussian 16, Revision C.01,

 ----------------------------------------------------------------------
 #t hf aug-cc-pvdz symm=none int=(grid=ultrafine) guess=(read,tcheck) s
 table=(opt,rrhf)
 ----------------------------------------------------------------------
 -----
 title
 -----
 Symbolic Z-matrix:
 Charge =  0 Multiplicity = 1

 SCF Done:  E(RHF) =  -231.387064297     A.U. after   12 cycles
 Normal termination of Gaussian 16 at Wed Apr  9 00:38:49 2025.
 Gaussian 16:  ES64L-G16RevC.01  3-Jul-2019

 ----------------------------------------------------------------------
 #t hf aug-cc-pvdz iop(5/13=1,5/36=2,99/5=2) pseudo=read geom=check gue
 ss=(read,tcheck) scf=(maxcycle=1)
 ----------------------------------------------------------------------
 -----
 title
 -----
 Structure from the checkpoint file:  "BDE49_nonexpt_600_mol1.chk"
 Charge =  0 Multiplicity = 1

                         Standard orientation:
 ---------------------------------------------------------------------
 Center     Atomic      Atomic             Coordinates (Angstroms)
 Number     Number       Type             X           Y           Z
 ---------------------------------------------------------------------
      1          7           0        1.388165   -0.168014    0.000003
      2          5           0       -0.018232   -0.008933   -0.000005
      3          8           0       -0.655411    1.217874    0.000002
      4          8           0       -0.804778   -1.136387   -0.000004
      5          1           0       -1.737426   -0.906143   -0.000004
      6          1           0       -0.062004    1.971299    0.000007
      7          1           0        2.050496    0.587404    0.000010
      8          1           0        1.804443   -1.083687    0.000004
 ---------------------------------------------------------------------

 SCF Done:  E(RHF) =  -232.361657914     A.U. after    2 cycles

 The electronic state is 1-A.
 Alpha  occ. eigenvalues --  -21.05258 -21.04023 -15.71554  -7.63176  -1.81211
 Alpha  occ. eigenvalues --   -1.64455  -1.28498  -0.77860  -0.68354  -0.64168
 Alpha  occ. eigenvalues --   -0.56656  -0.50417  -0.43077  -0.38664  -0.35667
 Alpha  occ. eigenvalues --   -0.35239
 Alpha virt. eigenvalues --    0.03059   0.04661   0.04897   0.05311   0.08057
 Alpha virt. eigenvalues --    0.08799   0.09237   0.10089   0.16356   0.18905
 Alpha virt. eigenvalues --    0.19371   0.19740   0.22103   0.23036   0.23444

 Mulliken charges:
               1
     1  N   -2.964801
     2  B    6.823568
     3  O   -3.559570
     4  O   -3.693735
     5  H    0.973521
     6  H    1.033985
     7  H    0.561550
     8  H    0.825480
 Sum of Mulliken charges =  -0.00000

 Dipole moment (field-independent basis, Debye):
    X=              1.0362    Y=              0.8584    Z=              0.0000  Tot=              1.3456

 Test job not archived.
 1\1\GINC-SE069\SP\RHF\Aug-CC-pVDZ\B1H4N1O2\OHZDE\09-Apr-2025\0\\#t hf
 aug-cc-pvdz iop(5/13=1,5/36=2,99/5=2) pseudo=read geom=check guess=(re
 ad,tcheck) scf=(maxcycle=1)\\title\\0,1\N,0,1.388165,-0.168014,0.00000
 3\B,0,-0.018232,-0.008933,-0.000005\O,0,-0.65541,1.217874,0.000002\O,0
 ,-0.804778,-1.136387,-0.000004\H,0,-1.737426,-0.906142,-0.000004\H,0,-
 0.062003,1.971299,0.000007\H,0,2.050496,0.587403,0.00001\H,0,1.804443,
 -1.083688,0.000004\\Version=ES64L-G16RevC.01\State=1-A\HF=-232.3616579
 \RMSD=1.161e-01\Dipole=0.4076763,0.3377308,0.0000026\Quadrupole=1.9967

 Normal termination of Gaussian 16 at Wed Apr  9 00:38:51 2025.
