 Gaussian 16, Revision C.01,

 ----------------------------------------------------------------------
 #t hf aug-cc-pvdz symm=none int=(grid=ultrafine) guess=(read,tcheck) s
 table=(opt,rrhf)
 ----------------------------------------------------------------------
 -----
 title
 -----
 Symbolic Z-matrix:
 Charge =  0 Multiplicity = 1

 SCF Done:  E(RHF) =  -348.142999755     A.U. after   14 cycles

 1\1\GINC-SE340\Stability\RHF\Aug-CC-pVDZ\C7H14O1\OHZDE\08-Apr-2025\0\\
 #t hf aug-cc-pvdz symm=none int=(grid=ultrafine) guess=(read,tcheck) s
 table=(opt,rrhf)\\title\\0,1\C,0,2.481903,-0.041485,0.673762\C,0,1.192
 821,-0.849769,0.504205\C,0,-0.000004,-0.043733,0.000036\H,0,0.880281,-
 1.27863,1.466581\H,0,1.346385,-1.7114,-0.157798\O,0,0.000009,1.167814,
 0.000075\C,0,-1.192809,-0.849711,-0.504272\C,0,-2.481886,-0.041408,-0.
 673784\H,0,-1.346397,-1.711418,0.157626\H,0,-0.880235,-1.278462,-1.466
 687\C,0,3.126831,0.362236,-0.655846\H,0,3.191447,-0.633294,1.261191\H,

 Normal termination of Gaussian 16 at Tue Apr  8 23:03:50 2025.
 Gaussian 16:  ES64L-G16RevC.01  3-Jul-2019

 ----------------------------------------------------------------------
 #t hf aug-cc-pvdz iop(5/13=1,5/36=2,99/5=2) pseudo=read geom=check gue
 ss=(read,tcheck) scf=(maxcycle=1)
 ----------------------------------------------------------------------
 -----
 title
 -----
 Structure from the checkpoint file:  "BDE49_expt_226_mol1.chk"
 Charge =  0 Multiplicity = 1

                         Standard orientation:
 ---------------------------------------------------------------------
 Center     Atomic      Atomic             Coordinates (Angstroms)
 Number     Number       Type             X           Y           Z
 ---------------------------------------------------------------------
      1          6           0        2.481903    0.041485   -0.673762
      2          6           0        1.192821    0.849769   -0.504205
      3          6           0       -0.000004    0.043733   -0.000036
      4          1           0        0.880281    1.278630   -1.466581
      5          1           0        1.346385    1.711400    0.157798
      6          8           0        0.000009   -1.167814   -0.000075
      7          6           0       -1.192809    0.849711    0.504272
      8          6           0       -2.481886    0.041408    0.673784
      9          1           0       -1.346397    1.711418   -0.157626
     10          1           0       -0.880235    1.278462    1.466687
     11          6           0        3.126831   -0.362236    0.655846
     12          1           0        3.191447    0.633294   -1.261191
     13          1           0        2.255650   -0.855817   -1.255838
     14          1           0        3.373132    0.517091    1.260398
     15          1           0        4.053248   -0.917992    0.488790
     16          1           0        2.458063   -1.000445    1.237356
     17          6           0       -3.126865   -0.362157   -0.655847
     18          1           0       -3.191407    0.633150    1.261308
     19          1           0       -2.255611   -0.855962    1.255746
     20          1           0       -3.373187    0.517241   -1.260287
     21          1           0       -4.053276   -0.917931   -0.488821
     22          1           0       -2.458119   -1.000298   -1.237457
 ---------------------------------------------------------------------

 SCF Done:  E(RHF) =  -349.852724047     A.U. after    2 cycles

 The electronic state is 1-A.
 Alpha  occ. eigenvalues --  -21.04308 -11.50069 -11.43328 -11.42020 -11.39289
 Alpha  occ. eigenvalues --  -11.38411 -11.35422 -11.34918  -1.70460  -1.24184
 Alpha  occ. eigenvalues --   -1.19397  -1.06378  -0.99853  -0.88445  -0.83918
 Alpha  occ. eigenvalues --   -0.72251  -0.66675  -0.64198  -0.60852  -0.60356
 Alpha  occ. eigenvalues --   -0.56408  -0.56088  -0.54299  -0.49457  -0.48358
 Alpha  occ. eigenvalues --   -0.47553  -0.46728  -0.45548  -0.44068  -0.43053
 Alpha  occ. eigenvalues --   -0.39973  -0.27736
 Alpha virt. eigenvalues --    0.03749   0.04569   0.05072   0.05092   0.05318
 Alpha virt. eigenvalues --    0.05679   0.05747   0.06691   0.07220   0.07760
 Alpha virt. eigenvalues --    0.08034   0.08652   0.08870   0.09340   0.12071

 Mulliken charges:
               1
     1  C   -3.338315
     2  C   -3.704172
     3  C    5.836474
     4  H    1.407093
     5  H    1.662194
     6  O   -3.498620
     7  C   -3.704162
     8  C   -3.338279
     9  H    1.662198
    10  H    1.407073
    11  C   -3.778978
    12  H    1.236039
    13  H    1.534308
    14  H    1.299028
    15  H    1.174066
    16  H    1.339786
    17  C   -3.778974
    18  H    1.236044
    19  H    1.534312
    20  H    1.299031
    21  H    1.174067
    22  H    1.339784
 Sum of Mulliken charges =  -0.00000

 Dipole moment (field-independent basis, Debye):
    X=              0.0000    Y=              0.9312    Z=              0.0001  Tot=              0.9312

 Test job not archived.
 1\1\GINC-SE340\SP\RHF\Aug-CC-pVDZ\C7H14O1\OHZDE\08-Apr-2025\0\\#t hf a
 ug-cc-pvdz iop(5/13=1,5/36=2,99/5=2) pseudo=read geom=check guess=(rea
 d,tcheck) scf=(maxcycle=1)\\title\\0,1\C,0,2.481903,-0.041485,0.673762
 \C,0,1.192821,-0.849769,0.504205\C,0,-0.000004,-0.043733,0.000036\H,0,
 0.880281,-1.27863,1.466581\H,0,1.346385,-1.7114,-0.157798\O,0,0.000009
 ,1.167814,0.000075\C,0,-1.192809,-0.849711,-0.504272\C,0,-2.481886,-0.
 041408,-0.673784\H,0,-1.346397,-1.711418,0.157626\H,0,-0.880235,-1.278
 462,-1.466687\C,0,3.126831,0.362236,-0.655846\H,0,3.191447,-0.633294,1

 Normal termination of Gaussian 16 at Tue Apr  8 23:03:59 2025.
