 Gaussian 16, Revision C.01,

 ----------------------------------------------------------------------
 #t hf aug-cc-pvdz symm=none int=(grid=ultrafine) guess=(read,tcheck) s
 table=(opt,rrhf)
 ----------------------------------------------------------------------
 -----
 title
 -----
 Symbolic Z-matrix:
 Charge =  0 Multiplicity = 1

 SCF Done:  E(RHF) =  -1138.89933085     A.U. after   15 cycles
 Normal termination of Gaussian 16 at Tue Apr  8 23:42:41 2025.
 Gaussian 16:  ES64L-G16RevC.01  3-Jul-2019

 ----------------------------------------------------------------------
 #t hf aug-cc-pvdz iop(5/13=1,5/36=2,99/5=2) pseudo=read geom=check gue
 ss=(read,tcheck) scf=(maxcycle=1)
 ----------------------------------------------------------------------
 -----
 title
 -----
 Structure from the checkpoint file:  "BDE49_nonexpt_1648_mol1.chk"
 Charge =  0 Multiplicity = 1

                         Standard orientation:
 ---------------------------------------------------------------------
 Center     Atomic      Atomic             Coordinates (Angstroms)
 Number     Number       Type             X           Y           Z
 ---------------------------------------------------------------------
      1          6           0        1.085269   -1.384164   -1.725573
      2         14           0        0.625879   -0.688169   -0.063570
      3          1           0        0.851789   -0.683095   -2.529864
      4          1           0        0.517891   -2.301469   -1.905577
      5          1           0        2.152275   -1.617560   -1.759503
      6          6           0        1.091908   -1.718159    1.408833
      7          1           0        0.840589   -1.205744    2.339336
      8          1           0        2.163070   -1.931429    1.398623
      9          1           0        0.545122   -2.665162    1.382136
     10         15           0       -1.529643    0.034660   -0.036736
     11          7           0        1.656394    0.905779    0.070955
     12          8           0        1.128936    2.012692   -0.097336
     13          8           0        2.848762    0.756252    0.297806
     14          8           0       -2.516675   -0.941650   -0.519520
     15          8           0       -1.538950    1.406063   -0.859531
     16          8           0       -1.693898    0.448351    1.519035
     17          1           0       -2.608331    0.383560    1.827005
     18          1           0       -0.763290    1.955168   -0.631004
 ---------------------------------------------------------------------

 SCF Done:  E(RHF) =  -1141.44577514     A.U. after    2 cycles

 The electronic state is 1-A.
 Alpha  occ. eigenvalues -- -105.31016 -76.28415 -21.12349 -21.11848 -21.11060
 Alpha  occ. eigenvalues --  -21.10932 -21.02994 -15.97877 -11.39362 -11.39282
 Alpha  occ. eigenvalues --   -5.62548  -2.93001  -2.26461  -2.26311  -2.24793
 Alpha  occ. eigenvalues --   -1.99185  -1.97421  -1.90872  -1.78995  -1.69979
 Alpha  occ. eigenvalues --   -1.51548  -1.40237  -1.26001  -1.11433  -1.05711
 Alpha  occ. eigenvalues --   -0.99699  -0.74985  -0.71979  -0.66823  -0.62563
 Alpha  occ. eigenvalues --   -0.62272  -0.60555  -0.59938  -0.59293  -0.58698
 Alpha  occ. eigenvalues --   -0.57455  -0.54304  -0.46693  -0.45028  -0.40171
 Alpha  occ. eigenvalues --   -0.36203  -0.35808  -0.33866  -0.33435  -0.33082
 Alpha  occ. eigenvalues --   -0.29131  -0.22598  -0.15082
 Alpha virt. eigenvalues --    0.02797   0.04503   0.04995   0.05831   0.06288
 Alpha virt. eigenvalues --    0.06921   0.07028   0.07743   0.08748   0.09337
 Alpha virt. eigenvalues --    0.09579   0.10423   0.10781   0.11474   0.12468

 Mulliken charges:
               1
     1  C   -5.615194
     2  Si   5.749206
     3  H    1.158234
     4  H    1.114063
     5  H    1.211630
     6  C   -5.782087
     7  H    1.226418
     8  H    1.214545
     9  H    1.258532
    10  P    7.341039
    11  N    2.611761
    12  O   -2.084175
    13  O   -2.330504
    14  O   -3.084401
    15  O   -3.391964
    16  O   -2.883339
    17  H    0.897498
    18  H    1.388737
 Sum of Mulliken charges =   0.00000

 Dipole moment (field-independent basis, Debye):
    X=              0.2374    Y=             -0.1458    Z=              1.3564  Tot=              1.3847

 Test job not archived.
 1\1\GINC-SE082\SP\RHF\Aug-CC-pVDZ\C2H8N1O5P1Si1\OHZDE\08-Apr-2025\0\\#
 t hf aug-cc-pvdz iop(5/13=1,5/36=2,99/5=2) pseudo=read geom=check gues
 s=(read,tcheck) scf=(maxcycle=1)\\title\\0,1\C,0,1.085269,1.384164,1.7
 25573\Si,0,0.625879,0.688169,0.06357\H,0,0.851789,0.683095,2.529864\H,
 0,0.517891,2.301469,1.905577\H,0,2.152275,1.61756,1.759503\C,0,1.09190
 8,1.718159,-1.408833\H,0,0.840589,1.205744,-2.339336\H,0,2.16307,1.931
 429,-1.398623\H,0,0.545122,2.665162,-1.382136\P,0,-1.529643,-0.03466,0
 .036736\N,0,1.656394,-0.905779,-0.070955\O,0,1.128936,-2.012692,0.0973

 Normal termination of Gaussian 16 at Tue Apr  8 23:42:52 2025.
