 Gaussian 16, Revision C.01,

 ----------------------------------------------------------------------
 #t hf aug-cc-pvdz symm=none int=(grid=ultrafine) guess=(read,tcheck) s
 table=(opt,rrhf)
 ----------------------------------------------------------------------
 -----
 title
 -----
 Symbolic Z-matrix:
 Charge =  0 Multiplicity = 1

 SCF Done:  E(RHF) =  -562.053470443     A.U. after   14 cycles
 Normal termination of Gaussian 16 at Wed Apr  9 00:46:45 2025.
 Gaussian 16:  ES64L-G16RevC.01  3-Jul-2019

 ----------------------------------------------------------------------
 #t hf aug-cc-pvdz iop(5/13=1,5/36=2,99/5=2) pseudo=read geom=check gue
 ss=(read,tcheck) scf=(maxcycle=1)
 ----------------------------------------------------------------------
 -----
 title
 -----
 Structure from the checkpoint file:  "BDE49_nonexpt_790_mol1.chk"
 Charge =  0 Multiplicity = 1

                         Standard orientation:
 ---------------------------------------------------------------------
 Center     Atomic      Atomic             Coordinates (Angstroms)
 Number     Number       Type             X           Y           Z
 ---------------------------------------------------------------------
      1          6           0        0.109402   -0.167062    0.136546
      2          6           0       -0.465284    1.104386    0.270958
      3          6           0       -1.841325    1.257101    0.125590
      4          7           0       -2.675199    0.247873   -0.146107
      5          6           0       -2.132669   -0.964939   -0.278509
      6          6           0       -0.768295   -1.220416   -0.148336
      7          1           0        0.143626    1.976676    0.485939
      8          1           0       -2.297740    2.237947    0.230203
      9          1           0       -2.822453   -1.775287   -0.499994
     10          1           0       -0.402893   -2.234684   -0.269050
     11          5           0        3.117964    0.802162   -0.752867
     12         14           0        1.967044   -0.450836    0.324377
     13          1           0        2.742001    1.889701   -1.063330
     14          1           0        4.229293    0.496372   -1.055685
     15          1           0        2.358983   -0.197124    1.742062
     16          1           0        2.236164   -1.882238    0.038164
 ---------------------------------------------------------------------

 SCF Done:  E(RHF) =  -563.488767355     A.U. after    2 cycles

 The electronic state is 1-A.
 Alpha  occ. eigenvalues --  -76.21132 -15.73979 -11.47821 -11.44895 -11.42999
 Alpha  occ. eigenvalues --  -11.41493 -11.37460  -7.63078  -5.54906  -2.19775
 Alpha  occ. eigenvalues --   -2.18338  -2.16922  -1.44430  -1.18722  -1.11119
 Alpha  occ. eigenvalues --   -0.90372  -0.88879  -0.85828  -0.74722  -0.67064
 Alpha  occ. eigenvalues --   -0.64859  -0.60453  -0.59057  -0.54171  -0.50522
 Alpha  occ. eigenvalues --   -0.48199  -0.46794  -0.45389  -0.39802  -0.35904
 Alpha  occ. eigenvalues --   -0.34083  -0.33990
 Alpha virt. eigenvalues --    0.01937   0.03168   0.03586   0.03768   0.05789
 Alpha virt. eigenvalues --    0.05945   0.06760   0.07560   0.08245   0.08384
 Alpha virt. eigenvalues --    0.08812   0.09375   0.10102   0.10494   0.10915

 Mulliken charges:
               1
     1  C    0.757020
     2  C   -0.929773
     3  C   -1.061553
     4  N   -3.489363
     5  C   -0.958045
     6  C   -1.341365
     7  H    1.795274
     8  H    1.519778
     9  H    1.536188
    10  H    1.722724
    11  B    2.931712
    12  Si   5.659068
    13  H   -2.093296
    14  H   -2.362070
    15  H   -1.919393
    16  H   -1.766904
 Sum of Mulliken charges =  -0.00000

 Dipole moment (field-independent basis, Debye):
    X=              1.3738    Y=              0.1430    Z=             -0.3834  Tot=              1.4335

 Test job not archived.
 1\1\GINC-SE219\SP\RHF\Aug-CC-pVDZ\C5H8B1N1Si1\OHZDE\09-Apr-2025\0\\#t
 hf aug-cc-pvdz iop(5/13=1,5/36=2,99/5=2) pseudo=read geom=check guess=
 (read,tcheck) scf=(maxcycle=1)\\title\\0,1\C,0,0.109402,-0.167062,0.13
 6546\C,0,-0.465284,1.104386,0.270958\C,0,-1.841325,1.257101,0.12559\N,
 0,-2.675199,0.247873,-0.146107\C,0,-2.132669,-0.964939,-0.278509\C,0,-
 0.768295,-1.220416,-0.148336\H,0,0.143626,1.976676,0.485939\H,0,-2.297
 74,2.237947,0.230203\H,0,-2.822453,-1.775287,-0.499994\H,0,-0.402893,-
 2.234684,-0.26905\B,0,3.117964,0.802162,-0.752867\Si,0,1.967044,-0.450

 Normal termination of Gaussian 16 at Wed Apr  9 00:46:52 2025.
