 Gaussian 16, Revision C.01,

 ----------------------------------------------------------------------
 #t hf aug-cc-pvdz symm=none int=(grid=ultrafine) guess=(read,tcheck) s
 table=opt
 ----------------------------------------------------------------------
 -----
 title
 -----
 Symbolic Z-matrix:
 Charge =  0 Multiplicity = 2

 SCF Done:  E(UHF) =  -522.274000129     A.U. after   16 cycles
 Normal termination of Gaussian 16 at Wed Apr  9 00:30:42 2025.
 Gaussian 16:  ES64L-G16RevC.01  3-Jul-2019

 ----------------------------------------------------------------------
 #t hf aug-cc-pvdz iop(5/13=1,5/36=2,99/5=2) pseudo=read geom=check gue
 ss=(read,tcheck) scf=(maxcycle=1)
 ----------------------------------------------------------------------
 -----
 title
 -----
 Structure from the checkpoint file:  "BDE49_nonexpt_348_mol2.chk"
 Charge =  0 Multiplicity = 2

                         Standard orientation:
 ---------------------------------------------------------------------
 Center     Atomic      Atomic             Coordinates (Angstroms)
 Number     Number       Type             X           Y           Z
 ---------------------------------------------------------------------
      1          9           0        1.681392    0.185192   -0.000003
      2         16           0       -1.086094   -0.004980   -0.000006
      3          5           0        0.614822   -0.582404    0.000020
      4          1           0       -0.829142    1.324968    0.000015
 ---------------------------------------------------------------------

 SCF Done:  E(UHF) =  -522.915259643     A.U. after    2 cycles

 The electronic state is 2-A.
 Alpha  occ. eigenvalues --  -75.71133 -29.27643 -13.16335 -13.10254 -13.03839
 Alpha  occ. eigenvalues --   -8.05136  -7.71267  -1.19441  -0.92563  -0.59790
 Alpha  occ. eigenvalues --   -0.50379  -0.46410  -0.44589  -0.37800  -0.28420
 Alpha  occ. eigenvalues --   -0.22819
 Alpha virt. eigenvalues --    0.02774   0.04113   0.04450   0.06195   0.11528
 Alpha virt. eigenvalues --    0.12105   0.12531   0.14208   0.16738   0.18031
 Alpha virt. eigenvalues --    0.22432   0.23385   0.23585   0.25397   0.26599

  Beta  occ. eigenvalues --  -75.71064 -29.27358 -13.16183 -13.10033 -13.03910
  Beta  occ. eigenvalues --   -8.05019  -7.69208  -1.17741  -0.89605  -0.56724
  Beta  occ. eigenvalues --   -0.46595  -0.45401  -0.41703  -0.33598  -0.28520
  Beta virt. eigenvalues --    0.01364   0.03470   0.04185   0.05708   0.10600
  Beta virt. eigenvalues --    0.11744   0.13073   0.14239   0.14364   0.18202
  Beta virt. eigenvalues --    0.19185   0.23155   0.23661   0.24576   0.26071

 Mulliken charges and spin densities:
               1          2
     1  F    0.110089  -0.107226
     2  S   -1.898572  -0.049392
     3  B    0.853282   1.094817
     4  H    0.935201   0.061802
 Sum of Mulliken charges =  -0.00000   1.00000

 Dipole moment (field-independent basis, Debye):
    X=              1.6486    Y=              1.6663    Z=             -0.0001  Tot=              2.3440
                          Isotropic Fermi Contact Couplings
        Atom                 a.u.       MegaHertz       Gauss      10(-4) cm-1
     1  F(19)              0.04257     179.11590      63.91301      59.74663
     2  S(33)              0.58224     199.98230      71.35866      66.70692
     3  B(11)              0.18823     269.99682      96.34158      90.06125
     4  H(1)               0.01268      56.69763      20.23112      18.91229
 --------------------------------------------------------
       Center         ----  Spin Dipole Couplings  ----
                      3XX-RR        3YY-RR        3ZZ-RR
 --------------------------------------------------------

 Normal termination of Gaussian 16 at Wed Apr  9 00:30:44 2025.
