 Gaussian 16, Revision C.01,

 ----------------------------------------------------------------------
 #t hf aug-cc-pvdz symm=none int=(grid=ultrafine) guess=(read,tcheck) s
 table=opt
 ----------------------------------------------------------------------
 -----
 title
 -----
 Symbolic Z-matrix:
 Charge =  0 Multiplicity = 2

 SCF Done:  E(UHF) =  -142.940339523     A.U. after   14 cycles
 Normal termination of Gaussian 16 at Wed Apr  9 00:29:20 2025.
 Gaussian 16:  ES64L-G16RevC.01  3-Jul-2019

 ----------------------------------------------------------------------
 #t hf aug-cc-pvdz iop(5/13=1,5/36=2,99/5=2) pseudo=read geom=check gue
 ss=(read,tcheck) scf=(maxcycle=1)
 ----------------------------------------------------------------------
 -----
 title
 -----
 Structure from the checkpoint file:  "BDE49_nonexpt_312_mol2.chk"
 Charge =  0 Multiplicity = 2

                         Standard orientation:
 ---------------------------------------------------------------------
 Center     Atomic      Atomic             Coordinates (Angstroms)
 Number     Number       Type             X           Y           Z
 ---------------------------------------------------------------------
      1          6           0       -1.366007   -0.725405   -0.006707
      2          5           0        0.000000    0.064003   -0.000062
      3          1           0       -1.312217   -1.672051   -0.554958
      4          1           0       -2.220825   -0.151366   -0.376197
      5          1           0       -1.601269   -1.001722    1.033113
      6          6           0        1.366002   -0.725411    0.006705
      7          1           0        1.312165   -1.672058    0.554949
      8          1           0        2.220794   -0.151377    0.376268
      9          1           0        1.601348   -1.001722   -1.033097
     10          6           0        0.000003    1.605696    0.000046
     11          1           0       -0.911068    2.200503   -0.036059
     12          1           0        0.911084    2.200496    0.036029
 ---------------------------------------------------------------------

 SCF Done:  E(UHF) =  -143.660498054     A.U. after    2 cycles

 The electronic state is 2-A.
 Alpha  occ. eigenvalues --  -11.35771 -11.32398 -11.32112  -7.57826  -1.16557
 Alpha  occ. eigenvalues --   -0.99782  -0.98867  -0.67405  -0.59266  -0.57452
 Alpha  occ. eigenvalues --   -0.55276  -0.52043  -0.50901  -0.41337  -0.39082
 Alpha  occ. eigenvalues --   -0.36888
 Alpha virt. eigenvalues --    0.03058   0.04481   0.04561   0.04670   0.07534
 Alpha virt. eigenvalues --    0.07715   0.08037   0.08764   0.08878   0.09215
 Alpha virt. eigenvalues --    0.09948   0.09950   0.15219   0.15633   0.16175

  Beta  occ. eigenvalues --  -11.34052 -11.32393 -11.32127  -7.57841  -1.14276
  Beta  occ. eigenvalues --   -0.99713  -0.92689  -0.66259  -0.58221  -0.57330
  Beta  occ. eigenvalues --   -0.54612  -0.51765  -0.50627  -0.39971  -0.39103
  Beta virt. eigenvalues --    0.03207   0.03713   0.04542   0.04577   0.05533
  Beta virt. eigenvalues --    0.07545   0.07731   0.08050   0.08954   0.09070
  Beta virt. eigenvalues --    0.09944   0.09985   0.10185   0.15372   0.16261

 Mulliken charges and spin densities:
               1          2
     1  C   -6.045978  -0.017823
     2  B    8.288554  -0.127997
     3  H    1.097467   0.002907
     4  H    1.103325  -0.002565
     5  H    0.945719   0.012772
     6  C   -6.045881  -0.017817
     7  H    1.097464   0.002906
     8  H    1.103246  -0.002562
     9  H    0.945823   0.012772
    10  C   -5.158975   1.255351
    11  H    1.334659  -0.058974
    12  H    1.334577  -0.058970
 Sum of Mulliken charges =   0.00000   1.00000

 Dipole moment (field-independent basis, Debye):
    X=              0.0000    Y=              0.3378    Z=             -0.0001  Tot=              0.3378
                          Isotropic Fermi Contact Couplings
        Atom                 a.u.       MegaHertz       Gauss      10(-4) cm-1
     1  C(13)             -0.00328      -3.69165      -1.31727      -1.23140
     2  B(11)             -0.00600      -8.61134      -3.07274      -2.87243
     3  H(1)               0.00077       3.45934       1.23438       1.15391
     4  H(1)               0.00013       0.59482       0.21225       0.19841
     5  H(1)               0.00305      13.62951       4.86335       4.54632
     6  C(13)             -0.00328      -3.69164      -1.31727      -1.23140
     7  H(1)               0.00077       3.46048       1.23479       1.15429
     8  H(1)               0.00013       0.59456       0.21216       0.19833

 Normal termination of Gaussian 16 at Wed Apr  9 00:29:24 2025.
