 Gaussian 16, Revision C.01,

 ----------------------------------------------------------------------
 #t hf aug-cc-pvdz symm=none int=(grid=ultrafine) guess=(read,tcheck) s
 table=(opt,rrhf)
 ----------------------------------------------------------------------
 -----
 title
 -----
 Symbolic Z-matrix:
 Charge =  0 Multiplicity = 1

 SCF Done:  E(RHF) =  -885.719501896     A.U. after   13 cycles
 Normal termination of Gaussian 16 at Tue Apr  8 22:58:13 2025.
 Gaussian 16:  ES64L-G16RevC.01  3-Jul-2019

 ----------------------------------------------------------------------
 #t hf aug-cc-pvdz iop(5/13=1,5/36=2,99/5=2) pseudo=read geom=check gue
 ss=(read,tcheck) scf=(maxcycle=1)
 ----------------------------------------------------------------------
 -----
 title
 -----
 Structure from the checkpoint file:  "BDE49_expt_1874_mol1.chk"
 Charge =  0 Multiplicity = 1

                         Standard orientation:
 ---------------------------------------------------------------------
 Center     Atomic      Atomic             Coordinates (Angstroms)
 Number     Number       Type             X           Y           Z
 ---------------------------------------------------------------------
      1          8           0        0.906685   -0.567427   -0.934653
      2          8           0        2.151728   -0.868866   -0.302516
      3          6           0        2.840782    0.289942   -0.072345
      4          6           0       -0.048873   -0.343811    0.031602
      5          8           0       -1.183194   -0.189514   -0.698273
      6          8           0        0.103955   -0.299606    1.201132
      7          8           0        2.510313    1.400829   -0.256210
      8          9           0        4.000919   -0.118775    0.417936
      9          6           0       -2.367536    0.095219   -0.024023
     10          9           0       -2.695553   -0.884654    0.812414
     11          9           0       -3.299420    0.206197   -0.957887
     12          9           0       -2.279516    1.235961    0.651177
 ---------------------------------------------------------------------

 SCF Done:  E(RHF) =  -888.998150694     A.U. after    2 cycles

 The electronic state is 1-A.
 Alpha  occ. eigenvalues --  -29.36360 -29.35365 -29.35183 -29.35136 -21.21347
 Alpha  occ. eigenvalues --  -21.21045 -21.18167 -21.12790 -21.12582 -11.65905
 Alpha  occ. eigenvalues --  -11.62459 -11.62052  -2.11944  -1.95395  -1.80777
 Alpha  occ. eigenvalues --   -1.77101  -1.58573  -1.38837  -1.08534  -0.97954
 Alpha  occ. eigenvalues --   -0.96641  -0.91113  -0.79019  -0.76263  -0.69271
 Alpha  occ. eigenvalues --   -0.66876  -0.66365  -0.63617  -0.57739  -0.52375
 Alpha  occ. eigenvalues --   -0.51350  -0.48446  -0.47365  -0.47281  -0.46089
 Alpha  occ. eigenvalues --   -0.42265  -0.41344  -0.41128  -0.37703  -0.36726
 Alpha  occ. eigenvalues --   -0.35195  -0.34610  -0.33676  -0.32382  -0.29092
 Alpha  occ. eigenvalues --   -0.28767  -0.25032
 Alpha virt. eigenvalues --    0.08571   0.08969   0.10184   0.10693   0.11324
 Alpha virt. eigenvalues --    0.11413   0.11828   0.12461   0.12942   0.14719
 Alpha virt. eigenvalues --    0.15420   0.16215   0.17196   0.18640   0.18800

 Mulliken charges:
               1
     1  O   -1.702003
     2  O   -1.344627
     3  C    3.281463
     4  C    4.860636
     5  O   -2.814311
     6  O   -2.314913
     7  O   -2.616189
     8  F    0.909207
     9  C    0.427163
    10  F    0.420778
    11  F    0.448577
    12  F    0.444219
 Sum of Mulliken charges =  -0.00000

 Dipole moment (field-independent basis, Debye):
    X=              0.1434    Y=             -1.0887    Z=              1.6373  Tot=              1.9714

 Test job not archived.
 1\1\GINC-SE082\SP\RHF\Aug-CC-pVDZ\C3F4O5\OHZDE\08-Apr-2025\0\\#t hf au
 g-cc-pvdz iop(5/13=1,5/36=2,99/5=2) pseudo=read geom=check guess=(read
 ,tcheck) scf=(maxcycle=1)\\title\\0,1\O,0,0.906685,-0.567427,-0.934653
 \O,0,2.151728,-0.868866,-0.302516\C,0,2.840782,0.289942,-0.072345\C,0,
 -0.048873,-0.343811,0.031602\O,0,-1.183194,-0.189514,-0.698273\O,0,0.1
 03955,-0.299606,1.201132\O,0,2.510313,1.400829,-0.25621\F,0,4.000919,-
 0.118775,0.417936\C,0,-2.367536,0.095219,-0.024023\F,0,-2.695553,-0.88
 4654,0.812414\F,0,-3.29942,0.206197,-0.957887\F,0,-2.279516,1.235961,0

 Normal termination of Gaussian 16 at Tue Apr  8 22:58:21 2025.
