 Gaussian 16, Revision C.01,

 ----------------------------------------------------------------------
 #t hf aug-cc-pvdz symm=none int=(grid=ultrafine) guess=(read,tcheck) s
 table=(opt,rrhf)
 ----------------------------------------------------------------------
 -----
 title
 -----
 Symbolic Z-matrix:
 Charge =  0 Multiplicity = 1

 SCF Done:  E(RHF) =  -156.443517409     A.U. after   11 cycles
 Normal termination of Gaussian 16 at Wed Apr  9 00:38:56 2025.
 Gaussian 16:  ES64L-G16RevC.01  3-Jul-2019

 ----------------------------------------------------------------------
 #t hf aug-cc-pvdz iop(5/13=1,5/36=2,99/5=2) pseudo=read geom=check gue
 ss=(read,tcheck) scf=(maxcycle=1)
 ----------------------------------------------------------------------
 -----
 title
 -----
 Structure from the checkpoint file:  "BDE49_nonexpt_603_mol1.chk"
 Charge =  0 Multiplicity = 1

                         Standard orientation:
 ---------------------------------------------------------------------
 Center     Atomic      Atomic             Coordinates (Angstroms)
 Number     Number       Type             X           Y           Z
 ---------------------------------------------------------------------
      1          7           0        1.185766   -0.179568   -0.000002
      2          5           0       -0.046645    0.499585   -0.000013
      3          8           0       -1.268104   -0.122937    0.000006
      4          1           0       -0.053102    1.692219    0.000008
      5          1           0       -1.221660   -1.083767    0.000009
      6          1           0        1.291318   -1.182675    0.000003
      7          1           0        2.061137    0.316764    0.000007
 ---------------------------------------------------------------------

 SCF Done:  E(RHF) =  -157.128583372     A.U. after    2 cycles

 The electronic state is 1-A.
 Alpha  occ. eigenvalues --  -21.04850 -15.72351  -7.61256  -1.73396  -1.29737
 Alpha  occ. eigenvalues --   -0.79712  -0.67914  -0.63181  -0.46899  -0.46411
 Alpha  occ. eigenvalues --   -0.40232  -0.35073
 Alpha virt. eigenvalues --    0.02896   0.03708   0.05109   0.05395   0.08093
 Alpha virt. eigenvalues --    0.09022   0.10247   0.12158   0.18181   0.18289
 Alpha virt. eigenvalues --    0.19774   0.20366   0.20911   0.22928   0.24650

 Mulliken charges:
               1
     1  N   -2.907649
     2  B    7.165344
     3  O   -3.441288
     4  H   -3.316684
     5  H    1.027727
     6  H    0.650727
     7  H    0.821822
 Sum of Mulliken charges =  -0.00000

 Dipole moment (field-independent basis, Debye):
    X=              1.2835    Y=             -1.5347    Z=             -0.0000  Tot=              2.0006

 Test job not archived.
 1\1\GINC-SE016\SP\RHF\Aug-CC-pVDZ\B1H4N1O1\OHZDE\09-Apr-2025\0\\#t hf
 aug-cc-pvdz iop(5/13=1,5/36=2,99/5=2) pseudo=read geom=check guess=(re
 ad,tcheck) scf=(maxcycle=1)\\title\\0,1\N,0,-1.185766,-0.179568,0.0000
 02\B,0,0.046645,0.499585,0.000013\O,0,1.268104,-0.122937,-0.000006\H,0
 ,0.053102,1.692219,-0.000008\H,0,1.22166,-1.083767,-0.000009\H,0,-1.29
 1318,-1.182675,-0.000003\H,0,-2.061137,0.316764,-0.000007\\Version=ES6
 4L-G16RevC.01\State=1-A\HF=-157.1285834\RMSD=1.850e-01\Dipole=-0.50496
 97,-0.6037798,0.0000018\Quadrupole=0.0813178,1.193986,-1.2753038,-0.81

 Normal termination of Gaussian 16 at Wed Apr  9 00:38:57 2025.
