 Gaussian 16, Revision C.01,

 ----------------------------------------------------------------------
 #t hf aug-cc-pvdz symm=none int=(grid=ultrafine) guess=(read,tcheck) s
 table=(opt,rrhf)
 ----------------------------------------------------------------------
 -----
 title
 -----
 Symbolic Z-matrix:
 Charge =  0 Multiplicity = 1

 SCF Done:  E(RHF) =  -841.223807632     A.U. after   14 cycles
 Normal termination of Gaussian 16 at Tue Apr  8 22:42:53 2025.
 Gaussian 16:  ES64L-G16RevC.01  3-Jul-2019

 ----------------------------------------------------------------------
 #t hf aug-cc-pvdz iop(5/13=1,5/36=2,99/5=2) pseudo=read geom=check gue
 ss=(read,tcheck) scf=(maxcycle=1)
 ----------------------------------------------------------------------
 -----
 title
 -----
 Structure from the checkpoint file:  "BDE49_expt_1256_mol1.chk"
 Charge =  0 Multiplicity = 1

                         Standard orientation:
 ---------------------------------------------------------------------
 Center     Atomic      Atomic             Coordinates (Angstroms)
 Number     Number       Type             X           Y           Z
 ---------------------------------------------------------------------
      1          6           0        0.998382   -0.937149    0.000041
      2          6           0       -0.320665   -1.368545    0.000030
      3          6           0        1.345459    0.406548    0.000035
      4          6           0        0.312345    1.333181    0.000020
      5          6           0       -1.024873    0.961929    0.000009
      6          6           0       -1.310787   -0.396100    0.000015
      7          1           0       -0.567106   -2.420298    0.000034
      8          7           0       -2.735401   -0.826520    0.000004
      9          8           0       -3.579967    0.053252   -0.000017
     10          8           0       -2.951584   -2.026752    0.000005
     11          1           0       -1.812528    1.701198   -0.000002
     12          7           0        0.651903    2.782141    0.000015
     13          7           0        2.083511   -1.955617    0.000059
     14          1           0        2.379514    0.719025    0.000043
     15          8           0        3.230992   -1.542605   -0.000078
     16          8           0        1.744012   -3.126953   -0.000081
     17          8           0        1.836087    3.073687    0.000001
     18          8           0       -0.279433    3.569477   -0.000020
 ---------------------------------------------------------------------

 SCF Done:  E(RHF) =  -844.806351852     A.U. after    2 cycles

 The electronic state is 1-A.
 Alpha  occ. eigenvalues --  -21.13403 -21.13385 -21.13385 -21.13267 -21.13261
 Alpha  occ. eigenvalues --  -21.13261 -16.04166 -16.04166 -16.04166 -11.61746
 Alpha  occ. eigenvalues --  -11.55358 -11.55358 -11.53909 -11.53909 -11.48618
 Alpha  occ. eigenvalues --   -2.05066  -2.03209  -2.03209  -1.73474  -1.73474
 Alpha  occ. eigenvalues --   -1.72581  -1.45295  -1.26053  -1.26053  -1.06713
 Alpha  occ. eigenvalues --   -1.06712  -1.06424  -0.85621  -0.85621  -0.81448
 Alpha  occ. eigenvalues --   -0.74066  -0.73627  -0.73626  -0.72987  -0.72649
 Alpha  occ. eigenvalues --   -0.71120  -0.71120  -0.64940  -0.64940  -0.60500
 Alpha  occ. eigenvalues --   -0.57933  -0.57364  -0.57364  -0.42594  -0.42594
 Alpha  occ. eigenvalues --   -0.41812  -0.38763  -0.38763  -0.35375  -0.35374
 Alpha  occ. eigenvalues --   -0.35102  -0.34823  -0.34823  -0.34254
 Alpha virt. eigenvalues --    0.02168   0.02850   0.02850   0.06727   0.06727
 Alpha virt. eigenvalues --    0.07985   0.08729   0.09264   0.09265   0.11152
 Alpha virt. eigenvalues --    0.11903   0.11903   0.12336   0.12336   0.12491

 Mulliken charges:
               1
     1  C    4.026091
     2  C   -3.557490
     3  C   -3.556798
     4  C    4.026319
     5  C   -3.557336
     6  C    4.025564
     7  H    2.006344
     8  N    3.683275
     9  O   -3.079097
    10  O   -3.079253
    11  H    2.006298
    12  N    3.683277
    13  N    3.683243
    14  H    2.006281
    15  O   -3.079113
    16  O   -3.079231
    17  O   -3.079112
    18  O   -3.079262
 Sum of Mulliken charges =  -0.00000

 Dipole moment (field-independent basis, Debye):
    X=             -0.0001    Y=             -0.0001    Z=             -0.0001  Tot=              0.0002

 Test job not archived.
 1\1\GINC-SE094\SP\RHF\Aug-CC-pVDZ\C6H3N3O6\OHZDE\08-Apr-2025\0\\#t hf
 aug-cc-pvdz iop(5/13=1,5/36=2,99/5=2) pseudo=read geom=check guess=(re
 ad,tcheck) scf=(maxcycle=1)\\title\\0,1\C,0,-0.999319,-0.93615,-0.0000
 41\C,0,0.319296,-1.368865,-0.00003\C,0,-1.345052,0.407893,-0.000035\C,
 0,-0.311012,1.333493,-0.00002\C,0,1.025834,0.960904,-0.000009\C,0,1.31
 039,-0.397411,-0.000015\H,0,0.564685,-2.420864,-0.000034\N,0,2.734573,
 -0.829255,-0.000004\O,0,3.580018,0.049672,0.000017\O,0,2.949555,-2.029
 703,-0.000005\H,0,1.814228,1.699384,0.000002\N,0,-0.64912,2.782792,-0.

 Normal termination of Gaussian 16 at Tue Apr  8 22:43:07 2025.
