 Gaussian 16, Revision C.01,

 ----------------------------------------------------------------------
 #t hf aug-cc-pvdz symm=none int=(grid=ultrafine) guess=(read,tcheck) s
 table=(opt,rrhf)
 ----------------------------------------------------------------------
 -----
 title
 -----
 Symbolic Z-matrix:
 Charge =  0 Multiplicity = 1

 SCF Done:  E(RHF) =  -650.123938882     A.U. after   15 cycles

 1\1\GINC-SE218\Stability\RHF\Aug-CC-pVDZ\C8H11P1\OHZDE\08-Apr-2025\0\\
 #t hf aug-cc-pvdz symm=none int=(grid=ultrafine) guess=(read,tcheck) s
 table=(opt,rrhf)\\title\\0,1\P,0,-1.640491,-0.652052,0.\C,0,0.162237,-
 0.220242,0.\C,0,1.083637,-1.274049,-0.000002\C,0,0.653568,1.092701,0.0
 00001\C,0,2.022487,1.342971,0.000001\C,0,2.928066,0.281782,0.\C,0,2.45
 6456,-1.027491,-0.000002\H,0,3.994628,0.477364,0.\H,0,3.154268,-1.8576
 06,-0.000003\H,0,0.718776,-2.295801,-0.000003\H,0,-0.033816,1.932096,0
 .000003\H,0,2.384817,2.365336,0.000003\C,0,-2.256608,0.379157,1.418485

 Normal termination of Gaussian 16 at Tue Apr  8 23:30:32 2025.
 Gaussian 16:  ES64L-G16RevC.01  3-Jul-2019

 ----------------------------------------------------------------------
 #t hf aug-cc-pvdz iop(5/13=1,5/36=2,99/5=2) pseudo=read geom=check gue
 ss=(read,tcheck) scf=(maxcycle=1)
 ----------------------------------------------------------------------
 -----
 title
 -----
 Structure from the checkpoint file:  "BDE49_nonexpt_1320_mol1.chk"
 Charge =  0 Multiplicity = 1

                         Standard orientation:
 ---------------------------------------------------------------------
 Center     Atomic      Atomic             Coordinates (Angstroms)
 Number     Number       Type             X           Y           Z
 ---------------------------------------------------------------------
      1         15           0       -1.640491   -0.652052    0.000000
      2          6           0        0.162237   -0.220242    0.000000
      3          6           0        1.083637   -1.274049   -0.000002
      4          6           0        0.653568    1.092701    0.000001
      5          6           0        2.022487    1.342971    0.000001
      6          6           0        2.928066    0.281782    0.000000
      7          6           0        2.456456   -1.027491   -0.000002
      8          1           0        3.994628    0.477364    0.000000
      9          1           0        3.154268   -1.857606   -0.000003
     10          1           0        0.718776   -2.295801   -0.000003
     11          1           0       -0.033816    1.932096    0.000003
     12          1           0        2.384817    2.365336    0.000003
     13          6           0       -2.256608    0.379157    1.418485
     14          1           0       -3.346219    0.298970    1.461548
     15          1           0       -1.852966   -0.016819    2.352772
     16          1           0       -1.986172    1.435578    1.336984
     17          6           0       -2.256608    0.379159   -1.418484
     18          1           0       -1.852966   -0.016814   -2.352772
     19          1           0       -1.986172    1.435580   -1.336981
     20          1           0       -3.346219    0.298973   -1.461547
 ---------------------------------------------------------------------

 SCF Done:  E(RHF) =  -651.857419975     A.U. after    2 cycles

 The electronic state is 1-A.
 Alpha  occ. eigenvalues -- -105.16142 -11.51109 -11.43105 -11.42741 -11.40868
 Alpha  occ. eigenvalues --  -11.40596 -11.36810 -11.36748 -11.36178  -2.74620
 Alpha  occ. eigenvalues --   -1.49562  -1.46660  -1.45550  -1.32458  -1.09037
 Alpha  occ. eigenvalues --   -1.08203  -1.02206  -0.96422  -0.86162  -0.83889
 Alpha  occ. eigenvalues --   -0.71568  -0.66240  -0.61453  -0.58730  -0.56988
 Alpha  occ. eigenvalues --   -0.56899  -0.55510  -0.55339  -0.54374  -0.50172
 Alpha  occ. eigenvalues --   -0.48983  -0.44581  -0.33705  -0.32938  -0.20989
 Alpha  occ. eigenvalues --   -0.20104  -0.00881
 Alpha virt. eigenvalues --    0.04208   0.04864   0.05286   0.05890   0.06297
 Alpha virt. eigenvalues --    0.06413   0.06919   0.06961   0.07558   0.07967
 Alpha virt. eigenvalues --    0.08657   0.10541   0.10992   0.11346   0.12158

 Mulliken charges:
               1
     1  P    7.665080
     2  C    1.602718
     3  C   -4.048674
     4  C   -2.501357
     5  C   -1.605311
     6  C   -2.746738
     7  C   -0.659861
     8  H    1.365056
     9  H    1.436521
    10  H    2.128553
    11  H    2.214903
    12  H    1.372750
    13  C   -6.433427
    14  H    1.131567
    15  H    1.093407
    16  H    1.096631
    17  C   -6.433425
    18  H    1.093408
    19  H    1.096632
    20  H    1.131567
 Sum of Mulliken charges =   0.00000

 Dipole moment (field-independent basis, Debye):
    X=              0.9282    Y=             -1.8974    Z=             -0.0000  Tot=              2.1123

 Test job not archived.
 1\1\GINC-SE218\SP\RHF\Aug-CC-pVDZ\C8H11P1\OHZDE\08-Apr-2025\0\\#t hf a
 ug-cc-pvdz iop(5/13=1,5/36=2,99/5=2) pseudo=read geom=check guess=(rea
 d,tcheck) scf=(maxcycle=1)\\title\\0,1\P,0,-1.640491,-0.652052,0.\C,0,
 0.162237,-0.220242,0.\C,0,1.083637,-1.274049,-0.000002\C,0,0.653568,1.
 092701,0.000001\C,0,2.022487,1.342971,0.000001\C,0,2.928066,0.281782,0
 .\C,0,2.456456,-1.027491,-0.000002\H,0,3.994628,0.477364,0.\H,0,3.1542
 68,-1.857606,-0.000003\H,0,0.718776,-2.295801,-0.000003\H,0,-0.033816,
 1.932096,0.000003\H,0,2.384817,2.365336,0.000003\C,0,-2.256608,0.37915

 Normal termination of Gaussian 16 at Tue Apr  8 23:30:43 2025.
