 Gaussian 16, Revision C.01,

 ----------------------------------------------------------------------
 #t hf aug-cc-pvdz symm=none int=(grid=ultrafine) guess=(read,tcheck) s
 table=(opt,rrhf)
 ----------------------------------------------------------------------
 -----
 title
 -----
 Symbolic Z-matrix:
 Charge =  0 Multiplicity = 1

 SCF Done:  E(RHF) =  -915.632791042     A.U. after   15 cycles
 Normal termination of Gaussian 16 at Tue Apr  8 23:21:07 2025.
 Gaussian 16:  ES64L-G16RevC.01  3-Jul-2019

 ----------------------------------------------------------------------
 #t hf aug-cc-pvdz iop(5/13=1,5/36=2,99/5=2) pseudo=read geom=check gue
 ss=(read,tcheck) scf=(maxcycle=1)
 ----------------------------------------------------------------------
 -----
 title
 -----
 Structure from the checkpoint file:  "BDE49_nonexpt_1072_mol1.chk"
 Charge =  0 Multiplicity = 1

                         Standard orientation:
 ---------------------------------------------------------------------
 Center     Atomic      Atomic             Coordinates (Angstroms)
 Number     Number       Type             X           Y           Z
 ---------------------------------------------------------------------
      1         17           0       -2.263824   -0.666048   -0.085926
      2          8           0       -0.790722   -0.212060   -0.879723
      3          6           0        0.290384    0.083084    0.016566
      4          8           0        0.502392   -1.026734    0.797013
      5          8           0        0.042521    1.168379    0.814418
      6          8           0        1.339364    0.380950   -0.844517
      7          6           0        1.426563   -0.860538    1.880846
      8          1           0        1.596722   -1.861418    2.274020
      9          1           0        1.003554   -0.220047    2.655453
     10          1           0        2.370621   -0.436549    1.527499
     11          6           0       -0.171393    2.418968    0.144602
     12          1           0       -0.483181    3.115014    0.921172
     13          1           0       -0.959940    2.323723   -0.604697
     14          1           0        0.748811    2.767597   -0.326432
     15          6           0        1.758490   -0.661637   -1.740304
     16          1           0        2.742616   -0.362621   -2.098209
     17          1           0        1.067250   -0.749839   -2.579621
     18          1           0        1.825847   -1.616579   -1.216237
 ---------------------------------------------------------------------

 SCF Done:  E(RHF) =  -917.864085662     A.U. after    2 cycles

 The electronic state is 1-A.
 Alpha  occ. eigenvalues --  -99.93176 -21.10679 -21.06515 -21.06457 -21.06305
 Alpha  occ. eigenvalues --  -11.54167 -11.41808 -11.41514 -11.40908 -10.49886
 Alpha  occ. eigenvalues --   -9.69813  -9.69036  -9.68902  -1.93737  -1.73846
 Alpha  occ. eigenvalues --   -1.72513  -1.71461  -1.24548  -1.05139  -0.99974
 Alpha  occ. eigenvalues --   -0.99224  -0.80591  -0.70025  -0.69221  -0.68016
 Alpha  occ. eigenvalues --   -0.63088  -0.61348  -0.59622  -0.58664  -0.57731
 Alpha  occ. eigenvalues --   -0.57328  -0.54827  -0.53637  -0.48125  -0.44800
 Alpha  occ. eigenvalues --   -0.40380  -0.38742  -0.35766  -0.33983  -0.32040
 Alpha  occ. eigenvalues --   -0.30986
 Alpha virt. eigenvalues --    0.03766   0.04751   0.04926   0.05099   0.05736
 Alpha virt. eigenvalues --    0.05973   0.06227   0.06875   0.07279   0.08635
 Alpha virt. eigenvalues --    0.10100   0.11834   0.12792   0.13563   0.14155

 Mulliken charges:
               1
     1  Cl   0.213904
     2  O   -2.498723
     3  C   11.532031
     4  O   -3.700685
     5  O   -3.760947
     6  O   -3.794456
     7  C   -3.458170
     8  H    1.308571
     9  H    1.467050
    10  H    1.358167
    11  C   -3.425877
    12  H    1.307093
    13  H    1.243506
    14  H    1.511072
    15  C   -3.451192
    16  H    1.315619
    17  H    1.447471
    18  H    1.385568
 Sum of Mulliken charges =  -0.00000

 Dipole moment (field-independent basis, Debye):
    X=              3.3518    Y=              0.9906    Z=             -0.4836  Tot=              3.5284

 Test job not archived.
 1\1\GINC-SE060\SP\RHF\Aug-CC-pVDZ\C4H9Cl1O4\OHZDE\08-Apr-2025\0\\#t hf
  aug-cc-pvdz iop(5/13=1,5/36=2,99/5=2) pseudo=read geom=check guess=(r
 ead,tcheck) scf=(maxcycle=1)\\title\\0,1\Cl,0,-2.263824,-0.666048,-0.0
 85926\O,0,-0.790722,-0.21206,-0.879723\C,0,0.290384,0.083084,0.016566\
 O,0,0.502392,-1.026734,0.797013\O,0,0.042521,1.168379,0.814418\O,0,1.3
 39364,0.38095,-0.844517\C,0,1.426563,-0.860538,1.880846\H,0,1.596722,-
 1.861418,2.27402\H,0,1.003554,-0.220047,2.655453\H,0,2.370621,-0.43654
 9,1.527499\C,0,-0.171393,2.418968,0.144602\H,0,-0.483181,3.115014,0.92

 Normal termination of Gaussian 16 at Tue Apr  8 23:21:16 2025.
