 Gaussian 16, Revision C.01,

 ----------------------------------------------------------------------
 #t hf aug-cc-pvdz symm=none int=(grid=ultrafine) guess=(read,tcheck) s
 table=opt
 ----------------------------------------------------------------------
 -----
 title
 -----
 Symbolic Z-matrix:
 Charge =  0 Multiplicity = 2

 SCF Done:  E(UHF) =  -453.905834548     A.U. after   24 cycles
 Normal termination of Gaussian 16 at Tue Apr  8 23:04:44 2025.
 Gaussian 16:  ES64L-G16RevC.01  3-Jul-2019

 ----------------------------------------------------------------------
 #t hf aug-cc-pvdz iop(5/13=1,5/36=2,99/5=2) pseudo=read geom=check gue
 ss=(read,tcheck) scf=(maxcycle=1)
 ----------------------------------------------------------------------
 -----
 title
 -----
 Structure from the checkpoint file:  "BDE49_expt_256_mol2.chk"
 Charge =  0 Multiplicity = 2

                         Standard orientation:
 ---------------------------------------------------------------------
 Center     Atomic      Atomic             Coordinates (Angstroms)
 Number     Number       Type             X           Y           Z
 ---------------------------------------------------------------------
      1          6           0       -1.711245    0.043051   -0.053226
      2          6           0        1.668488   -0.149176   -0.076926
      3          8           0        2.747350   -0.354722   -0.586873
      4          8           0       -2.780296   -0.365871   -0.398499
      5          8           0        1.373008    1.070154    0.512030
      6          1           0        2.159139    1.626841    0.414030
      7          6           0        0.573876   -1.085381    0.003197
      8          8           0       -1.312385    1.301347   -0.301580
      9          1           0       -0.415053    1.453503    0.042518
     10          6           0       -0.695836   -0.837522    0.734123
     11          1           0       -1.212001   -1.772787    0.940299
     12          1           0       -0.495887   -0.322188    1.680778
     13          1           0        0.730687   -2.018470   -0.521261
 ---------------------------------------------------------------------

 SCF Done:  E(UHF) =  -455.796534447     A.U. after    2 cycles

 The electronic state is 2-A.
 Alpha  occ. eigenvalues --  -21.15043 -21.12110 -21.10299 -21.05677 -11.55438
 Alpha  occ. eigenvalues --  -11.53587 -11.47710 -11.43465  -1.86080  -1.82431
 Alpha  occ. eigenvalues --   -1.69624  -1.66159  -1.24505  -1.03510  -0.83738
 Alpha  occ. eigenvalues --   -0.79757  -0.71115  -0.68212  -0.66528  -0.61503
 Alpha  occ. eigenvalues --   -0.59347  -0.58300  -0.53379  -0.51700  -0.49828
 Alpha  occ. eigenvalues --   -0.46165  -0.39545  -0.38017  -0.34383  -0.33750
 Alpha  occ. eigenvalues --   -0.28846
 Alpha virt. eigenvalues --    0.02868   0.04710   0.05528   0.05945   0.07205
 Alpha virt. eigenvalues --    0.09269   0.09616   0.10650   0.11312   0.12259
 Alpha virt. eigenvalues --    0.13042   0.13930   0.14239   0.14867   0.15236

  Beta  occ. eigenvalues --  -21.15129 -21.12091 -21.08863 -21.05686 -11.55924
  Beta  occ. eigenvalues --  -11.53364 -11.46770 -11.42830  -1.85655  -1.82290
  Beta  occ. eigenvalues --   -1.67460  -1.66131  -1.20692  -1.00599  -0.82662
  Beta  occ. eigenvalues --   -0.78932  -0.69801  -0.67688  -0.65394  -0.61024
  Beta  occ. eigenvalues --   -0.58054  -0.57706  -0.52809  -0.51263  -0.49249
  Beta  occ. eigenvalues --   -0.45044  -0.36265  -0.34060  -0.32799  -0.30624
  Beta virt. eigenvalues --    0.02787   0.04041   0.04955   0.05659   0.05963
  Beta virt. eigenvalues --    0.07217   0.09557   0.09707   0.10896   0.11300
  Beta virt. eigenvalues --    0.12393   0.13091   0.14356   0.14669   0.15009

 Mulliken charges and spin densities:
               1          2
     1  C    5.675386   0.057149
     2  C    5.125418  -0.686906
     3  O   -3.085625   0.397005
     4  O   -3.103137   0.005669
     5  O   -2.973936  -0.022786
     6  H    0.968574  -0.002475
     7  C   -1.529492   1.567273
     8  O   -3.229163   0.008406
     9  H    1.483896   0.007841
    10  C   -3.125693  -0.379361
    11  H    1.194516  -0.000665
    12  H    1.357442   0.013679
    13  H    1.241816   0.035171
 Sum of Mulliken charges =   0.00000   1.00000

 Dipole moment (field-independent basis, Debye):
    X=              1.6633    Y=              0.3838    Z=              1.4649  Tot=              2.2494
                          Isotropic Fermi Contact Couplings
        Atom                 a.u.       MegaHertz       Gauss      10(-4) cm-1
     1  C(13)              0.04026      45.25966      16.14977      15.09700
     2  C(13)             -0.06465     -72.67772     -25.93322     -24.24268
     3  O(17)              0.08157     -49.44493     -17.64318     -16.49305
     4  O(17)             -0.00006       0.03531       0.01260       0.01178
     5  O(17)             -0.01651      10.00626       3.57048       3.33773
     6  H(1)              -0.00023      -1.01956      -0.36380      -0.34009
     7  C(13)              0.11995     134.85009      48.11787      44.98115
     8  O(17)              0.00079      -0.47941      -0.17107      -0.15992

 Normal termination of Gaussian 16 at Tue Apr  8 23:04:49 2025.
