 Gaussian 16, Revision C.01,

 ----------------------------------------------------------------------
 #t hf aug-cc-pvdz symm=none int=(grid=ultrafine) guess=(read,tcheck) s
 table=(opt,rrhf)
 ----------------------------------------------------------------------
 -----
 title
 -----
 Symbolic Z-matrix:
 Charge =  0 Multiplicity = 1

 SCF Done:  E(RHF) =  -306.634828347     A.U. after   15 cycles
 Normal termination of Gaussian 16 at Tue Apr  8 23:21:55 2025.
 Gaussian 16:  ES64L-G16RevC.01  3-Jul-2019

 ----------------------------------------------------------------------
 #t hf aug-cc-pvdz iop(5/13=1,5/36=2,99/5=2) pseudo=read geom=check gue
 ss=(read,tcheck) scf=(maxcycle=1)
 ----------------------------------------------------------------------
 -----
 title
 -----
 Structure from the checkpoint file:  "BDE49_nonexpt_1184_mol1.chk"
 Charge =  0 Multiplicity = 1

                         Standard orientation:
 ---------------------------------------------------------------------
 Center     Atomic      Atomic             Coordinates (Angstroms)
 Number     Number       Type             X           Y           Z
 ---------------------------------------------------------------------
      1          8           0       -1.229643    0.742825   -0.000121
      2          9           0       -1.902849   -0.715104    0.000254
      3          7           0        0.028005    0.701793   -0.000127
      4          6           0        0.795445   -0.311481   -0.000082
      5          6           0        2.279648   -0.149823    0.000015
      6          1           0        2.557236    0.904158    0.000053
      7          1           0        2.715291   -0.631334   -0.880609
      8          1           0        2.715191   -0.631373    0.880668
      9          1           0        0.328467   -1.292843   -0.000138
 ---------------------------------------------------------------------

 SCF Done:  E(RHF) =  -307.924677982     A.U. after    2 cycles

 The electronic state is 1-A.
 Alpha  occ. eigenvalues --  -29.24535 -21.23065 -15.84207 -11.47476 -11.41004
 Alpha  occ. eigenvalues --   -1.91967  -1.30974  -1.07934  -0.87179  -0.71933
 Alpha  occ. eigenvalues --   -0.66979  -0.64012  -0.57895  -0.56785  -0.51911
 Alpha  occ. eigenvalues --   -0.47916  -0.36989  -0.28551  -0.24866  -0.22562
 Alpha virt. eigenvalues --    0.02895   0.05601   0.05869   0.06417   0.09989
 Alpha virt. eigenvalues --    0.10988   0.12431   0.13415   0.14314   0.15706
 Alpha virt. eigenvalues --    0.16382   0.17977   0.18008   0.20100   0.21838

 Mulliken charges:
               1
     1  O   -1.769937
     2  F   -0.216092
     3  N   -0.179810
     4  C    0.347755
     5  C   -3.339065
     6  H    1.239484
     7  H    1.219480
     8  H    1.219524
     9  H    1.478660
 Sum of Mulliken charges =  -0.00000

 Dipole moment (field-independent basis, Debye):
    X=              0.5624    Y=             -1.8735    Z=              0.0002  Tot=              1.9561

 Test job not archived.
 1\1\GINC-SE458\SP\RHF\Aug-CC-pVDZ\C2H4F1N1O1\OHZDE\08-Apr-2025\0\\#t h
 f aug-cc-pvdz iop(5/13=1,5/36=2,99/5=2) pseudo=read geom=check guess=(
 read,tcheck) scf=(maxcycle=1)\\title\\0,1\O,0,-1.229643,0.742825,-0.00
 0121\F,0,-1.902849,-0.715104,0.000254\N,0,0.028005,0.701793,-0.000127\
 C,0,0.795445,-0.311481,-0.000082\C,0,2.279648,-0.149823,0.000015\H,0,2
 .557236,0.904158,0.000053\H,0,2.715291,-0.631334,-0.880609\H,0,2.71519
 1,-0.631373,0.880668\H,0,0.328467,-1.292843,-0.000138\\Version=ES64L-G
 16RevC.01\State=1-A\HF=-307.924678\RMSD=1.629e-01\Dipole=0.2212816,-0.

 Normal termination of Gaussian 16 at Tue Apr  8 23:21:57 2025.
