 Gaussian 16, Revision C.01,

 ----------------------------------------------------------------------
 #t hf aug-cc-pvdz symm=none int=(grid=ultrafine) guess=(read,tcheck) s
 table=(opt,rrhf)
 ----------------------------------------------------------------------
 -----
 title
 -----
 Symbolic Z-matrix:
 Charge =  0 Multiplicity = 1

 SCF Done:  E(RHF) =  -875.908908935     A.U. after   12 cycles
 Normal termination of Gaussian 16 at Tue Apr  8 23:28:03 2025.
 Gaussian 16:  ES64L-G16RevC.01  3-Jul-2019

 ----------------------------------------------------------------------
 #t hf aug-cc-pvdz iop(5/13=1,5/36=2,99/5=2) pseudo=read geom=check gue
 ss=(read,tcheck) scf=(maxcycle=1)
 ----------------------------------------------------------------------
 -----
 title
 -----
 Structure from the checkpoint file:  "BDE49_nonexpt_1300_mol1.chk"
 Charge =  0 Multiplicity = 1

                         Standard orientation:
 ---------------------------------------------------------------------
 Center     Atomic      Atomic             Coordinates (Angstroms)
 Number     Number       Type             X           Y           Z
 ---------------------------------------------------------------------
      1          6           0        0.228634    0.810872    0.000000
      2         15           0       -0.841480   -0.763886   -0.000000
      3          9           0       -0.073666    1.542825    1.091159
      4          9           0        1.544706    0.572196    0.000000
      5          9           0       -0.073666    1.542825   -1.091159
      6          9           0       -0.073666   -1.462642   -1.222881
      7          9           0       -0.073666   -1.462642    1.222881
 ---------------------------------------------------------------------

 SCF Done:  E(RHF) =  -877.938590173     A.U. after    2 cycles

 The electronic state is 1-A'.
 Alpha  occ. eigenvalues -- -105.33472 -29.33375 -29.33336 -29.33148 -29.32529
 Alpha  occ. eigenvalues --  -29.32526 -11.58445  -2.93732  -1.68420  -1.63917
 Alpha  occ. eigenvalues --   -1.62451  -1.36912  -0.95121  -0.90259  -0.90096
 Alpha  occ. eigenvalues --   -0.62981  -0.59861  -0.50279  -0.47019  -0.46130
 Alpha  occ. eigenvalues --   -0.45277  -0.42492  -0.39900  -0.39473  -0.38007
 Alpha  occ. eigenvalues --   -0.36524  -0.32123  -0.27931  -0.27165  -0.23548
 Alpha  occ. eigenvalues --   -0.22120  -0.15692  -0.02247
 Alpha virt. eigenvalues --    0.08106   0.10006   0.10830   0.11860   0.13653
 Alpha virt. eigenvalues --    0.13770   0.16441   0.20632   0.20649   0.21716
 Alpha virt. eigenvalues --    0.22450   0.23347   0.25988   0.27221   0.27665

 Mulliken charges:
               1
     1  C   -1.990437
     2  P    1.316248
     3  F    0.308748
     4  F    0.362127
     5  F    0.308748
     6  F   -0.152717
     7  F   -0.152717
 Sum of Mulliken charges =  -0.00000

 Dipole moment (field-independent basis, Debye):
    X=              5.3467    Y=             -2.3716    Z=              0.0000  Tot=              5.8491

 Test job not archived.
 1\1\GINC-SE341\SP\RHF\Aug-CC-pVDZ\C1F5P1\OHZDE\08-Apr-2025\0\\#t hf au
 g-cc-pvdz iop(5/13=1,5/36=2,99/5=2) pseudo=read geom=check guess=(read
 ,tcheck) scf=(maxcycle=1)\\title\\0,1\C,0,0.228634,0.810872,0.\P,0,-0.
 84148,-0.763886,0.\F,0,-0.073666,1.542825,1.091159\F,0,1.544706,0.5721
 96,0.\F,0,-0.073666,1.542825,-1.091159\F,0,-0.073666,-1.462642,-1.2228
 81\F,0,-0.073666,-1.462642,1.222881\\Version=ES64L-G16RevC.01\State=1-
 A'\HF=-877.9385902\RMSD=8.214e-02\Dipole=2.1035572,-0.9330735,0.\Quadr
 upole=-11.3004235,5.5278768,5.7725467,-2.6595814,0.,0.\PG=CS [SG(C1F1P

 Normal termination of Gaussian 16 at Tue Apr  8 23:28:05 2025.
