 Gaussian 16, Revision C.01,

 ----------------------------------------------------------------------
 #t hf aug-cc-pvdz symm=none int=(grid=ultrafine) guess=(read,tcheck) s
 table=(opt,rrhf)
 ----------------------------------------------------------------------
 -----
 title
 -----
 Symbolic Z-matrix:
 Charge =  0 Multiplicity = 1

 SCF Done:  E(RHF) =  -256.296398511     A.U. after   14 cycles
 Normal termination of Gaussian 16 at Wed Apr  9 00:29:35 2025.
 Gaussian 16:  ES64L-G16RevC.01  3-Jul-2019

 ----------------------------------------------------------------------
 #t hf aug-cc-pvdz iop(5/13=1,5/36=2,99/5=2) pseudo=read geom=check gue
 ss=(read,tcheck) scf=(maxcycle=1)
 ----------------------------------------------------------------------
 -----
 title
 -----
 Structure from the checkpoint file:  "BDE49_nonexpt_315_mol1.chk"
 Charge =  0 Multiplicity = 1

                         Standard orientation:
 ---------------------------------------------------------------------
 Center     Atomic      Atomic             Coordinates (Angstroms)
 Number     Number       Type             X           Y           Z
 ---------------------------------------------------------------------
      1          6           0        0.825608   -0.008015    0.164330
      2          5           0       -0.741472    0.007955   -0.081051
      3          6           0       -1.497364    1.382431   -0.068156
      4          1           0       -0.981730    2.170696    0.486178
      5          1           0       -2.529312    1.306300    0.286985
      6          1           0       -1.558577    1.724489   -1.113871
      7          8           0        1.102019   -0.092104    1.355282
      8          6           0        1.901685    0.065608   -0.895577
      9          1           0        1.781564   -0.752252   -1.614504
     10          1           0        2.888928    0.011987   -0.432894
     11          1           0        1.806901    1.000626   -1.459210
     12          6           0       -1.484770   -1.368818   -0.205111
     13          1           0       -0.970386   -2.098336   -0.839276
     14          1           0       -2.526119   -1.284649   -0.526498
     15          1           0       -1.491015   -1.809047    0.803173
 ---------------------------------------------------------------------

 SCF Done:  E(RHF) =  -257.513436651     A.U. after    2 cycles

 The electronic state is 1-A.
 Alpha  occ. eigenvalues --  -21.04498 -11.45375 -11.38281 -11.34387 -11.33863
 Alpha  occ. eigenvalues --   -7.60793  -1.69601  -1.16259  -1.09096  -1.01756
 Alpha  occ. eigenvalues --   -0.83048  -0.66628  -0.60229  -0.59462  -0.57450
 Alpha  occ. eigenvalues --   -0.56226  -0.54899  -0.53865  -0.50819  -0.44752
 Alpha  occ. eigenvalues --   -0.42990  -0.37957  -0.26028
 Alpha virt. eigenvalues --    0.02743   0.04263   0.04566   0.05011   0.06728
 Alpha virt. eigenvalues --    0.06761   0.07546   0.07959   0.08457   0.08779
 Alpha virt. eigenvalues --    0.09056   0.09571   0.10516   0.13353   0.13524

 Mulliken charges:
               1
     1  C    0.351346
     2  B    8.408055
     3  C   -6.177760
     4  H    1.071699
     5  H    1.261236
     6  H    1.130792
     7  O   -2.732063
     8  C   -4.059118
     9  H    1.209951
    10  H    1.224375
    11  H    1.330988
    12  C   -6.237430
    13  H    0.865888
    14  H    1.357143
    15  H    0.994898
 Sum of Mulliken charges =  -0.00000

 Dipole moment (field-independent basis, Debye):
    X=             -0.6204    Y=              0.0712    Z=             -1.1896  Tot=              1.3436

 Test job not archived.
 1\1\GINC-SE132\SP\RHF\Aug-CC-pVDZ\C4H9B1O1\OHZDE\09-Apr-2025\0\\#t hf
 aug-cc-pvdz iop(5/13=1,5/36=2,99/5=2) pseudo=read geom=check guess=(re
 ad,tcheck) scf=(maxcycle=1)\\title\\0,1\C,0,0.825608,-0.008015,0.16433
 \B,0,-0.741472,0.007955,-0.081051\C,0,-1.497364,1.382431,-0.068156\H,0
 ,-0.98173,2.170696,0.486178\H,0,-2.529312,1.3063,0.286985\H,0,-1.55857
 7,1.724489,-1.113871\O,0,1.102019,-0.092104,1.355282\C,0,1.901685,0.06
 5608,-0.895577\H,0,1.781564,-0.752252,-1.614504\H,0,2.888928,0.011987,
 -0.432894\H,0,1.806901,1.000626,-1.45921\C,0,-1.48477,-1.368818,-0.205

 Normal termination of Gaussian 16 at Wed Apr  9 00:29:39 2025.
