 Gaussian 16, Revision C.01,

 ----------------------------------------------------------------------
 #t hf aug-cc-pvdz symm=none int=(grid=ultrafine) guess=(read,tcheck) s
 table=(opt,rrhf)
 ----------------------------------------------------------------------
 -----
 title
 -----
 Symbolic Z-matrix:
 Charge =  0 Multiplicity = 1

 SCF Done:  E(RHF) =  -827.556739804     A.U. after   15 cycles
 Normal termination of Gaussian 16 at Tue Apr  8 22:50:22 2025.
 Gaussian 16:  ES64L-G16RevC.01  3-Jul-2019

 ----------------------------------------------------------------------
 #t hf aug-cc-pvdz iop(5/13=1,5/36=2,99/5=2) pseudo=read geom=check gue
 ss=(read,tcheck) scf=(maxcycle=1)
 ----------------------------------------------------------------------
 -----
 title
 -----
 Structure from the checkpoint file:  "BDE49_expt_1688_mol1.chk"
 Charge =  0 Multiplicity = 1

                         Standard orientation:
 ---------------------------------------------------------------------
 Center     Atomic      Atomic             Coordinates (Angstroms)
 Number     Number       Type             X           Y           Z
 ---------------------------------------------------------------------
      1          6           0        0.212676   -1.204279    0.335523
      2          6           0        1.566308   -1.213643    0.016559
      3          6           0        2.219721   -0.000002   -0.137673
      4          6           0        1.566312    1.213642    0.016552
      5          6           0        0.212680    1.204285    0.335515
      6          6           0       -0.479336    0.000004    0.500053
      7          1           0       -0.312309   -2.145730    0.454134
      8          1           0        2.116128   -2.137471   -0.111509
      9          6           0       -1.933689    0.000008    0.847472
     10          1           0        2.116135    2.137468   -0.111522
     11          9           0        3.534576   -0.000005   -0.443704
     12          1           0       -0.312303    2.145738    0.454121
     13          1           0       -2.223919   -0.889012    1.402400
     14         17           0       -3.009354   -0.000005   -0.645922
     15          1           0       -2.223918    0.889037    1.402385
 ---------------------------------------------------------------------

 SCF Done:  E(RHF) =  -829.429715218     A.U. after    2 cycles

 The electronic state is 1-A.
 Alpha  occ. eigenvalues --  -99.87779 -29.29098 -11.54465 -11.48062 -11.46285
 Alpha  occ. eigenvalues --  -11.45139 -11.43982 -11.42214 -11.38827 -10.44954
 Alpha  occ. eigenvalues --   -9.64908  -9.64217  -9.64140  -1.40182  -1.30923
 Alpha  occ. eigenvalues --   -1.17805  -1.12192  -1.02606  -0.90453  -0.88859
 Alpha  occ. eigenvalues --   -0.77640  -0.68645  -0.67043  -0.62591  -0.60889
 Alpha  occ. eigenvalues --   -0.60613  -0.58886  -0.55053  -0.52044  -0.48860
 Alpha  occ. eigenvalues --   -0.46682  -0.45787  -0.41698  -0.39107  -0.35398
 Alpha  occ. eigenvalues --   -0.27880  -0.24072
 Alpha virt. eigenvalues --    0.03096   0.04653   0.04994   0.06093   0.06825
 Alpha virt. eigenvalues --    0.07068   0.07837   0.09313   0.10079   0.10101
 Alpha virt. eigenvalues --    0.11214   0.12004   0.12386   0.13485   0.13780

 Mulliken charges:
               1
     1  C   -0.374695
     2  C   -5.081373
     3  C    2.312254
     4  C   -5.081356
     5  C   -0.374735
     6  C    3.531030
     7  H    1.718613
     8  H    1.656257
     9  C   -5.131225
    10  H    1.656257
    11  F    0.656453
    12  H    1.718614
    13  H    1.322273
    14  Cl   0.149357
    15  H    1.322276
 Sum of Mulliken charges =  -0.00000

 Dipole moment (field-independent basis, Debye):
    X=              3.9486    Y=              0.0000    Z=              1.2486  Tot=              4.1413

 Test job not archived.
 1\1\GINC-SE073\SP\RHF\Aug-CC-pVDZ\C7H6Cl1F1\OHZDE\08-Apr-2025\0\\#t hf
  aug-cc-pvdz iop(5/13=1,5/36=2,99/5=2) pseudo=read geom=check guess=(r
 ead,tcheck) scf=(maxcycle=1)\\title\\0,1\C,0,0.212676,-1.204279,0.3355
 23\C,0,1.566308,-1.213643,0.016559\C,0,2.219721,-0.000002,-0.137673\C,
 0,1.566312,1.213642,0.016552\C,0,0.21268,1.204285,0.335515\C,0,-0.4793
 36,0.000004,0.500053\H,0,-0.312309,-2.14573,0.454134\H,0,2.116128,-2.1
 37471,-0.111509\C,0,-1.933689,0.000008,0.847472\H,0,2.116135,2.137468,
 -0.111522\F,0,3.534576,-0.000005,-0.443704\H,0,-0.312303,2.145738,0.45

 Normal termination of Gaussian 16 at Tue Apr  8 22:50:28 2025.
