 Gaussian 16, Revision C.01,

 ----------------------------------------------------------------------
 #t hf aug-cc-pvdz symm=none int=(grid=ultrafine) guess=(read,tcheck) s
 table=(opt,rrhf)
 ----------------------------------------------------------------------
 -----
 title
 -----
 Symbolic Z-matrix:
 Charge =  0 Multiplicity = 1

 SCF Done:  E(RHF) =  -2273.37484925     A.U. after   13 cycles

 1\1\GINC-SE364\Stability\RHF\Aug-CC-pVDZ\C1Cl4S1\OHZDE\09-Apr-2025\0\\
 #t hf aug-cc-pvdz symm=none int=(grid=ultrafine) guess=(read,tcheck) s
 table=(opt,rrhf)\\title\\0,1\Cl,0,2.497238,-0.015446,-0.000071\S,0,0.8
 17576,1.184282,-0.000596\C,0,-0.533609,-0.037447,-0.000009\Cl,0,-1.957
 245,1.065763,0.000643\Cl,0,-0.559922,-1.075871,1.455541\Cl,0,-0.561221
 ,-1.075849,-1.455549\\Version=ES64L-G16RevC.01\HF=-2273.3748493\RMSD=6
 .349e-09\Dipole=-0.1242899,0.1531295,-0.0000104\Quadrupole=-0.0771674,
 0.8501634,-0.772996,-0.6535595,0.0001993,-0.0008159\PG=Unknown\\@

 Normal termination of Gaussian 16 at Wed Apr  9 00:16:37 2025.
 Gaussian 16:  ES64L-G16RevC.01  3-Jul-2019

 ----------------------------------------------------------------------
 #t hf aug-cc-pvdz iop(5/13=1,5/36=2,99/5=2) pseudo=read geom=check gue
 ss=(read,tcheck) scf=(maxcycle=1)
 ----------------------------------------------------------------------
 -----
 title
 -----
 Structure from the checkpoint file:  "BDE49_nonexpt_2538_mol1.chk"
 Charge =  0 Multiplicity = 1

                         Standard orientation:
 ---------------------------------------------------------------------
 Center     Atomic      Atomic             Coordinates (Angstroms)
 Number     Number       Type             X           Y           Z
 ---------------------------------------------------------------------
      1         17           0       -2.497238   -0.015445    0.000071
      2         16           0       -0.817576    1.184282    0.000596
      3          6           0        0.533609   -0.037447    0.000009
      4         17           0        1.957245    1.065763   -0.000643
      5         17           0        0.559922   -1.075871   -1.455541
      6         17           0        0.561221   -1.075849    1.455549
 ---------------------------------------------------------------------

 SCF Done:  E(RHF) =  -2274.75657052     A.U. after    2 cycles

 The electronic state is 1-A.
 Alpha  occ. eigenvalues --  -99.93890 -99.93008 -99.92993 -99.92933 -75.77932
 Alpha  occ. eigenvalues --  -13.19215 -13.13472 -13.10033 -11.58216 -10.51250
 Alpha  occ. eigenvalues --  -10.50405 -10.50219 -10.50116  -9.71044  -9.70303
 Alpha  occ. eigenvalues --   -9.70289  -9.70125  -9.70076  -9.69811  -9.69392
 Alpha  occ. eigenvalues --   -9.69351  -9.69343  -9.69272  -9.69182  -9.69054
 Alpha  occ. eigenvalues --   -8.11747  -1.48742  -1.35464  -1.32581  -1.31853
 Alpha  occ. eigenvalues --   -1.14292  -0.94477  -0.73432  -0.72513  -0.70097
 Alpha  occ. eigenvalues --   -0.59883  -0.59223  -0.56665  -0.55964  -0.54312
 Alpha  occ. eigenvalues --   -0.52569  -0.52415  -0.51375  -0.44766  -0.29543
 Alpha virt. eigenvalues --   -0.01687   0.02636   0.03934   0.05649   0.05864
 Alpha virt. eigenvalues --    0.07122   0.09275   0.09315   0.11051   0.13439
 Alpha virt. eigenvalues --    0.13530   0.13564   0.15035   0.15457   0.15547

 Mulliken charges:
               1
     1  Cl  -0.401357
     2  S    1.426496
     3  C   -2.444943
     4  Cl   0.626798
     5  Cl   0.396484
     6  Cl   0.396522
 Sum of Mulliken charges =  -0.00000

 Dipole moment (field-independent basis, Debye):
    X=              0.2481    Y=              3.4059    Z=              0.0011  Tot=              3.4149

 Test job not archived.
 1\1\GINC-SE364\SP\RHF\Aug-CC-pVDZ\C1Cl4S1\OHZDE\09-Apr-2025\0\\#t hf a
 ug-cc-pvdz iop(5/13=1,5/36=2,99/5=2) pseudo=read geom=check guess=(rea
 d,tcheck) scf=(maxcycle=1)\\title\\0,1\Cl,0,2.497238,-0.015446,-0.0000
 71\S,0,0.817576,1.184282,-0.000596\C,0,-0.533609,-0.037447,-0.000009\C
 l,0,-1.957245,1.065763,0.000643\Cl,0,-0.559922,-1.075871,1.455541\Cl,0
 ,-0.561221,-1.075849,-1.455549\\Version=ES64L-G16RevC.01\State=1-A\HF=
 -2274.7565705\RMSD=5.907e-02\Dipole=-0.0976001,1.3399871,-0.0004446\Qu
 adrupole=-1.7554017,3.8565625,-2.1011609,0.2079315,-0.0007905,-0.00294

 Normal termination of Gaussian 16 at Wed Apr  9 00:16:40 2025.
