 Gaussian 16, Revision C.01,

 ----------------------------------------------------------------------
 #t hf aug-cc-pvdz symm=none int=(grid=ultrafine) guess=(read,tcheck) s
 table=(opt,rrhf)
 ----------------------------------------------------------------------
 -----
 title
 -----
 Symbolic Z-matrix:
 Charge =  0 Multiplicity = 1

 SCF Done:  E(RHF) =  -270.025883173     A.U. after   13 cycles

 1\1\GINC-SE092\Stability\RHF\Aug-CC-pVDZ\C5H10O1\OHZDE\08-Apr-2025\0\\
 #t hf aug-cc-pvdz symm=none int=(grid=ultrafine) guess=(read,tcheck) s
 table=(opt,rrhf)\\title\\0,1\C,0,-1.767132,-0.60231,-0.160531\O,0,-0.4
 34257,-0.519058,-0.38715\C,0,0.225303,0.69821,-0.029146\C,0,1.703388,0
 .552433,-0.356907\H,0,-0.221256,1.529678,-0.588328\C,0,-2.581265,0.316
 649,0.361309\C,0,2.403785,-0.543504,0.450455\H,0,2.181521,1.52112,-0.1
 73045\H,0,1.801889,0.35157,-1.428657\H,0,2.350945,-0.336888,1.524101\H
 ,0,3.459194,-0.618952,0.176856\H,0,1.93615,-1.513575,0.272457\H,0,0.07

 Normal termination of Gaussian 16 at Tue Apr  8 22:42:51 2025.
 Gaussian 16:  ES64L-G16RevC.01  3-Jul-2019

 ----------------------------------------------------------------------
 #t hf aug-cc-pvdz iop(5/13=1,5/36=2,99/5=2) pseudo=read geom=check gue
 ss=(read,tcheck) scf=(maxcycle=1)
 ----------------------------------------------------------------------
 -----
 title
 -----
 Structure from the checkpoint file:  "BDE49_expt_1372_mol1.chk"
 Charge =  0 Multiplicity = 1

                         Standard orientation:
 ---------------------------------------------------------------------
 Center     Atomic      Atomic             Coordinates (Angstroms)
 Number     Number       Type             X           Y           Z
 ---------------------------------------------------------------------
      1          6           0       -1.767132   -0.602310   -0.160531
      2          8           0       -0.434257   -0.519058   -0.387150
      3          6           0        0.225303    0.698210   -0.029146
      4          6           0        1.703388    0.552433   -0.356907
      5          1           0       -0.221256    1.529678   -0.588328
      6          6           0       -2.581265    0.316649    0.361309
      7          6           0        2.403785   -0.543504    0.450455
      8          1           0        2.181521    1.521120   -0.173045
      9          1           0        1.801889    0.351570   -1.428657
     10          1           0        2.350945   -0.336888    1.524101
     11          1           0        3.459194   -0.618952    0.176856
     12          1           0        1.936150   -1.513575    0.272457
     13          1           0        0.076866    0.889996    1.042016
     14          1           0       -2.131094   -1.574564   -0.475470
     15          1           0       -2.253876    1.294888    0.684747
     16          1           0       -3.630757    0.080321    0.471450
 ---------------------------------------------------------------------

 SCF Done:  E(RHF) =  -271.326182512     A.U. after    2 cycles

 The electronic state is 1-A.
 Alpha  occ. eigenvalues --  -21.06839 -11.44668 -11.44429 -11.39503 -11.36646
 Alpha  occ. eigenvalues --  -11.35445  -1.78177  -1.19298  -1.09653  -0.98853
 Alpha  occ. eigenvalues --   -0.85877  -0.77880  -0.67445  -0.64901  -0.61490
 Alpha  occ. eigenvalues --   -0.57636  -0.56962  -0.51054  -0.48425  -0.47718
 Alpha  occ. eigenvalues --   -0.45281  -0.43955  -0.39167  -0.27445
 Alpha virt. eigenvalues --    0.03860   0.05226   0.05301   0.05855   0.05952
 Alpha virt. eigenvalues --    0.06063   0.06419   0.06844   0.08245   0.09583
 Alpha virt. eigenvalues --    0.10862   0.12521   0.13267   0.14330   0.14494

 Mulliken charges:
               1
     1  C    1.073755
     2  O   -3.639203
     3  C   -1.835402
     4  C   -2.827022
     5  H    1.576525
     6  C   -3.420585
     7  C   -3.701207
     8  H    1.248688
     9  H    1.376686
    10  H    1.270174
    11  H    1.173888
    12  H    1.379634
    13  H    1.790373
    14  H    1.818556
    15  H    1.449319
    16  H    1.265820
 Sum of Mulliken charges =  -0.00000

 Dipole moment (field-independent basis, Debye):
    X=              0.9665    Y=              0.0848    Z=             -0.1915  Tot=              0.9890

 Test job not archived.
 1\1\GINC-SE092\SP\RHF\Aug-CC-pVDZ\C5H10O1\OHZDE\08-Apr-2025\0\\#t hf a
 ug-cc-pvdz iop(5/13=1,5/36=2,99/5=2) pseudo=read geom=check guess=(rea
 d,tcheck) scf=(maxcycle=1)\\title\\0,1\C,0,-1.767132,-0.60231,-0.16053
 1\O,0,-0.434257,-0.519058,-0.38715\C,0,0.225303,0.69821,-0.029146\C,0,
 1.703388,0.552433,-0.356907\H,0,-0.221256,1.529678,-0.588328\C,0,-2.58
 1265,0.316649,0.361309\C,0,2.403785,-0.543504,0.450455\H,0,2.181521,1.
 52112,-0.173045\H,0,1.801889,0.35157,-1.428657\H,0,2.350945,-0.336888,
 1.524101\H,0,3.459194,-0.618952,0.176856\H,0,1.93615,-1.513575,0.27245

 Normal termination of Gaussian 16 at Tue Apr  8 22:42:56 2025.
