 Gaussian 16, Revision C.01,

 ----------------------------------------------------------------------
 #t hf aug-cc-pvdz symm=none int=(grid=ultrafine) guess=(read,tcheck) s
 table=opt
 ----------------------------------------------------------------------
 -----
 title
 -----
 Symbolic Z-matrix:
 Charge =  0 Multiplicity = 2

 SCF Done:  E(UHF) =  -730.612252355     A.U. after   22 cycles
 Normal termination of Gaussian 16 at Tue Apr  8 23:57:40 2025.
 Gaussian 16:  ES64L-G16RevC.01  3-Jul-2019

 ----------------------------------------------------------------------
 #t hf aug-cc-pvdz iop(5/13=1,5/36=2,99/5=2) pseudo=read geom=check gue
 ss=(read,tcheck) scf=(maxcycle=1)
 ----------------------------------------------------------------------
 -----
 title
 -----
 Structure from the checkpoint file:  "BDE49_nonexpt_200_mol2.chk"
 Charge =  0 Multiplicity = 2

                         Standard orientation:
 ---------------------------------------------------------------------
 Center     Atomic      Atomic             Coordinates (Angstroms)
 Number     Number       Type             X           Y           Z
 ---------------------------------------------------------------------
      1         17           0       -2.574144    0.215345    0.234219
      2          5           0       -1.130817   -0.012038   -0.691921
      3          6           0        0.255105   -0.513975   -0.223526
      4          8           0        0.195388   -1.748852   -0.140910
      5          7           0        1.370376    0.227042   -0.019104
      6          6           0        1.355814    1.673244   -0.124679
      7          1           0        0.373918    2.008982   -0.465113
      8          1           0        2.102338    2.015142   -0.849162
      9          1           0        1.567283    2.144180    0.841636
     10          6           0        2.622467   -0.423629    0.336840
     11          1           0        2.452617   -1.498685    0.357453
     12          1           0        2.964452   -0.091756    1.322708
     13          1           0        3.397887   -0.190855   -0.400430
 ---------------------------------------------------------------------

 SCF Done:  E(UHF) =  -732.065345091     A.U. after    2 cycles

 The electronic state is 2-A.
 Alpha  occ. eigenvalues --  -99.91208 -21.03419 -15.76364 -11.46232 -11.42327
 Alpha  occ. eigenvalues --  -11.40327 -10.48444  -9.68419  -9.67985  -9.67790
 Alpha  occ. eigenvalues --   -7.70284  -1.71562  -1.44372  -1.35911  -1.07404
 Alpha  occ. eigenvalues --   -1.01295  -0.88244  -0.73438  -0.67067  -0.66401
 Alpha  occ. eigenvalues --   -0.63268  -0.58340  -0.57203  -0.55981  -0.55378
 Alpha  occ. eigenvalues --   -0.53528  -0.50060  -0.47178  -0.34730  -0.30543
 Alpha  occ. eigenvalues --   -0.28108
 Alpha virt. eigenvalues --    0.02712   0.04198   0.04517   0.04717   0.05686
 Alpha virt. eigenvalues --    0.06489   0.07192   0.07315   0.08057   0.08632
 Alpha virt. eigenvalues --    0.09816   0.12737   0.13324   0.13372   0.14095

  Beta  occ. eigenvalues --  -99.91139 -21.03097 -15.76370 -11.46205 -11.42322
  Beta  occ. eigenvalues --  -11.40324 -10.48364  -9.68381  -9.67819  -9.67646
  Beta  occ. eigenvalues --   -7.68329  -1.70975  -1.44267  -1.35028  -1.07298
  Beta  occ. eigenvalues --   -1.00855  -0.85480  -0.72842  -0.66970  -0.65374
  Beta  occ. eigenvalues --   -0.63122  -0.57205  -0.56651  -0.55756  -0.54082
  Beta  occ. eigenvalues --   -0.53308  -0.49126  -0.46553  -0.29774  -0.29408
  Beta virt. eigenvalues --    0.02326   0.03853   0.04580   0.04664   0.05690
  Beta virt. eigenvalues --    0.06116   0.06702   0.07286   0.07386   0.09176
  Beta virt. eigenvalues --    0.10046   0.10280   0.13039   0.13509   0.13706

 Mulliken charges and spin densities:
               1          2
     1  Cl  -1.210918   0.067659
     2  B    1.179291   0.874547
     3  C    3.515592  -0.100489
     4  O   -2.688411   0.116192
     5  N   -2.761726   0.018195
     6  C   -3.749788   0.022234
     7  H    1.628040   0.006959
     8  H    1.452758   0.002613
     9  H    1.413526  -0.004183
    10  C   -3.109724  -0.002003
    11  H    1.486709  -0.001533
    12  H    1.415758   0.000127
    13  H    1.428893  -0.000318
 Sum of Mulliken charges =  -0.00000   1.00000

 Dipole moment (field-independent basis, Debye):
    X=              2.6487    Y=              1.5484    Z=              0.5562  Tot=              3.1181
                          Isotropic Fermi Contact Couplings
        Atom                 a.u.       MegaHertz       Gauss      10(-4) cm-1
     1  Cl(35)             0.10359      45.41925      16.20672      15.15023
     2  B(11)              0.23803     341.42757     121.82985     113.88798
     3  C(13)              0.01599      17.97875       6.41527       5.99707
     4  O(17)              0.01830     -11.09099      -3.95754      -3.69956
     5  N(14)             -0.00304      -0.98360      -0.35097      -0.32809
     6  C(13)             -0.00021      -0.23238      -0.08292      -0.07751
     7  H(1)              -0.00002      -0.07761      -0.02769      -0.02589
     8  H(1)              -0.00019      -0.83886      -0.29933      -0.27981

 Normal termination of Gaussian 16 at Tue Apr  8 23:57:45 2025.
