 Gaussian 16, Revision C.01,

 ----------------------------------------------------------------------
 #t hf aug-cc-pvdz symm=none int=(grid=ultrafine) guess=(read,tcheck) s
 table=(opt,rrhf)
 ----------------------------------------------------------------------
 -----
 title
 -----
 Symbolic Z-matrix:
 Charge =  0 Multiplicity = 1

 SCF Done:  E(RHF) =  -741.733037211     A.U. after   15 cycles
 Normal termination of Gaussian 16 at Tue Apr  8 23:18:58 2025.
 Gaussian 16:  ES64L-G16RevC.01  3-Jul-2019

 ----------------------------------------------------------------------
 #t hf aug-cc-pvdz iop(5/13=1,5/36=2,99/5=2) pseudo=read geom=check gue
 ss=(read,tcheck) scf=(maxcycle=1)
 ----------------------------------------------------------------------
 -----
 title
 -----
 Structure from the checkpoint file:  "BDE49_nonexpt_1053_mol1.chk"
 Charge =  0 Multiplicity = 1

                         Standard orientation:
 ---------------------------------------------------------------------
 Center     Atomic      Atomic             Coordinates (Angstroms)
 Number     Number       Type             X           Y           Z
 ---------------------------------------------------------------------
      1         17           0       -2.227050   -0.004671    0.000001
      2          8           0       -0.684102   -0.761436    0.000005
      3          6           0        0.391543    0.140224   -0.000004
      4          8           0        0.290418    1.334436   -0.000007
      5          7           0        1.521307   -0.606411   -0.000009
      6          6           0        2.843091    0.000709    0.000008
      7          1           0        1.425886   -1.609071    0.000008
      8          1           0        2.713100    1.081303   -0.000067
      9          1           0        3.406726   -0.288828   -0.890998
     10          1           0        3.406659   -0.288711    0.891094
 ---------------------------------------------------------------------

 SCF Done:  E(RHF) =  -743.196819427     A.U. after    2 cycles

 The electronic state is 1-A.
 Alpha  occ. eigenvalues --  -99.95062 -21.13748 -21.05053 -15.78148 -11.53716
 Alpha  occ. eigenvalues --  -11.41342 -10.51781  -9.71721  -9.70803  -9.70618
 Alpha  occ. eigenvalues --   -1.86064  -1.69016  -1.41077  -1.25911  -1.02606
 Alpha  occ. eigenvalues --   -0.82464  -0.73379  -0.65612  -0.64920  -0.60493
 Alpha  occ. eigenvalues --   -0.57724  -0.57037  -0.53797  -0.52929  -0.46886
 Alpha  occ. eigenvalues --   -0.37105  -0.33404  -0.31795
 Alpha virt. eigenvalues --    0.02877   0.03413   0.05635   0.05666   0.06897
 Alpha virt. eigenvalues --    0.08990   0.10558   0.11779   0.12058   0.13860
 Alpha virt. eigenvalues --    0.14385   0.14733   0.15938   0.17782   0.18264

 Mulliken charges:
               1
     1  Cl   0.552640
     2  O   -2.061067
     3  C    5.405262
     4  O   -2.462030
     5  N   -2.794882
     6  C   -3.322825
     7  H    0.790705
     8  H    1.346306
     9  H    1.272942
    10  H    1.272948
 Sum of Mulliken charges =   0.00000

 Dipole moment (field-independent basis, Debye):
    X=              3.4490    Y=             -2.1269    Z=              0.0000  Tot=              4.0521

 Test job not archived.
 1\1\GINC-SE039\SP\RHF\Aug-CC-pVDZ\C2H4Cl1N1O2\OHZDE\08-Apr-2025\0\\#t
 hf aug-cc-pvdz iop(5/13=1,5/36=2,99/5=2) pseudo=read geom=check guess=
 (read,tcheck) scf=(maxcycle=1)\\title\\0,1\Cl,0,-2.22705,-0.004671,0.0
 00001\O,0,-0.684102,-0.761436,0.000005\C,0,0.391543,0.140224,-0.000004
 \O,0,0.290418,1.334436,-0.000007\N,0,1.521307,-0.606411,-0.000009\C,0,
 2.843091,0.000709,0.000008\H,0,1.425886,-1.609071,0.000008\H,0,2.7131,
 1.081303,-0.000067\H,0,3.406726,-0.288828,-0.890998\H,0,3.406659,-0.28
 8711,0.891094\\Version=ES64L-G16RevC.01\State=1-A\HF=-743.1968194\RMSD

 Normal termination of Gaussian 16 at Tue Apr  8 23:19:03 2025.
