 Gaussian 16, Revision C.01,

 ----------------------------------------------------------------------
 #t hf aug-cc-pvdz symm=none int=(grid=ultrafine) guess=(read,tcheck) s
 table=opt
 ----------------------------------------------------------------------
 -----
 title
 -----
 Symbolic Z-matrix:
 Charge =  0 Multiplicity = 2

 SCF Done:  E(UHF) =  -129.270230724     A.U. after   19 cycles
 Normal termination of Gaussian 16 at Tue Apr  8 22:39:22 2025.
 Gaussian 16:  ES64L-G16RevC.01  3-Jul-2019

 ----------------------------------------------------------------------
 #t hf aug-cc-pvdz iop(5/13=1,5/36=2,99/5=2) pseudo=read geom=check gue
 ss=(read,tcheck) scf=(maxcycle=1)
 ----------------------------------------------------------------------
 -----
 title
 -----
 Structure from the checkpoint file:  "BDE49_expt_1227_mol3.chk"
 Charge =  0 Multiplicity = 2

                         Standard orientation:
 ---------------------------------------------------------------------
 Center     Atomic      Atomic             Coordinates (Angstroms)
 Number     Number       Type             X           Y           Z
 ---------------------------------------------------------------------
      1          7           0        0.000000    0.000000   -0.612432
      2          8           0        0.000000    0.000000    0.535878
 ---------------------------------------------------------------------

 SCF Done:  E(UHF) =  -129.767754462     A.U. after    2 cycles

 Unable to determine electronic state:  an orbital has unidentified symmetry.
 Alpha  occ. eigenvalues --  -21.20515 -15.90904  -1.93127  -0.97749  -0.69046
 Alpha  occ. eigenvalues --   -0.58655  -0.57001  -0.28587
 Alpha virt. eigenvalues --    0.11438   0.11594   0.14724   0.15475   0.16675
 Alpha virt. eigenvalues --    0.21346   0.24955   0.29977   0.38479   0.54843
 Alpha virt. eigenvalues --    0.54869   0.65142   0.76493   0.77497   0.87675

  Beta  occ. eigenvalues --  -21.19662 -15.87685  -1.89847  -0.87953  -0.56081
  Beta  occ. eigenvalues --   -0.55651  -0.51504
  Beta virt. eigenvalues --    0.11176   0.11662   0.12866   0.15240   0.18157
  Beta virt. eigenvalues --    0.19582   0.21508   0.29610   0.32000   0.38741
  Beta virt. eigenvalues --    0.56098   0.56099   0.66969   0.77567   0.79235

 Mulliken charges and spin densities:
               1          2
     1  N    1.097597   0.833972
     2  O   -1.097597   0.166028
 Sum of Mulliken charges =   0.00000   1.00000

 Dipole moment (field-independent basis, Debye):
    X=              0.0000    Y=             -0.0000    Z=              0.9106  Tot=              0.9106
                          Isotropic Fermi Contact Couplings
        Atom                 a.u.       MegaHertz       Gauss      10(-4) cm-1
     1  N(14)              0.15972      51.60763      18.41489      17.21445
     2  O(17)              0.05633     -34.14403     -12.18344     -11.38922
 --------------------------------------------------------
       Center         ----  Spin Dipole Couplings  ----
                      3XX-RR        3YY-RR        3ZZ-RR
 --------------------------------------------------------
     1   Atom        1.374982     -0.445859     -0.929123
     2   Atom        1.309866     -0.920245     -0.389622

 Normal termination of Gaussian 16 at Tue Apr  8 22:39:24 2025.
