 Gaussian 16, Revision C.01,

 ----------------------------------------------------------------------
 #t hf aug-cc-pvdz symm=none int=(grid=ultrafine) guess=(read,tcheck) s
 table=(opt,rrhf)
 ----------------------------------------------------------------------
 -----
 title
 -----
 Symbolic Z-matrix:
 Charge =  0 Multiplicity = 1

 SCF Done:  E(RHF) =  -496.908353867     A.U. after   13 cycles
 Normal termination of Gaussian 16 at Tue Apr  8 23:52:21 2025.
 Gaussian 16:  ES64L-G16RevC.01  3-Jul-2019

 ----------------------------------------------------------------------
 #t hf aug-cc-pvdz iop(5/13=1,5/36=2,99/5=2) pseudo=read geom=check gue
 ss=(read,tcheck) scf=(maxcycle=1)
 ----------------------------------------------------------------------
 -----
 title
 -----
 Structure from the checkpoint file:  "BDE49_nonexpt_1913_mol1.chk"
 Charge =  0 Multiplicity = 1

                         Standard orientation:
 ---------------------------------------------------------------------
 Center     Atomic      Atomic             Coordinates (Angstroms)
 Number     Number       Type             X           Y           Z
 ---------------------------------------------------------------------
      1         14           0        1.860909   -0.424783    0.009110
      2          6           0        0.558745    0.949287   -0.198380
      3          1           0        3.134996    0.034592   -0.593326
      4          1           0        1.393606   -1.647373   -0.681929
      5          1           0        2.060335   -0.710495    1.446101
      6          7           0       -0.718206    0.566248    0.367715
      7          6           0       -1.722768   -0.011495    0.055181
      8          8           0       -2.748496   -0.547660   -0.134527
      9          1           0        0.453035    1.213401   -1.256241
     10          1           0        0.904853    1.847617    0.319264
 ---------------------------------------------------------------------

 SCF Done:  E(RHF) =  -497.967421857     A.U. after    2 cycles

 The electronic state is 1-A.
 Alpha  occ. eigenvalues --  -76.22940 -21.11009 -15.76878 -11.57024 -11.41823
 Alpha  occ. eigenvalues --   -5.56456  -2.20132  -2.18767  -2.18644  -1.75753
 Alpha  occ. eigenvalues --   -1.40173  -1.05057  -0.78258  -0.70917  -0.64950
 Alpha  occ. eigenvalues --   -0.61028  -0.59379  -0.54619  -0.48638  -0.48071
 Alpha  occ. eigenvalues --   -0.47150  -0.35182  -0.31044
 Alpha virt. eigenvalues --    0.03131   0.04349   0.05221   0.06176   0.07568
 Alpha virt. eigenvalues --    0.07726   0.09040   0.09117   0.09828   0.11546
 Alpha virt. eigenvalues --    0.12161   0.13216   0.13649   0.14970   0.15198

 Mulliken charges:
               1
     1  Si   5.991731
     2  C   -3.187800
     3  H   -1.597112
     4  H   -1.662750
     5  H   -1.687807
     6  N   -2.244107
     7  C    3.949336
     8  O   -2.499452
     9  H    1.573430
    10  H    1.364532
 Sum of Mulliken charges =  -0.00000

 Dipole moment (field-independent basis, Debye):
    X=              1.0335    Y=              0.5805    Z=             -0.8694  Tot=              1.4700

 Test job not archived.
 1\1\GINC-SE343\SP\RHF\Aug-CC-pVDZ\C2H5N1O1Si1\OHZDE\08-Apr-2025\0\\#t
 hf aug-cc-pvdz iop(5/13=1,5/36=2,99/5=2) pseudo=read geom=check guess=
 (read,tcheck) scf=(maxcycle=1)\\title\\0,1\Si,0,1.860909,-0.424783,0.0
 0911\C,0,0.558745,0.949287,-0.19838\H,0,3.134996,0.034592,-0.593326\H,
 0,1.393606,-1.647373,-0.681929\H,0,2.060335,-0.710495,1.446101\N,0,-0.
 718206,0.566248,0.367715\C,0,-1.722768,-0.011495,0.055181\O,0,-2.74849
 6,-0.54766,-0.134527\H,0,0.453035,1.213401,-1.256241\H,0,0.904853,1.84
 7617,0.319264\\Version=ES64L-G16RevC.01\State=1-A\HF=-497.9674219\RMSD

 Normal termination of Gaussian 16 at Tue Apr  8 23:52:25 2025.
