 Gaussian 16, Revision C.01,

 ----------------------------------------------------------------------
 #t hf aug-cc-pvdz symm=none int=(grid=ultrafine) guess=(read,tcheck) s
 table=(opt,rrhf)
 ----------------------------------------------------------------------
 -----
 title
 -----
 Symbolic Z-matrix:
 Charge =  0 Multiplicity = 1

 SCF Done:  E(RHF) =  -482.907106083     A.U. after   15 cycles
 Normal termination of Gaussian 16 at Tue Apr  8 22:53:39 2025.
 Gaussian 16:  ES64L-G16RevC.01  3-Jul-2019

 ----------------------------------------------------------------------
 #t hf aug-cc-pvdz iop(5/13=1,5/36=2,99/5=2) pseudo=read geom=check gue
 ss=(read,tcheck) scf=(maxcycle=1)
 ----------------------------------------------------------------------
 -----
 title
 -----
 Structure from the checkpoint file:  "BDE49_expt_1776_mol1.chk"
 Charge =  0 Multiplicity = 1

                         Standard orientation:
 ---------------------------------------------------------------------
 Center     Atomic      Atomic             Coordinates (Angstroms)
 Number     Number       Type             X           Y           Z
 ---------------------------------------------------------------------
      1          7           0        1.275272   -0.008888   -0.078358
      2          8           0       -0.000027   -0.819642   -0.000057
      3          7           0       -1.275261   -0.008877    0.078355
      4          8           0        2.176324   -0.629567    0.379819
      5          8           0        1.198851    1.047132   -0.616541
      6          8           0       -2.176373   -0.629523   -0.379759
      7          8           0       -1.198785    1.047144    0.616540
 ---------------------------------------------------------------------

 SCF Done:  E(RHF) =  -484.887380501     A.U. after    2 cycles

 The electronic state is 1-A.
 Alpha  occ. eigenvalues --  -21.20275 -21.18207 -21.18157 -21.17969 -21.17946
 Alpha  occ. eigenvalues --  -16.11726 -16.11646  -2.13778  -2.08261  -1.80044
 Alpha  occ. eigenvalues --   -1.79381  -1.75562  -1.05117  -0.89585  -0.79456
 Alpha  occ. eigenvalues --   -0.77499  -0.76503  -0.71711  -0.67936  -0.67928
 Alpha  occ. eigenvalues --   -0.46237  -0.44995  -0.40424  -0.40187  -0.36607
 Alpha  occ. eigenvalues --   -0.36191  -0.34884
 Alpha virt. eigenvalues --    0.08613   0.09591   0.10944   0.12388   0.13025
 Alpha virt. eigenvalues --    0.14600   0.14899   0.16491   0.17764   0.19153
 Alpha virt. eigenvalues --    0.19618   0.20417   0.21378   0.21616   0.24103

 Mulliken charges:
               1
     1  N    6.096462
     2  O   -1.833335
     3  N    6.096524
     4  O   -2.636211
     5  O   -2.543641
     6  O   -2.636186
     7  O   -2.543613
 Sum of Mulliken charges =  -0.00000

 Dipole moment (field-independent basis, Debye):
    X=              0.0001    Y=             -0.2530    Z=             -0.0001  Tot=              0.2530

 Test job not archived.
 1\1\GINC-SE393\SP\RHF\Aug-CC-pVDZ\N2O5\OHZDE\08-Apr-2025\0\\#t hf aug-
 cc-pvdz iop(5/13=1,5/36=2,99/5=2) pseudo=read geom=check guess=(read,t
 check) scf=(maxcycle=1)\\title\\0,1\N,0,1.275272,-0.008888,-0.078358\O
 ,0,-0.000027,-0.819642,-0.000057\N,0,-1.275261,-0.008877,0.078355\O,0,
 2.176324,-0.629567,0.379819\O,0,1.198851,1.047132,-0.616541\O,0,-2.176
 373,-0.629523,-0.379759\O,0,-1.198785,1.047144,0.61654\\Version=ES64L-
 G16RevC.01\State=1-A\HF=-484.8873805\RMSD=9.459e-02\Dipole=0.0000516,-
 0.0995528,-0.0000202\Quadrupole=-0.5276278,-0.3340299,0.8616577,-0.000

 Normal termination of Gaussian 16 at Tue Apr  8 22:53:42 2025.
