 Gaussian 16, Revision C.01,

 ----------------------------------------------------------------------
 #t hf aug-cc-pvdz symm=none int=(grid=ultrafine) guess=(read,tcheck) s
 table=(opt,rrhf)
 ----------------------------------------------------------------------
 -----
 title
 -----
 Symbolic Z-matrix:
 Charge =  0 Multiplicity = 1

 SCF Done:  E(RHF) =  -1646.52985207     A.U. after   17 cycles

 1\1\GINC-SE218\Stability\RHF\Aug-CC-pVDZ\C7H5Cl3\OHZDE\08-Apr-2025\0\\
 #t hf aug-cc-pvdz symm=none int=(grid=ultrafine) guess=(read,tcheck) s
 table=(opt,rrhf)\\title\\0,1\C,0,-0.839186,-1.51766,0.394062\C,0,0.502
 222,-1.758714,0.13321\C,0,1.394636,-0.695915,0.001361\C,0,0.929794,0.6
 16093,0.132697\C,0,-0.417424,0.850645,0.393253\C,0,-1.313191,-0.209561
 ,0.527865\H,0,-1.522253,-2.353857,0.48973\H,0,0.873442,-2.770052,0.030
 926\C,0,-2.758941,0.057019,0.812376\H,0,-0.759387,1.873923,0.486832\H,
 0,-3.214314,-0.744974,1.388817\Cl,0,-3.751537,0.172313,-0.724649\H,0,-

 Normal termination of Gaussian 16 at Tue Apr  8 22:51:53 2025.
 Gaussian 16:  ES64L-G16RevC.01  3-Jul-2019

 ----------------------------------------------------------------------
 #t hf aug-cc-pvdz iop(5/13=1,5/36=2,99/5=2) pseudo=read geom=check gue
 ss=(read,tcheck) scf=(maxcycle=1)
 ----------------------------------------------------------------------
 -----
 title
 -----
 Structure from the checkpoint file:  "BDE49_expt_1696_mol1.chk"
 Charge =  0 Multiplicity = 1

                         Standard orientation:
 ---------------------------------------------------------------------
 Center     Atomic      Atomic             Coordinates (Angstroms)
 Number     Number       Type             X           Y           Z
 ---------------------------------------------------------------------
      1          6           0       -0.839186   -1.517660    0.394062
      2          6           0        0.502222   -1.758714    0.133210
      3          6           0        1.394636   -0.695915    0.001361
      4          6           0        0.929794    0.616093    0.132697
      5          6           0       -0.417424    0.850645    0.393253
      6          6           0       -1.313191   -0.209561    0.527865
      7          1           0       -1.522253   -2.353857    0.489730
      8          1           0        0.873442   -2.770052    0.030926
      9          6           0       -2.758941    0.057019    0.812376
     10          1           0       -0.759387    1.873923    0.486832
     11          1           0       -3.214314   -0.744974    1.388817
     12         17           0       -3.751537    0.172312   -0.724649
     13          1           0       -2.907245    1.005014    1.323915
     14         17           0        2.005049    1.980789   -0.018599
     15         17           0        3.072505   -1.039072   -0.320820
 ---------------------------------------------------------------------

 SCF Done:  E(RHF) =  -1648.55101008     A.U. after    2 cycles

 The electronic state is 1-A.
 Alpha  occ. eigenvalues --  -99.90812 -99.90795 -99.88638 -11.55484 -11.49385
 Alpha  occ. eigenvalues --  -11.48839 -11.47315 -11.46086 -11.44936 -11.40193
 Alpha  occ. eigenvalues --  -10.48203 -10.48180 -10.45821  -9.68381  -9.68061
 Alpha  occ. eigenvalues --   -9.67410  -9.67164  -9.67143  -9.67079  -9.65779
 Alpha  occ. eigenvalues --   -9.65077  -9.65000  -1.45643  -1.34685  -1.33314
 Alpha  occ. eigenvalues --   -1.27305  -1.13774  -1.11125  -1.00554  -0.91010
 Alpha  occ. eigenvalues --   -0.86566  -0.73518  -0.69390  -0.69068  -0.63189
 Alpha  occ. eigenvalues --   -0.63013  -0.61599  -0.61309  -0.60161  -0.55184
 Alpha  occ. eigenvalues --   -0.53986  -0.52323  -0.50638  -0.49513  -0.48692
 Alpha  occ. eigenvalues --   -0.47614  -0.46151  -0.36053  -0.35211
 Alpha virt. eigenvalues --    0.02617   0.04372   0.05032   0.05672   0.06254
 Alpha virt. eigenvalues --    0.06595   0.07409   0.08092   0.08785   0.09210
 Alpha virt. eigenvalues --    0.09648   0.10131   0.10781   0.11983   0.12420

 Mulliken charges:
               1
     1  C   -1.513175
     2  C   -1.227480
     3  C   -2.914774
     4  C   -0.754198
     5  C    0.763556
     6  C    3.570349
     7  H    1.847741
     8  H    1.798564
     9  C   -4.904073
    10  H    1.874780
    11  H    1.332564
    12  Cl   0.164403
    13  H    1.330470
    14  Cl  -0.709737
    15  Cl  -0.658989
 Sum of Mulliken charges =   0.00000

 Dipole moment (field-independent basis, Debye):
    X=             -1.4757    Y=             -1.4407    Z=              2.2270  Tot=              3.0353

 Test job not archived.
 1\1\GINC-SE218\SP\RHF\Aug-CC-pVDZ\C7H5Cl3\OHZDE\08-Apr-2025\0\\#t hf a
 ug-cc-pvdz iop(5/13=1,5/36=2,99/5=2) pseudo=read geom=check guess=(rea
 d,tcheck) scf=(maxcycle=1)\\title\\0,1\C,0,-0.839186,-1.51766,0.394062
 \C,0,0.502222,-1.758714,0.13321\C,0,1.394636,-0.695915,0.001361\C,0,0.
 929794,0.616093,0.132697\C,0,-0.417424,0.850645,0.393253\C,0,-1.313191
 ,-0.209561,0.527865\H,0,-1.522253,-2.353857,0.48973\H,0,0.873442,-2.77
 0052,0.030926\C,0,-2.758941,0.057019,0.812376\H,0,-0.759387,1.873923,0
 .486832\H,0,-3.214314,-0.744974,1.388817\Cl,0,-3.751537,0.172313,-0.72

 Normal termination of Gaussian 16 at Tue Apr  8 22:52:02 2025.
