 Gaussian 16, Revision C.01,

 ----------------------------------------------------------------------
 #t hf aug-cc-pvdz symm=none int=(grid=ultrafine) guess=(read,tcheck) s
 table=(opt,rrhf)
 ----------------------------------------------------------------------
 -----
 title
 -----
 Symbolic Z-matrix:
 Charge =  0 Multiplicity = 1

 SCF Done:  E(RHF) =  -1223.45571777     A.U. after   15 cycles
 Normal termination of Gaussian 16 at Wed Apr  9 00:25:38 2025.
 Gaussian 16:  ES64L-G16RevC.01  3-Jul-2019

 ----------------------------------------------------------------------
 #t hf aug-cc-pvdz iop(5/13=1,5/36=2,99/5=2) pseudo=read geom=check gue
 ss=(read,tcheck) scf=(maxcycle=1)
 ----------------------------------------------------------------------
 -----
 title
 -----
 Structure from the checkpoint file:  "BDE49_nonexpt_2700_mol1.chk"
 Charge =  0 Multiplicity = 1

                         Standard orientation:
 ---------------------------------------------------------------------
 Center     Atomic      Atomic             Coordinates (Angstroms)
 Number     Number       Type             X           Y           Z
 ---------------------------------------------------------------------
      1          9           0       -3.621239   -0.134035    1.150600
      2         16           0       -3.127534   -0.147620   -0.469420
      3          6           0       -1.386623    0.008668   -0.276712
      4          6           0       -0.791739    1.278445   -0.194668
      5          1           0       -1.417659    2.161291   -0.230154
      6          6           0       -0.573301   -1.132273   -0.230698
      7          1           0       -1.031915   -2.111579   -0.290064
      8          9           0        3.635308   -1.076880    0.117333
      9         16           0        3.112989    0.498178    0.132724
     10          6           0        1.380213    0.251626   -0.025736
     11          6           0        0.805398   -1.020067   -0.108441
     12          1           0        1.431927   -1.900307   -0.074986
     13          6           0        0.581643    1.405081   -0.067691
     14          1           0        1.030208    2.391011   -0.005378
 ---------------------------------------------------------------------

 SCF Done:  E(RHF) =  -1225.66075995     A.U. after    2 cycles

 The electronic state is 1-A.
 Alpha  occ. eigenvalues --  -75.78849 -75.76168 -29.29661 -29.25789 -13.27030
 Alpha  occ. eigenvalues --  -13.24226 -13.22575 -13.17990 -13.12875 -13.09595
 Alpha  occ. eigenvalues --  -11.54273 -11.48030 -11.47059 -11.45893 -11.44358
 Alpha  occ. eigenvalues --  -11.40347  -8.12923  -8.10047  -1.41276  -1.27620
 Alpha  occ. eigenvalues --   -1.18898  -1.13186  -1.06007  -0.91308  -0.87493
 Alpha  occ. eigenvalues --   -0.74448  -0.71077  -0.65762  -0.64050  -0.61818
 Alpha  occ. eigenvalues --   -0.60723  -0.55761  -0.51561  -0.49363  -0.46214
 Alpha  occ. eigenvalues --   -0.43836  -0.39480  -0.38086  -0.36560  -0.35867
 Alpha  occ. eigenvalues --   -0.31621  -0.30935  -0.27113  -0.19167  -0.17435
 Alpha virt. eigenvalues --    0.02612   0.04503   0.05182   0.06354   0.06903
 Alpha virt. eigenvalues --    0.07533   0.08179   0.09149   0.09861   0.10934
 Alpha virt. eigenvalues --    0.12012   0.12183   0.13095   0.13638   0.13882

 Mulliken charges:
               1
     1  F   -0.241765
     2  S    0.344039
     3  C    3.046380
     4  C   -3.340882
     5  H    1.799959
     6  C   -2.679163
     7  H    1.784822
     8  F   -0.334249
     9  S    0.614449
    10  C    1.315301
    11  C   -3.192021
    12  H    1.734721
    13  C   -2.646526
    14  H    1.794934
 Sum of Mulliken charges =  -0.00000

 Dipole moment (field-independent basis, Debye):
    X=              2.1293    Y=             -1.6086    Z=              2.0816  Tot=              3.3844

 Test job not archived.
 1\1\GINC-SE166\SP\RHF\Aug-CC-pVDZ\C6H4F2S2\OHZDE\09-Apr-2025\0\\#t hf
 aug-cc-pvdz iop(5/13=1,5/36=2,99/5=2) pseudo=read geom=check guess=(re
 ad,tcheck) scf=(maxcycle=1)\\title\\0,1\F,0,-3.621239,-0.134035,1.1506
 \S,0,-3.127534,-0.14762,-0.46942\C,0,-1.386623,0.008668,-0.276712\C,0,
 -0.791739,1.278445,-0.194668\H,0,-1.417659,2.161291,-0.230154\C,0,-0.5
 73301,-1.132273,-0.230698\H,0,-1.031915,-2.111579,-0.290064\F,0,3.6353
 08,-1.07688,0.117333\S,0,3.112989,0.498178,0.132724\C,0,1.380213,0.251
 626,-0.025736\C,0,0.805398,-1.020067,-0.108441\H,0,1.431927,-1.900307,

 Normal termination of Gaussian 16 at Wed Apr  9 00:25:45 2025.
