 Gaussian 16, Revision C.01,

 ----------------------------------------------------------------------
 #t hf aug-cc-pvdz symm=none int=(grid=ultrafine) guess=(read,tcheck) s
 table=(opt,rrhf)
 ----------------------------------------------------------------------
 -----
 title
 -----
 Symbolic Z-matrix:
 Charge =  0 Multiplicity = 1

 SCF Done:  E(RHF) =  -667.602109477     A.U. after   14 cycles
 Normal termination of Gaussian 16 at Tue Apr  8 22:49:13 2025.
 Gaussian 16:  ES64L-G16RevC.01  3-Jul-2019

 ----------------------------------------------------------------------
 #t hf aug-cc-pvdz iop(5/13=1,5/36=2,99/5=2) pseudo=read geom=check gue
 ss=(read,tcheck) scf=(maxcycle=1)
 ----------------------------------------------------------------------
 -----
 title
 -----
 Structure from the checkpoint file:  "BDE49_expt_1608_mol1.chk"
 Charge =  0 Multiplicity = 1

                         Standard orientation:
 ---------------------------------------------------------------------
 Center     Atomic      Atomic             Coordinates (Angstroms)
 Number     Number       Type             X           Y           Z
 ---------------------------------------------------------------------
      1          6           0       -1.061936   -0.508271   -0.562568
      2         16           0        0.579115   -1.123602   -0.036016
      3          6           0        1.512102    0.414391   -0.068901
      4          6           0        2.955233    0.255064    0.361280
      5          6           0       -1.911079    0.048213    0.581339
      6          1           0       -1.548483   -1.359336   -1.045299
      7          1           0       -0.872220    0.257796   -1.316437
      8          8           0        1.029323    1.468163   -0.399005
      9          1           0        3.238045   -0.786646    0.514760
     10          1           0        3.100619    0.808205    1.292918
     11          1           0        3.597611    0.705461   -0.398444
     12          6           0       -3.279252    0.535417    0.092179
     13          1           0       -1.369664    0.874406    1.049375
     14          1           0       -2.040189   -0.722838    1.347467
     15          1           0       -3.173395    1.330852   -0.651201
     16          1           0       -3.870680    0.932146    0.921299
     17          1           0       -3.852471   -0.276601   -0.366111
 ---------------------------------------------------------------------

 SCF Done:  E(RHF) =  -669.125101658     A.U. after    2 cycles

 The electronic state is 1-A.
 Alpha  occ. eigenvalues --  -75.69253 -21.05928 -13.15596 -13.10896 -13.03487
 Alpha  occ. eigenvalues --  -11.50335 -11.42916 -11.39690 -11.39391 -11.35576
 Alpha  occ. eigenvalues --   -8.03498  -1.72053  -1.26138  -1.15548  -1.08194
 Alpha  occ. eigenvalues --   -0.96387  -0.84825  -0.74152  -0.66444  -0.61312
 Alpha  occ. eigenvalues --   -0.60493  -0.58127  -0.57183  -0.53890  -0.53350
 Alpha  occ. eigenvalues --   -0.47892  -0.47629  -0.46655  -0.44252  -0.37594
 Alpha  occ. eigenvalues --   -0.26586  -0.24532
 Alpha virt. eigenvalues --    0.03545   0.04078   0.05327   0.05847   0.06049
 Alpha virt. eigenvalues --    0.06386   0.06867   0.06960   0.07944   0.08362
 Alpha virt. eigenvalues --    0.09858   0.11934   0.12618   0.12943   0.13542

 Mulliken charges:
               1
     1  C   -4.114543
     2  S    1.028856
     3  C    3.434871
     4  C   -4.632847
     5  C   -2.815660
     6  H    1.480949
     7  H    1.744828
     8  O   -3.113071
     9  H    1.536844
    10  H    1.246349
    11  H    1.207599
    12  C   -3.811244
    13  H    1.605158
    14  H    1.485599
    15  H    1.274957
    16  H    1.176037
    17  H    1.265320
 Sum of Mulliken charges =   0.00000

 Dipole moment (field-independent basis, Debye):
    X=             -0.1336    Y=             -1.5187    Z=              0.3753  Tot=              1.5701

 Test job not archived.
 1\1\GINC-SE060\SP\RHF\Aug-CC-pVDZ\C5H10O1S1\OHZDE\08-Apr-2025\0\\#t hf
  aug-cc-pvdz iop(5/13=1,5/36=2,99/5=2) pseudo=read geom=check guess=(r
 ead,tcheck) scf=(maxcycle=1)\\title\\0,1\C,0,-1.061936,-0.508271,-0.56
 2568\S,0,0.579115,-1.123602,-0.036016\C,0,1.512102,0.414391,-0.068901\
 C,0,2.955233,0.255064,0.36128\C,0,-1.911079,0.048213,0.581339\H,0,-1.5
 48483,-1.359336,-1.045299\H,0,-0.87222,0.257796,-1.316437\O,0,1.029323
 ,1.468163,-0.399005\H,0,3.238045,-0.786646,0.51476\H,0,3.100619,0.8082
 05,1.292918\H,0,3.597611,0.705461,-0.398444\C,0,-3.279252,0.535417,0.0

 Normal termination of Gaussian 16 at Tue Apr  8 22:49:20 2025.
