 Gaussian 16, Revision C.01,

 ----------------------------------------------------------------------
 #t hf aug-cc-pvdz symm=none int=(grid=ultrafine) guess=(read,tcheck) s
 table=(opt,rrhf)
 ----------------------------------------------------------------------
 -----
 title
 -----
 Symbolic Z-matrix:
 Charge =  0 Multiplicity = 1

 SCF Done:  E(RHF) =  -486.451141214     A.U. after   12 cycles
 Normal termination of Gaussian 16 at Tue Apr  8 23:50:06 2025.
 Gaussian 16:  ES64L-G16RevC.01  3-Jul-2019

 ----------------------------------------------------------------------
 #t hf aug-cc-pvdz iop(5/13=1,5/36=2,99/5=2) pseudo=read geom=check gue
 ss=(read,tcheck) scf=(maxcycle=1)
 ----------------------------------------------------------------------
 -----
 title
 -----
 Structure from the checkpoint file:  "BDE49_nonexpt_1831_mol1.chk"
 Charge =  0 Multiplicity = 1

                         Standard orientation:
 ---------------------------------------------------------------------
 Center     Atomic      Atomic             Coordinates (Angstroms)
 Number     Number       Type             X           Y           Z
 ---------------------------------------------------------------------
      1          6           0       -0.876632   -0.469999   -0.605982
      2         14           0        0.810702   -1.099584   -0.032646
      3          6           0        1.923926    0.273408    0.636719
      4          1           0        1.489794   -1.759933   -1.179803
      5          1           0        0.615685   -2.121175    1.030979
      6          6           0       -1.742518    0.182942    0.487188
      7          6           0       -3.112873    0.644308   -0.020987
      8          1           0       -1.884031   -0.524453    1.312684
      9          1           0       -1.212360    1.041818    0.914997
     10          1           0       -3.687574   -0.197456   -0.419486
     11          1           0       -3.007393    1.381173   -0.823339
     12          1           0       -3.702583    1.102858    0.778192
     13          6           0        2.273926    1.377013   -0.377259
     14          1           0        2.842381   -0.198351    1.005698
     15          1           0        1.443783    0.712247    1.519415
     16          1           0        2.779574    0.966441   -1.256291
     17          1           0        2.937757    2.128252    0.060815
     18          1           0        1.380239    1.900203   -0.729961
     19          1           0       -1.415282   -1.320591   -1.043257
     20          1           0       -0.724790    0.237117   -1.431673
 ---------------------------------------------------------------------

 SCF Done:  E(RHF) =  -487.663917298     A.U. after    2 cycles

 The electronic state is 1-A.
 Alpha  occ. eigenvalues --  -76.19129 -11.41165 -11.39213 -11.37096 -11.34320
 Alpha  occ. eigenvalues --  -11.33918  -5.52897  -2.17499  -2.16044  -2.15354
 Alpha  occ. eigenvalues --   -1.20428  -1.14245  -0.99256  -0.89004  -0.84305
 Alpha  occ. eigenvalues --   -0.70769  -0.63404  -0.60644  -0.57451  -0.56875
 Alpha  occ. eigenvalues --   -0.53246  -0.52366  -0.49932  -0.48330  -0.46628
 Alpha  occ. eigenvalues --   -0.46163  -0.43755  -0.39171  -0.36263
 Alpha virt. eigenvalues --    0.03784   0.04929   0.05443   0.05532   0.05920
 Alpha virt. eigenvalues --    0.06102   0.06177   0.06459   0.06695   0.07465
 Alpha virt. eigenvalues --    0.07937   0.08456   0.09023   0.09835   0.10678

 Mulliken charges:
               1
     1  C   -4.098966
     2  Si   6.254615
     3  C   -4.264773
     4  H   -2.055664
     5  H   -2.048896
     6  C   -2.698134
     7  C   -3.931069
     8  H    1.480264
     9  H    1.577768
    10  H    1.283491
    11  H    1.265104
    12  H    1.145645
    13  C   -3.542384
    14  H    1.341536
    15  H    1.469661
    16  H    1.292100
    17  H    1.146088
    18  H    1.384010
    19  H    1.427183
    20  H    1.572421
 Sum of Mulliken charges =  -0.00000

 Dipole moment (field-independent basis, Debye):
    X=             -0.2443    Y=              0.9284    Z=              0.1866  Tot=              0.9780

 Test job not archived.
 1\1\GINC-SE455\SP\RHF\Aug-CC-pVDZ\C5H14Si1\OHZDE\08-Apr-2025\0\\#t hf
 aug-cc-pvdz iop(5/13=1,5/36=2,99/5=2) pseudo=read geom=check guess=(re
 ad,tcheck) scf=(maxcycle=1)\\title\\0,1\C,0,-0.876632,-0.469999,-0.605
 982\Si,0,0.810702,-1.099584,-0.032646\C,0,1.923926,0.273408,0.636719\H
 ,0,1.489794,-1.759933,-1.179803\H,0,0.615685,-2.121175,1.030979\C,0,-1
 .742518,0.182942,0.487188\C,0,-3.112873,0.644308,-0.020987\H,0,-1.8840
 31,-0.524453,1.312684\H,0,-1.21236,1.041818,0.914997\H,0,-3.687574,-0.
 197456,-0.419486\H,0,-3.007393,1.381173,-0.823339\H,0,-3.702583,1.1028

 Normal termination of Gaussian 16 at Tue Apr  8 23:50:13 2025.
