 Gaussian 16, Revision C.01,

 ----------------------------------------------------------------------
 #t hf aug-cc-pvdz symm=none int=(grid=ultrafine) guess=(read,tcheck) s
 table=(opt,rrhf)
 ----------------------------------------------------------------------
 -----
 title
 -----
 Symbolic Z-matrix:
 Charge =  0 Multiplicity = 1

 SCF Done:  E(RHF) =  -803.545239794     A.U. after   16 cycles
 Normal termination of Gaussian 16 at Tue Apr  8 22:43:38 2025.
 Gaussian 16:  ES64L-G16RevC.01  3-Jul-2019

 ----------------------------------------------------------------------
 #t hf aug-cc-pvdz iop(5/13=1,5/36=2,99/5=2) pseudo=read geom=check gue
 ss=(read,tcheck) scf=(maxcycle=1)
 ----------------------------------------------------------------------
 -----
 title
 -----
 Structure from the checkpoint file:  "BDE49_expt_1403_mol1.chk"
 Charge =  0 Multiplicity = 1

                         Standard orientation:
 ---------------------------------------------------------------------
 Center     Atomic      Atomic             Coordinates (Angstroms)
 Number     Number       Type             X           Y           Z
 ---------------------------------------------------------------------
      1          6           0       -1.113188   -0.859437    0.000000
      2          6           0        0.118190   -1.513851    0.000000
      3          6           0        1.287205   -0.769567    0.000000
      4          6           0       -1.176760    0.525770    0.000000
      5          6           0        0.000000    1.276263    0.000000
      6          6           0        1.239216    0.630627    0.000000
      7         17           0       -2.597488   -1.802156    0.000000
      8          1           0        0.156950   -2.595561    0.000000
      9          1           0        2.255967   -1.253628    0.000000
     10          1           0       -2.137592    1.024274    0.000000
     11          1           0       -0.068962    2.355420    0.000000
     12          8           0        2.444762    1.263713    0.000000
     13          6           0        2.464569    2.684256    0.000000
     14          1           0        3.515959    2.966589    0.000000
     15          1           0        1.980746    3.092749    0.894379
     16          1           0        1.980746    3.092749   -0.894379
 ---------------------------------------------------------------------

 SCF Done:  E(RHF) =  -805.393691558     A.U. after    2 cycles

 The electronic state is 1-A'.
 Alpha  occ. eigenvalues --  -99.88937 -21.08234 -11.53625 -11.47314 -11.44860
 Alpha  occ. eigenvalues --  -11.44630 -11.42215 -11.41670 -11.38125 -10.46268
 Alpha  occ. eigenvalues --   -9.66307  -9.65410  -9.65240  -1.79667  -1.38849
 Alpha  occ. eigenvalues --   -1.26513  -1.11435  -1.08239  -0.99287  -0.89337
 Alpha  occ. eigenvalues --   -0.83989  -0.71974  -0.67078  -0.64982  -0.63188
 Alpha  occ. eigenvalues --   -0.61691  -0.59448  -0.57054  -0.56507  -0.51561
 Alpha  occ. eigenvalues --   -0.51345  -0.48632  -0.46004  -0.41094  -0.40151
 Alpha  occ. eigenvalues --   -0.34765  -0.27156
 Alpha virt. eigenvalues --    0.03125   0.04640   0.05275   0.05989   0.06252
 Alpha virt. eigenvalues --    0.06586   0.07715   0.08823   0.09110   0.10580
 Alpha virt. eigenvalues --    0.11053   0.11514   0.13002   0.13333   0.13623

 Mulliken charges:
               1
     1  C   -1.667842
     2  C   -0.952690
     3  C   -2.362895
     4  C   -0.075897
     5  C   -1.902534
     6  C    4.673483
     7  Cl  -0.858363
     8  H    1.818603
     9  H    1.896129
    10  H    1.770393
    11  H    1.892429
    12  O   -4.732142
    13  C   -3.648689
    14  H    1.422233
    15  H    1.363890
    16  H    1.363890
 Sum of Mulliken charges =   0.00000

 Dipole moment (field-independent basis, Debye):
    X=              2.6827    Y=              2.3483    Z=             -0.0000  Tot=              3.5653

 Test job not archived.
 1\1\GINC-SE227\SP\RHF\Aug-CC-pVDZ\C7H7Cl1O1\OHZDE\08-Apr-2025\0\\#t hf
  aug-cc-pvdz iop(5/13=1,5/36=2,99/5=2) pseudo=read geom=check guess=(r
 ead,tcheck) scf=(maxcycle=1)\\title\\0,1\C,0,-1.113188,-0.859437,0.\C,
 0,0.11819,-1.513851,0.\C,0,1.287205,-0.769567,0.\C,0,-1.17676,0.52577,
 0.\C,0,0.,1.276263,0.\C,0,1.239216,0.630627,0.\Cl,0,-2.597488,-1.80215
 6,0.\H,0,0.15695,-2.595561,0.\H,0,2.255967,-1.253628,0.\H,0,-2.137592,
 1.024274,0.\H,0,-0.068962,2.35542,0.\O,0,2.444762,1.263713,0.\C,0,2.46
 4569,2.684256,0.\H,0,3.515959,2.966589,0.\H,0,1.980746,3.092749,0.8943

 Normal termination of Gaussian 16 at Tue Apr  8 22:43:45 2025.
