 Gaussian 16, Revision C.01,

 ----------------------------------------------------------------------
 #t hf aug-cc-pvdz symm=none int=(grid=ultrafine) guess=(read,tcheck) s
 table=(opt,rrhf)
 ----------------------------------------------------------------------
 -----
 title
 -----
 Symbolic Z-matrix:
 Charge =  0 Multiplicity = 1

 SCF Done:  E(RHF) =  -1036.11039114     A.U. after   13 cycles
 Normal termination of Gaussian 16 at Tue Apr  8 23:56:19 2025.
 Gaussian 16:  ES64L-G16RevC.01  3-Jul-2019

 ----------------------------------------------------------------------
 #t hf aug-cc-pvdz iop(5/13=1,5/36=2,99/5=2) pseudo=read geom=check gue
 ss=(read,tcheck) scf=(maxcycle=1)
 ----------------------------------------------------------------------
 -----
 title
 -----
 Structure from the checkpoint file:  "BDE49_nonexpt_198_mol1.chk"
 Charge =  0 Multiplicity = 1

                         Standard orientation:
 ---------------------------------------------------------------------
 Center     Atomic      Atomic             Coordinates (Angstroms)
 Number     Number       Type             X           Y           Z
 ---------------------------------------------------------------------
      1         17           0        0.832260   -1.522026   -0.000003
      2         17           0        0.832251    1.522030   -0.000003
      3          5           0       -0.018167   -0.000000    0.000018
      4          6           0       -1.547607   -0.000004    0.000006
      5          7           0       -2.702887   -0.000007   -0.000003
 ---------------------------------------------------------------------

 SCF Done:  E(RHF) =  -1037.09024952     A.U. after    2 cycles

 The electronic state is 1-A.
 Alpha  occ. eigenvalues --  -99.93541 -99.93527 -15.80535 -11.42163 -10.50943
 Alpha  occ. eigenvalues --  -10.50730  -9.70882  -9.70655  -9.70281  -9.70245
 Alpha  occ. eigenvalues --   -9.70128  -9.70055  -7.77623  -1.44553  -1.33403
 Alpha  occ. eigenvalues --   -1.32746  -0.94104  -0.73127  -0.67804  -0.61550
 Alpha  occ. eigenvalues --   -0.59341  -0.55609  -0.53944  -0.51330  -0.48497
 Alpha  occ. eigenvalues --   -0.47439
 Alpha virt. eigenvalues --    0.00852   0.03093   0.03738   0.03971   0.04379
 Alpha virt. eigenvalues --    0.09271   0.10943   0.12338   0.14996   0.15175
 Alpha virt. eigenvalues --    0.15265   0.15375   0.15961   0.16033   0.16477

 Mulliken charges:
               1
     1  Cl  -1.207643
     2  Cl  -1.207643
     3  B    3.984350
     4  C    0.725817
     5  N   -2.294880
 Sum of Mulliken charges =   0.00000

 Dipole moment (field-independent basis, Debye):
    X=              1.5758    Y=              0.0000    Z=              0.0000  Tot=              1.5758

 Test job not archived.
 1\1\GINC-SE328\SP\RHF\Aug-CC-pVDZ\C1B1Cl2N1\OHZDE\08-Apr-2025\0\\#t hf
  aug-cc-pvdz iop(5/13=1,5/36=2,99/5=2) pseudo=read geom=check guess=(r
 ead,tcheck) scf=(maxcycle=1)\\title\\0,1\Cl,0,-0.832256,1.522028,-0.00
 0003\Cl,0,-0.832255,-1.522028,-0.000003\B,0,0.018167,0.,0.000018\C,0,1
 .547607,0.,0.000006\N,0,2.702887,0.,-0.000003\\Version=ES64L-G16RevC.0
 1\State=1-A\HF=-1037.0902495\RMSD=6.064e-02\Dipole=-0.6199673,-0.00000
 06,0.0000158\Quadrupole=-3.8427636,2.2741117,1.5686518,0.000001,0.0000
 358,0.\PG=C01 [X(C1B1Cl2N1)]\\@

 Normal termination of Gaussian 16 at Tue Apr  8 23:56:20 2025.
