 Gaussian 16, Revision C.01,

 ----------------------------------------------------------------------
 #t hf aug-cc-pvdz symm=none int=(grid=ultrafine) guess=(read,tcheck) s
 table=opt
 ----------------------------------------------------------------------
 -----
 title
 -----
 Symbolic Z-matrix:
 Charge =  0 Multiplicity = 2

 SCF Done:  E(UHF) =  -1354.95816846     A.U. after   25 cycles
 Normal termination of Gaussian 16 at Wed Apr  9 00:16:37 2025.
 Gaussian 16:  ES64L-G16RevC.01  3-Jul-2019

 ----------------------------------------------------------------------
 #t hf aug-cc-pvdz iop(5/13=1,5/36=2,99/5=2) pseudo=read geom=check gue
 ss=(read,tcheck) scf=(maxcycle=1)
 ----------------------------------------------------------------------
 -----
 title
 -----
 Structure from the checkpoint file:  "BDE49_nonexpt_2530_mol2.chk"
 Charge =  0 Multiplicity = 2

                         Standard orientation:
 ---------------------------------------------------------------------
 Center     Atomic      Atomic             Coordinates (Angstroms)
 Number     Number       Type             X           Y           Z
 ---------------------------------------------------------------------
      1         16           0        0.748464    1.539235   -0.088902
      2          6           0       -0.030561    0.037269    0.487128
      3         17           0       -1.722433   -0.153607   -0.094662
      4         17           0        1.032978   -1.305600   -0.085767
      5          1           0       -0.071316   -0.044852    1.566969
 ---------------------------------------------------------------------

 SCF Done:  E(UHF) =  -1355.81903910     A.U. after    2 cycles

 The electronic state is 2-A.
 Alpha  occ. eigenvalues --  -99.92040 -99.91323 -75.74233 -13.14906 -13.08633
 Alpha  occ. eigenvalues --  -13.05692 -11.52289 -10.49313 -10.48599  -9.69202
 Alpha  occ. eigenvalues --   -9.68472  -9.68373  -9.68259  -9.67663  -9.67637
 Alpha  occ. eigenvalues --   -8.07949  -1.42572  -1.30246  -1.17229  -0.94409
 Alpha  occ. eigenvalues --   -0.71201  -0.67615  -0.62183  -0.54623  -0.52296
 Alpha  occ. eigenvalues --   -0.51073  -0.45360  -0.32761  -0.28402
 Alpha virt. eigenvalues --    0.01413   0.03565   0.06301   0.06920   0.08543
 Alpha virt. eigenvalues --    0.10422   0.12515   0.13700   0.14047   0.14975
 Alpha virt. eigenvalues --    0.16503   0.16625   0.17206   0.17802   0.19220

  Beta  occ. eigenvalues --  -99.91937 -99.91308 -75.73233 -13.14291 -13.05137
  Beta  occ. eigenvalues --  -13.02626 -11.52470 -10.49201 -10.48580  -9.68907
  Beta  occ. eigenvalues --   -9.68403  -9.68220  -9.68190  -9.67636  -9.67623
  Beta  occ. eigenvalues --   -8.06827  -1.41840  -1.29763  -1.11556  -0.91169
  Beta  occ. eigenvalues --   -0.70859  -0.66649  -0.61250  -0.54153  -0.51939
  Beta  occ. eigenvalues --   -0.50960  -0.44398  -0.26811
  Beta virt. eigenvalues --    0.00531   0.01894   0.03707   0.06521   0.07886
  Beta virt. eigenvalues --    0.08752   0.11029   0.12785   0.14018   0.14269
  Beta virt. eigenvalues --    0.15291   0.16773   0.17210   0.17662   0.18682

 Mulliken charges and spin densities:
               1          2
     1  S    1.388639   1.050745
     2  C   -4.120885  -0.090614
     3  Cl   0.358305   0.002795
     4  Cl   0.412055   0.031572
     5  H    1.961886   0.005502
 Sum of Mulliken charges =   0.00000   1.00000

 Dipole moment (field-independent basis, Debye):
    X=              1.3450    Y=              2.5216    Z=              0.5211  Tot=              2.9050
                          Isotropic Fermi Contact Couplings
        Atom                 a.u.       MegaHertz       Gauss      10(-4) cm-1
     1  S(33)              0.29692     101.98501      36.39079      34.01854
     2  C(13)             -0.01800     -20.23995      -7.22212      -6.75132
     3  Cl(35)             0.00357       1.56569       0.55868       0.52226
     4  Cl(35)             0.07648      33.53312      11.96545      11.18544
     5  H(1)               0.00197       8.80376       3.14140       2.93662
 --------------------------------------------------------
       Center         ----  Spin Dipole Couplings  ----
                      3XX-RR        3YY-RR        3ZZ-RR

 Normal termination of Gaussian 16 at Wed Apr  9 00:16:40 2025.
