 Gaussian 16, Revision C.01,

 ----------------------------------------------------------------------
 #t hf aug-cc-pvdz symm=none int=(grid=ultrafine) guess=(read,tcheck) s
 table=(opt,rrhf)
 ----------------------------------------------------------------------
 -----
 title
 -----
 Symbolic Z-matrix:
 Charge =  0 Multiplicity = 1

 SCF Done:  E(RHF) =  -593.880430528     A.U. after   13 cycles

 1\1\GINC-SE083\Stability\RHF\Aug-CC-pVDZ\C5H12S1\OHZDE\08-Apr-2025\0\\
 #t hf aug-cc-pvdz symm=none int=(grid=ultrafine) guess=(read,tcheck) s
 table=(opt,rrhf)\\title\\0,1\S,0,0.932098,-0.856358,0.000007\C,0,-0.68
 097,0.083919,0.000001\C,0,-1.75509,-1.015027,-0.000011\H,0,-2.749638,-
 0.55803,-0.000016\H,0,-1.67274,-1.649664,0.885889\H,0,-1.672727,-1.649
 658,-0.885913\C,0,-0.810503,0.945158,1.263014\H,0,-0.049522,1.728446,1
 .300034\H,0,-0.718427,0.335556,2.164309\H,0,-1.788615,1.438952,1.27897
 2\C,0,2.198615,0.452743,-0.00001\H,0,2.143805,1.074671,0.894427\H,0,2.

 Normal termination of Gaussian 16 at Tue Apr  8 22:47:20 2025.
 Gaussian 16:  ES64L-G16RevC.01  3-Jul-2019

 ----------------------------------------------------------------------
 #t hf aug-cc-pvdz iop(5/13=1,5/36=2,99/5=2) pseudo=read geom=check gue
 ss=(read,tcheck) scf=(maxcycle=1)
 ----------------------------------------------------------------------
 -----
 title
 -----
 Structure from the checkpoint file:  "BDE49_expt_1568_mol1.chk"
 Charge =  0 Multiplicity = 1

                         Standard orientation:
 ---------------------------------------------------------------------
 Center     Atomic      Atomic             Coordinates (Angstroms)
 Number     Number       Type             X           Y           Z
 ---------------------------------------------------------------------
      1         16           0        0.932098   -0.856358    0.000007
      2          6           0       -0.680970    0.083919    0.000001
      3          6           0       -1.755090   -1.015027   -0.000011
      4          1           0       -2.749638   -0.558029   -0.000016
      5          1           0       -1.672740   -1.649664    0.885889
      6          1           0       -1.672727   -1.649658   -0.885913
      7          6           0       -0.810503    0.945158    1.263014
      8          1           0       -0.049522    1.728446    1.300034
      9          1           0       -0.718427    0.335556    2.164309
     10          1           0       -1.788615    1.438952    1.278972
     11          6           0        2.198615    0.452742   -0.000010
     12          1           0        2.143805    1.074670    0.894427
     13          1           0        2.143795    1.074657   -0.894455
     14          1           0        3.157601   -0.067968   -0.000011
     15          6           0       -0.810486    0.945169   -1.263006
     16          1           0       -0.718399    0.335574   -2.164304
     17          1           0       -0.049504    1.728456   -1.300009
     18          1           0       -1.788598    1.438965   -1.278972
 ---------------------------------------------------------------------

 SCF Done:  E(RHF) =  -595.155400240     A.U. after    2 cycles

 The electronic state is 1-A.
 Alpha  occ. eigenvalues --  -75.66176 -13.11464 -13.08314 -13.02785 -11.42681
 Alpha  occ. eigenvalues --  -11.39084 -11.38963 -11.38741 -11.35458  -8.00191
 Alpha  occ. eigenvalues --   -1.30178  -1.12866  -1.01005  -1.00976  -0.93382
 Alpha  occ. eigenvalues --   -0.76512  -0.62892  -0.60937  -0.60795  -0.58678
 Alpha  occ. eigenvalues --   -0.56629  -0.54516  -0.53735  -0.51320  -0.45767
 Alpha  occ. eigenvalues --   -0.44764  -0.40019  -0.33186  -0.21676
 Alpha virt. eigenvalues --    0.03535   0.04192   0.05675   0.05820   0.06016
 Alpha virt. eigenvalues --    0.06141   0.06270   0.06709   0.06758   0.09161
 Alpha virt. eigenvalues --    0.09348   0.09600   0.10580   0.12140   0.12741

 Mulliken charges:
               1
     1  S    0.524640
     2  C    1.724506
     3  C   -4.010920
     4  H    1.216260
     5  H    1.329429
     6  H    1.329433
     7  C   -4.645505
     8  H    1.426228
     9  H    1.341249
    10  H    1.157659
    11  C   -4.978903
    12  H    1.502328
    13  H    1.502332
    14  H    1.301635
    15  C   -4.645506
    16  H    1.341243
    17  H    1.426238
    18  H    1.157653
 Sum of Mulliken charges =  -0.00000

 Dipole moment (field-independent basis, Debye):
    X=             -0.1463    Y=             -0.1240    Z=             -0.0000  Tot=              0.1918

 Test job not archived.
 1\1\GINC-SE083\SP\RHF\Aug-CC-pVDZ\C5H12S1\OHZDE\08-Apr-2025\0\\#t hf a
 ug-cc-pvdz iop(5/13=1,5/36=2,99/5=2) pseudo=read geom=check guess=(rea
 d,tcheck) scf=(maxcycle=1)\\title\\0,1\S,0,0.932098,-0.856358,0.000007
 \C,0,-0.68097,0.083919,0.000001\C,0,-1.75509,-1.015027,-0.000011\H,0,-
 2.749638,-0.55803,-0.000016\H,0,-1.67274,-1.649664,0.885889\H,0,-1.672
 727,-1.649658,-0.885913\C,0,-0.810503,0.945158,1.263014\H,0,-0.049522,
 1.728446,1.300034\H,0,-0.718427,0.335556,2.164309\H,0,-1.788615,1.4389
 52,1.278972\C,0,2.198615,0.452743,-0.00001\H,0,2.143805,1.074671,0.894

 Normal termination of Gaussian 16 at Tue Apr  8 22:47:29 2025.
