 Gaussian 16, Revision C.01,

 ----------------------------------------------------------------------
 #t hf aug-cc-pvdz symm=none int=(grid=ultrafine) guess=(read,tcheck) s
 table=(opt,rrhf)
 ----------------------------------------------------------------------
 -----
 title
 -----
 Symbolic Z-matrix:
 Charge =  0 Multiplicity = 1

 SCF Done:  E(RHF) =  -2166.09249019     A.U. after   12 cycles
 Normal termination of Gaussian 16 at Tue Apr  8 23:49:22 2025.
 Gaussian 16:  ES64L-G16RevC.01  3-Jul-2019

 ----------------------------------------------------------------------
 #t hf aug-cc-pvdz iop(5/13=1,5/36=2,99/5=2) pseudo=read geom=check gue
 ss=(read,tcheck) scf=(maxcycle=1)
 ----------------------------------------------------------------------
 -----
 title
 -----
 Structure from the checkpoint file:  "BDE49_nonexpt_1821_mol1.chk"
 Charge =  0 Multiplicity = 1

                         Standard orientation:
 ---------------------------------------------------------------------
 Center     Atomic      Atomic             Coordinates (Angstroms)
 Number     Number       Type             X           Y           Z
 ---------------------------------------------------------------------
      1          6           0        0.967759    0.000000   -0.441542
      2         14           0       -0.713101    0.000000    0.440256
      3         17           0        1.874494    1.486134    0.019959
      4         17           0        1.874494   -1.486134    0.019961
      5         17           0       -1.762506    1.674740   -0.134103
      6         17           0       -1.762506   -1.674740   -0.134105
      7          1           0        0.891769   -0.000001   -1.525665
      8          1           0       -0.522497   -0.000001    1.892228
 ---------------------------------------------------------------------

 SCF Done:  E(RHF) =  -2167.40896360     A.U. after    2 cycles

 The electronic state is 1-A.
 Alpha  occ. eigenvalues --  -99.91723 -99.91714 -99.91012 -99.91012 -76.32629
 Alpha  occ. eigenvalues --  -11.49207 -10.49053 -10.48880 -10.48505 -10.48459
 Alpha  occ. eigenvalues --   -9.68837  -9.68799  -9.68368  -9.68341  -9.68184
 Alpha  occ. eigenvalues --   -9.68165  -9.68028  -9.68017  -9.67801  -9.67698
 Alpha  occ. eigenvalues --   -9.67697  -9.67603  -5.66281  -2.29034  -2.28646
 Alpha  occ. eigenvalues --   -2.27852  -1.40912  -1.32806  -1.30497  -1.29912
 Alpha  occ. eigenvalues --   -1.01290  -0.81107  -0.70543  -0.66988  -0.64715
 Alpha  occ. eigenvalues --   -0.60220  -0.60205  -0.56568  -0.55329  -0.54743
 Alpha  occ. eigenvalues --   -0.53176  -0.52960  -0.51763  -0.50498  -0.45207
 Alpha virt. eigenvalues --    0.01565   0.04158   0.05178   0.05279   0.05945
 Alpha virt. eigenvalues --    0.07450   0.08346   0.08670   0.10113   0.11176
 Alpha virt. eigenvalues --    0.11793   0.12089   0.12329   0.13467   0.14311

 Mulliken charges:
               1
     1  C   -3.479736
     2  Si   4.879446
     3  Cl   0.213346
     4  Cl   0.213346
     5  Cl  -0.799335
     6  Cl  -0.799335
     7  H    1.819464
     8  H   -2.047196
 Sum of Mulliken charges =  -0.00000

 Dipole moment (field-independent basis, Debye):
    X=             -0.3026    Y=              0.0000    Z=             -0.3360  Tot=              0.4522

 Test job not archived.
 1\1\GINC-SE334\SP\RHF\Aug-CC-pVDZ\C1H2Cl4Si1\OHZDE\08-Apr-2025\0\\#t h
 f aug-cc-pvdz iop(5/13=1,5/36=2,99/5=2) pseudo=read geom=check guess=(
 read,tcheck) scf=(maxcycle=1)\\title\\0,1\C,0,0.967759,0.,-0.441542\Si
 ,0,-0.713101,0.,0.440256\Cl,0,1.874494,1.486134,0.019959\Cl,0,1.874494
 ,-1.486134,0.019961\Cl,0,-1.762506,1.67474,-0.134103\Cl,0,-1.762506,-1
 .67474,-0.134105\H,0,0.891769,-0.000001,-1.525665\H,0,-0.522497,-0.000
 001,1.892228\\Version=ES64L-G16RevC.01\State=1-A\HF=-2167.4089636\RMSD
 =5.986e-02\Dipole=-0.1190667,0.0000016,-0.1321957\Quadrupole=-1.834315

 Normal termination of Gaussian 16 at Tue Apr  8 23:49:26 2025.
