 Gaussian 16, Revision C.01,

 ----------------------------------------------------------------------
 #t hf aug-cc-pvdz symm=none int=(grid=ultrafine) guess=(read,tcheck) s
 table=(opt,rrhf)
 ----------------------------------------------------------------------
 -----
 title
 -----
 Symbolic Z-matrix:
 Charge =  0 Multiplicity = 1

 SCF Done:  E(RHF) =  -1359.06671530     A.U. after   11 cycles
 Normal termination of Gaussian 16 at Tue Apr  8 23:47:16 2025.
 Gaussian 16:  ES64L-G16RevC.01  3-Jul-2019

 ----------------------------------------------------------------------
 #t hf aug-cc-pvdz iop(5/13=1,5/36=2,99/5=2) pseudo=read geom=check gue
 ss=(read,tcheck) scf=(maxcycle=1)
 ----------------------------------------------------------------------
 -----
 title
 -----
 Structure from the checkpoint file:  "BDE49_nonexpt_1780_mol1.chk"
 Charge =  0 Multiplicity = 1

                         Standard orientation:
 ---------------------------------------------------------------------
 Center     Atomic      Atomic             Coordinates (Angstroms)
 Number     Number       Type             X           Y           Z
 ---------------------------------------------------------------------
      1         14           0        0.000000    0.345031    0.000000
      2         17           0        1.690510   -0.817843    0.009030
      3         17           0       -1.690510   -0.817843   -0.009031
      4          8           0       -0.082571    1.223885   -1.363927
      5          1           0        0.701695    1.697040   -1.655977
      6          8           0        0.082571    1.223884    1.363928
      7          1           0       -0.701695    1.697038    1.655979
 ---------------------------------------------------------------------

 SCF Done:  E(RHF) =  -1360.31621310     A.U. after    2 cycles

 The electronic state is 1-A.
 Alpha  occ. eigenvalues --  -99.89880 -99.89875 -76.33167 -21.10936 -21.10902
 Alpha  occ. eigenvalues --  -10.47430 -10.47368  -9.67241  -9.67237  -9.66689
 Alpha  occ. eigenvalues --   -9.66663  -9.66546  -9.66493  -5.67799  -2.35146
 Alpha  occ. eigenvalues --   -2.31271  -2.29227  -1.72139  -1.67330  -1.31475
 Alpha  occ. eigenvalues --   -1.29546  -0.78316  -0.66790  -0.62457  -0.60224
 Alpha  occ. eigenvalues --   -0.57226  -0.55116  -0.54391  -0.52410  -0.49761
 Alpha  occ. eigenvalues --   -0.43974  -0.43310  -0.38552
 Alpha virt. eigenvalues --    0.02885   0.05741   0.06505   0.06929   0.07655
 Alpha virt. eigenvalues --    0.09234   0.11326   0.12476   0.13916   0.15011
 Alpha virt. eigenvalues --    0.15522   0.16050   0.16860   0.17643   0.18347

 Mulliken charges:
               1
     1  Si   4.828852
     2  Cl  -0.816164
     3  Cl  -0.816164
     4  O   -2.580090
     5  H    0.981827
     6  O   -2.580089
     7  H    0.981828
 Sum of Mulliken charges =   0.00000

 Dipole moment (field-independent basis, Debye):
    X=             -0.0000    Y=              2.4142    Z=              0.0000  Tot=              2.4142

 Test job not archived.
 1\1\GINC-SE250\SP\RHF\Aug-CC-pVDZ\Cl2H2O2Si1\OHZDE\08-Apr-2025\0\\#t h
 f aug-cc-pvdz iop(5/13=1,5/36=2,99/5=2) pseudo=read geom=check guess=(
 read,tcheck) scf=(maxcycle=1)\\title\\0,1\Si,0,0.,0.345031,0.\Cl,0,1.6
 9051,-0.817843,0.00903\Cl,0,-1.69051,-0.817843,-0.009031\O,0,-0.082571
 ,1.223885,-1.363927\H,0,0.701695,1.69704,-1.655977\O,0,0.082571,1.2238
 84,1.363928\H,0,-0.701695,1.697038,1.655979\\Version=ES64L-G16RevC.01\
 State=1-A\HF=-1360.3162131\RMSD=3.818e-02\Dipole=0.,0.9498273,0.000000
 4\Quadrupole=-0.9089437,1.2868723,-0.3779286,0.0000019,-2.5595912,0.00

 Normal termination of Gaussian 16 at Tue Apr  8 23:47:19 2025.
