 Gaussian 16, Revision C.01,

 ----------------------------------------------------------------------
 #t hf aug-cc-pvdz symm=none int=(grid=ultrafine) guess=(read,tcheck) s
 table=(opt,rrhf)
 ----------------------------------------------------------------------
 -----
 title
 -----
 Symbolic Z-matrix:
 Charge =  0 Multiplicity = 1

 SCF Done:  E(RHF) =  -725.792289943     A.U. after   13 cycles
 Normal termination of Gaussian 16 at Tue Apr  8 22:43:34 2025.
 Gaussian 16:  ES64L-G16RevC.01  3-Jul-2019

 ----------------------------------------------------------------------
 #t hf aug-cc-pvdz iop(5/13=1,5/36=2,99/5=2) pseudo=read geom=check gue
 ss=(read,tcheck) scf=(maxcycle=1)
 ----------------------------------------------------------------------
 -----
 title
 -----
 Structure from the checkpoint file:  "BDE49_expt_1449_mol1.chk"
 Charge =  0 Multiplicity = 1

                         Standard orientation:
 ---------------------------------------------------------------------
 Center     Atomic      Atomic             Coordinates (Angstroms)
 Number     Number       Type             X           Y           Z
 ---------------------------------------------------------------------
      1          8           0       -0.468219   -0.329548    0.000000
      2          6           0        0.616563    0.427300    0.000000
      3          6           0       -1.737618    0.400685    0.000000
      4          8           0        0.694610    1.612036    0.000000
      5         17           0        2.051043   -0.638278    0.000000
      6          6           0       -2.842074   -0.632224    0.000000
      7          1           0       -1.761316    1.038784   -0.885247
      8          1           0       -1.761316    1.038785    0.885246
      9          1           0       -2.782764   -1.266450   -0.886447
     10          1           0       -3.811930   -0.128414    0.000000
     11          1           0       -2.782764   -1.266449    0.886448
 ---------------------------------------------------------------------

 SCF Done:  E(RHF) =  -727.202537397     A.U. after    2 cycles

 The electronic state is 1-A.
 Alpha  occ. eigenvalues --  -99.90986 -21.12285 -21.08802 -11.57111 -11.46549
 Alpha  occ. eigenvalues --  -11.39017 -10.48326  -9.68220  -9.67426  -9.67304
 Alpha  occ. eigenvalues --   -1.87650  -1.70671  -1.32755  -1.15719  -0.93489
 Alpha  occ. eigenvalues --   -0.81416  -0.71235  -0.68822  -0.62289  -0.61115
 Alpha  occ. eigenvalues --   -0.56627  -0.53752  -0.53431  -0.50321  -0.48192
 Alpha  occ. eigenvalues --   -0.45132  -0.35236  -0.34574
 Alpha virt. eigenvalues --    0.03243   0.05472   0.05579   0.06137   0.06205
 Alpha virt. eigenvalues --    0.07319   0.09079   0.10645   0.11635   0.11707
 Alpha virt. eigenvalues --    0.13558   0.14045   0.14390   0.15007   0.16399

 Mulliken charges:
               1
     1  O   -2.298639
     2  C    3.513825
     3  C   -2.171837
     4  O   -2.254938
     5  Cl  -0.003047
     6  C   -3.469775
     7  H    1.537228
     8  H    1.537228
     9  H    1.256766
    10  H    1.096421
    11  H    1.256766
 Sum of Mulliken charges =   0.00000

 Dipole moment (field-independent basis, Debye):
    X=             -3.5284    Y=              0.3856    Z=             -0.0000  Tot=              3.5494

 Test job not archived.
 1\1\GINC-SE070\SP\RHF\Aug-CC-pVDZ\C3H5Cl1O2\OHZDE\08-Apr-2025\0\\#t hf
  aug-cc-pvdz iop(5/13=1,5/36=2,99/5=2) pseudo=read geom=check guess=(r
 ead,tcheck) scf=(maxcycle=1)\\title\\0,1\O,0,-0.468219,-0.329548,0.\C,
 0,0.616563,0.4273,0.\C,0,-1.737618,0.400685,0.\O,0,0.69461,1.612036,0.
 \Cl,0,2.051043,-0.638278,0.\C,0,-2.842074,-0.632224,0.\H,0,-1.761316,1
 .038784,-0.885247\H,0,-1.761316,1.038785,0.885246\H,0,-2.782764,-1.266
 45,-0.886447\H,0,-3.81193,-0.128413,0.\H,0,-2.782764,-1.266449,0.88644
 8\\Version=ES64L-G16RevC.01\State=1-A\HF=-727.2025374\RMSD=1.725e-01\D

 Normal termination of Gaussian 16 at Tue Apr  8 22:43:38 2025.
