 Gaussian 16, Revision C.01,

 ----------------------------------------------------------------------
 #t hf aug-cc-pvdz symm=none int=(grid=ultrafine) guess=(read,tcheck) s
 table=(opt,rrhf)
 ----------------------------------------------------------------------
 -----
 title
 -----
 Symbolic Z-matrix:
 Charge =  0 Multiplicity = 1

 SCF Done:  E(RHF) =  -2074.22491022     A.U. after   15 cycles
 Normal termination of Gaussian 16 at Tue Apr  8 23:56:26 2025.
 Gaussian 16:  ES64L-G16RevC.01  3-Jul-2019

 ----------------------------------------------------------------------
 #t hf aug-cc-pvdz iop(5/13=1,5/36=2,99/5=2) pseudo=read geom=check gue
 ss=(read,tcheck) scf=(maxcycle=1)
 ----------------------------------------------------------------------
 -----
 title
 -----
 Structure from the checkpoint file:  "BDE49_nonexpt_1949_mol1.chk"
 Charge =  0 Multiplicity = 1

                         Standard orientation:
 ---------------------------------------------------------------------
 Center     Atomic      Atomic             Coordinates (Angstroms)
 Number     Number       Type             X           Y           Z
 ---------------------------------------------------------------------
      1          6           0       -1.110201   -1.475155    0.789670
      2         14           0        0.485012   -1.845303   -0.180198
      3          6           0        1.746857   -0.443412    0.077548
      4          1           0        0.185773   -2.003087   -1.619264
      5          1           0        1.085363   -3.077899    0.369003
      6         16           0        2.293467   -0.146825    1.602010
      7         16           0        2.202716    0.392397   -1.368227
      8          6           0        3.395356    1.642279   -0.812764
      9          1           0        3.701306    2.185559   -1.707076
     10          1           0        4.253739    1.158673   -0.347299
     11          1           0        2.923968    2.316228   -0.098036
     12          6           0       -1.964413   -0.397124    0.181843
     13         16           0       -2.969633   -0.659083   -1.092616
     14         16           0       -1.728398    1.143508    0.981260
     15          6           0       -2.781061    2.285516    0.049353
     16          1           0       -2.659147    3.257056    0.530384
     17          1           0       -3.820649    1.965005    0.099653
     18          1           0       -2.461208    2.333072   -0.990675
     19          1           0       -0.814582   -1.241408    1.817565
     20          1           0       -1.674392   -2.411538    0.795798
 ---------------------------------------------------------------------

 SCF Done:  E(RHF) =  -2076.25470999     A.U. after    2 cycles

 The electronic state is 1-A.
 Alpha  occ. eigenvalues --  -76.24108 -75.72232 -75.71372 -75.67447 -75.65944
 Alpha  occ. eigenvalues --  -13.16750 -13.16309 -13.14689 -13.14191 -13.13583
 Alpha  occ. eigenvalues --  -13.13146 -13.07259 -13.05649 -13.05127 -13.03287
 Alpha  occ. eigenvalues --  -13.00407 -12.98822 -11.49941 -11.46180 -11.41119
 Alpha  occ. eigenvalues --  -11.40651 -11.39617  -8.06486  -8.05635  -8.01475
 Alpha  occ. eigenvalues --   -8.00096  -5.57690  -2.22056  -2.20759  -2.20211
 Alpha  occ. eigenvalues --   -1.31867  -1.28923  -1.14960  -1.12962  -1.04941
 Alpha  occ. eigenvalues --   -0.99089  -0.97207  -0.82646  -0.74780  -0.68914
 Alpha  occ. eigenvalues --   -0.63549  -0.61479  -0.60667  -0.60255  -0.59760
 Alpha  occ. eigenvalues --   -0.54312  -0.51768  -0.49741  -0.48850  -0.46213
 Alpha  occ. eigenvalues --   -0.45331  -0.41733  -0.37336  -0.36857  -0.35190
 Alpha  occ. eigenvalues --   -0.23418  -0.22880  -0.21973  -0.20954
 Alpha virt. eigenvalues --    0.02294   0.03225   0.03303   0.04735   0.05329
 Alpha virt. eigenvalues --    0.05554   0.06513   0.06600   0.06857   0.07368
 Alpha virt. eigenvalues --    0.07777   0.08283   0.08978   0.09106   0.09475

 Mulliken charges:
               1
     1  C   -4.840670
     2  Si   6.898385
     3  C   -2.544894
     4  H   -2.046213
     5  H   -2.119596
     6  S    0.404854
     7  S    1.310735
     8  C   -4.997847
     9  H    1.302146
    10  H    1.511264
    11  H    1.503792
    12  C   -0.542680
    13  S    0.755295
    14  S    1.085705
    15  C   -4.950198
    16  H    1.289267
    17  H    1.504674
    18  H    1.530302
    19  H    1.533698
    20  H    1.411982
 Sum of Mulliken charges =   0.00000

 Dipole moment (field-independent basis, Debye):
    X=              0.8030    Y=              2.6929    Z=              0.0742  Tot=              2.8110

 Test job not archived.
 1\1\GINC-SE339\SP\RHF\Aug-CC-pVDZ\C5H10S4Si1\OHZDE\08-Apr-2025\0\\#t h
 f aug-cc-pvdz iop(5/13=1,5/36=2,99/5=2) pseudo=read geom=check guess=(
 read,tcheck) scf=(maxcycle=1)\\title\\0,1\C,0,-1.110201,-1.475155,0.78
 967\Si,0,0.485012,-1.845303,-0.180198\C,0,1.746857,-0.443412,0.077548\
 H,0,0.185773,-2.003087,-1.619264\H,0,1.085363,-3.077899,0.369003\S,0,2
 .293467,-0.146825,1.60201\S,0,2.202716,0.392397,-1.368227\C,0,3.395356
 ,1.642279,-0.812764\H,0,3.701306,2.185559,-1.707076\H,0,4.253739,1.158
 673,-0.347299\H,0,2.923968,2.316228,-0.098036\C,0,-1.964413,-0.397124,

 Normal termination of Gaussian 16 at Tue Apr  8 23:56:39 2025.
