 Gaussian 16, Revision C.01,

 ----------------------------------------------------------------------
 #t hf aug-cc-pvdz symm=none int=(grid=ultrafine) guess=(read,tcheck) s
 table=(opt,rrhf)
 ----------------------------------------------------------------------
 -----
 title
 -----
 Symbolic Z-matrix:
 Charge =  0 Multiplicity = 1

 SCF Done:  E(RHF) =  -737.278105630     A.U. after   16 cycles
 Normal termination of Gaussian 16 at Tue Apr  8 23:57:37 2025.
 Gaussian 16:  ES64L-G16RevC.01  3-Jul-2019

 ----------------------------------------------------------------------
 #t hf aug-cc-pvdz iop(5/13=1,5/36=2,99/5=2) pseudo=read geom=check gue
 ss=(read,tcheck) scf=(maxcycle=1)
 ----------------------------------------------------------------------
 -----
 title
 -----
 Structure from the checkpoint file:  "BDE49_nonexpt_2027_mol1.chk"
 Charge =  0 Multiplicity = 1

                         Standard orientation:
 ---------------------------------------------------------------------
 Center     Atomic      Atomic             Coordinates (Angstroms)
 Number     Number       Type             X           Y           Z
 ---------------------------------------------------------------------
      1         14           0        1.160843   -1.595382    0.050100
      2          6           0        0.067693   -0.109586   -0.531432
      3          7           0       -1.355420   -0.234738   -0.047429
      4          8           0       -1.496447   -0.504088    1.134464
      5          8           0       -2.237966   -0.080833   -0.869909
      6          7           0        0.644002    1.204145   -0.029152
      7          1           0        0.028381   -0.008316   -1.614838
      8          8           0       -0.102685    2.033025    0.438954
      9          8           0        1.851124    1.306500   -0.184987
     10          1           0        1.599514   -1.342204    1.430583
     11          1           0        2.290303   -1.695977   -0.889720
     12          1           0        0.291569   -2.783320   -0.050943
 ---------------------------------------------------------------------

 SCF Done:  E(RHF) =  -739.312600074     A.U. after    2 cycles

 The electronic state is 1-A.
 Alpha  occ. eigenvalues --  -76.27276 -21.13839 -21.13229 -21.12884 -21.12596
 Alpha  occ. eigenvalues --  -16.03925 -16.03098 -11.51122  -5.60676  -2.24824
 Alpha  occ. eigenvalues --   -2.23250  -2.23040  -2.04966  -2.01431  -1.73412
 Alpha  occ. eigenvalues --   -1.72608  -1.28313  -1.02075  -0.88224  -0.81430
 Alpha  occ. eigenvalues --   -0.76792  -0.74927  -0.69672  -0.66274  -0.63779
 Alpha  occ. eigenvalues --   -0.62491  -0.52434  -0.51861  -0.51301  -0.41361
 Alpha  occ. eigenvalues --   -0.37481  -0.36544  -0.34552  -0.33680  -0.32599
 Alpha virt. eigenvalues --    0.03000   0.03926   0.05605   0.06001   0.07234
 Alpha virt. eigenvalues --    0.08336   0.08848   0.10351   0.10893   0.12086
 Alpha virt. eigenvalues --    0.12735   0.13061   0.14491   0.15372   0.15637

 Mulliken charges:
               1
     1  Si   6.548592
     2  C   -1.381687
     3  N    4.653245
     4  O   -2.887401
     5  O   -2.709813
     6  N    4.727737
     7  H    1.998254
     8  O   -2.757805
     9  O   -2.928174
    10  H   -1.729717
    11  H   -1.798564
    12  H   -1.734667
 Sum of Mulliken charges =  -0.00000

 Dipole moment (field-independent basis, Debye):
    X=              1.2144    Y=             -1.2739    Z=             -0.7046  Tot=              1.8959

 Test job not archived.
 1\1\GINC-SE363\SP\RHF\Aug-CC-pVDZ\C1H4N2O4Si1\OHZDE\08-Apr-2025\0\\#t
 hf aug-cc-pvdz iop(5/13=1,5/36=2,99/5=2) pseudo=read geom=check guess=
 (read,tcheck) scf=(maxcycle=1)\\title\\0,1\Si,0,1.160844,-1.595381,0.0
 501\C,0,0.067693,-0.109586,-0.531432\N,0,-1.35542,-0.234739,-0.047429\
 O,0,-1.496447,-0.504089,1.134464\O,0,-2.237966,-0.080834,-0.869909\N,0
 ,0.644001,1.204146,-0.029152\H,0,0.028381,-0.008316,-1.614838\O,0,-0.1
 02686,2.033025,0.438954\O,0,1.851123,1.306501,-0.184987\H,0,1.599515,-
 1.342203,1.430583\H,0,2.290304,-1.695975,-0.88972\H,0,0.291571,-2.7833

 Normal termination of Gaussian 16 at Tue Apr  8 23:57:42 2025.
