 Gaussian 16, Revision C.01,

 ----------------------------------------------------------------------
 #t hf aug-cc-pvdz symm=none int=(grid=ultrafine) guess=(read,tcheck) s
 table=(opt,rrhf)
 ----------------------------------------------------------------------
 -----
 title
 -----
 Symbolic Z-matrix:
 Charge =  0 Multiplicity = 1

 SCF Done:  E(RHF) =  -644.895374987     A.U. after   14 cycles
 Normal termination of Gaussian 16 at Tue Apr  8 22:40:36 2025.
 Gaussian 16:  ES64L-G16RevC.01  3-Jul-2019

 ----------------------------------------------------------------------
 #t hf aug-cc-pvdz iop(5/13=1,5/36=2,99/5=2) pseudo=read geom=check gue
 ss=(read,tcheck) scf=(maxcycle=1)
 ----------------------------------------------------------------------
 -----
 title
 -----
 Structure from the checkpoint file:  "BDE49_expt_1261_mol1.chk"
 Charge =  0 Multiplicity = 1

                         Standard orientation:
 ---------------------------------------------------------------------
 Center     Atomic      Atomic             Coordinates (Angstroms)
 Number     Number       Type             X           Y           Z
 ---------------------------------------------------------------------
      1          6           0       -0.000002    0.555466   -0.000001
      2          7           0        1.238341   -0.366125    0.172739
      3          7           0       -1.238341   -0.366129   -0.172739
      4          8           0        1.133931   -1.159385    1.083470
      5          8           0        2.160531   -0.181648   -0.582160
      6          8           0       -2.160532   -0.181650    0.582157
      7          8           0       -1.133922   -1.159396   -1.083462
      8          9           0       -0.130131    1.291646    1.079070
      9          9           0        0.130125    1.291644   -1.079073
 ---------------------------------------------------------------------

 SCF Done:  E(RHF) =  -647.429936886     A.U. after    2 cycles

 The electronic state is 1-A.
 Alpha  occ. eigenvalues --  -29.40080 -29.40020 -21.16753 -21.16729 -21.15978
 Alpha  occ. eigenvalues --  -21.15929 -16.06601 -16.06569 -11.67260  -2.07625
 Alpha  occ. eigenvalues --   -2.05613  -1.77079  -1.76640  -1.46726  -1.08984
 Alpha  occ. eigenvalues --   -1.04624  -0.96936  -0.81479  -0.80965  -0.73131
 Alpha  occ. eigenvalues --   -0.68952  -0.67116  -0.65613  -0.54592  -0.50580
 Alpha  occ. eigenvalues --   -0.49804  -0.47537  -0.43722  -0.38842  -0.38550
 Alpha  occ. eigenvalues --   -0.36251  -0.35512  -0.34002  -0.33779  -0.30549
 Alpha virt. eigenvalues --    0.08132   0.08354   0.09439   0.10784   0.11188
 Alpha virt. eigenvalues --    0.12317   0.13888   0.14546   0.15355   0.16548
 Alpha virt. eigenvalues --    0.18219   0.20431   0.20510   0.22215   0.22584

 Mulliken charges:
               1
     1  C    1.090349
     2  N    4.331159
     3  N    4.331167
     4  O   -2.972324
     5  O   -2.795734
     6  O   -2.795739
     7  O   -2.972328
     8  F    0.891725
     9  F    0.891724
 Sum of Mulliken charges =  -0.00000

 Dipole moment (field-independent basis, Debye):
    X=             -0.0000    Y=              3.9185    Z=             -0.0000  Tot=              3.9185

 Test job not archived.
 1\1\GINC-SE090\SP\RHF\Aug-CC-pVDZ\C1F2N2O4\OHZDE\08-Apr-2025\0\\#t hf
 aug-cc-pvdz iop(5/13=1,5/36=2,99/5=2) pseudo=read geom=check guess=(re
 ad,tcheck) scf=(maxcycle=1)\\title\\0,1\C,0,0.000002,0.555466,0.000001
 \N,0,-1.238341,-0.366125,-0.172739\N,0,1.238341,-0.366129,0.172739\O,0
 ,-1.133931,-1.159385,-1.08347\O,0,-2.160531,-0.181648,0.58216\O,0,2.16
 0532,-0.18165,-0.582157\O,0,1.133922,-1.159396,1.083462\F,0,0.130131,1
 .291646,-1.07907\F,0,-0.130125,1.291644,1.079073\\Version=ES64L-G16Rev
 C.01\State=1-A\HF=-647.4299369\RMSD=8.877e-02\Dipole=0.0000054,1.54165

 Normal termination of Gaussian 16 at Tue Apr  8 22:40:40 2025.
