 Gaussian 16, Revision C.01,

 ----------------------------------------------------------------------
 #t hf aug-cc-pvdz symm=none int=(grid=ultrafine) guess=(read,tcheck) s
 table=opt
 ----------------------------------------------------------------------
 -----
 title
 -----
 Symbolic Z-matrix:
 Charge =  0 Multiplicity = 2

 SCF Done:  E(UHF) =  -523.731469711     A.U. after   16 cycles
 Normal termination of Gaussian 16 at Wed Apr  9 00:35:47 2025.
 Gaussian 16:  ES64L-G16RevC.01  3-Jul-2019

 ----------------------------------------------------------------------
 #t hf aug-cc-pvdz iop(5/13=1,5/36=2,99/5=2) pseudo=read geom=check gue
 ss=(read,tcheck) scf=(maxcycle=1)
 ----------------------------------------------------------------------
 -----
 title
 -----
 Structure from the checkpoint file:  "BDE49_nonexpt_462_mol2.chk"
 Charge =  0 Multiplicity = 2

                         Standard orientation:
 ---------------------------------------------------------------------
 Center     Atomic      Atomic             Coordinates (Angstroms)
 Number     Number       Type             X           Y           Z
 ---------------------------------------------------------------------
      1          1           0        2.965740   -0.376883    0.000034
      2          5           0        1.791163   -0.556959    0.000020
      3          6           0        0.687270    0.503869    0.000009
      4         17           0       -1.035141   -0.127326   -0.000012
      5          1           0        0.776125    1.151501   -0.879152
      6          1           0        0.776104    1.151497    0.879176
 ---------------------------------------------------------------------

 SCF Done:  E(UHF) =  -524.259928129     A.U. after    2 cycles

 The electronic state is 2-A.
 Alpha  occ. eigenvalues --  -99.87846 -11.41144 -10.45007  -9.64885  -9.64169
 Alpha  occ. eigenvalues --   -9.64131  -7.65290  -1.32218  -1.06417  -0.76794
 Alpha  occ. eigenvalues --   -0.63961  -0.61888  -0.54111  -0.47925  -0.45742
 Alpha  occ. eigenvalues --   -0.32016
 Alpha virt. eigenvalues --    0.02645   0.02986   0.04293   0.05095   0.06527
 Alpha virt. eigenvalues --    0.07707   0.10138   0.11765   0.13387   0.13689
 Alpha virt. eigenvalues --    0.15994   0.16258   0.17541   0.18276   0.19148

  Beta  occ. eigenvalues --  -99.87792 -11.41214 -10.44944  -9.64688  -9.64130
  Beta  occ. eigenvalues --   -9.64098  -7.63466  -1.31721  -1.05115  -0.72517
  Beta  occ. eigenvalues --   -0.63896  -0.60951  -0.53273  -0.47820  -0.45061
  Beta virt. eigenvalues --    0.02501   0.03379   0.03469   0.04392   0.07459
  Beta virt. eigenvalues --    0.07907   0.08419   0.10391   0.12951   0.13464
  Beta virt. eigenvalues --    0.15488   0.16330   0.16353   0.17680   0.19063

 Mulliken charges and spin densities:
               1          2
     1  H   -1.493812  -0.005041
     2  B    2.365825   0.998223
     3  C   -4.133800  -0.048900
     4  Cl  -0.025666   0.027829
     5  H    1.643727   0.013944
     6  H    1.643726   0.013944
 Sum of Mulliken charges =  -0.00000   1.00000

 Dipole moment (field-independent basis, Debye):
    X=              2.2353    Y=              1.5123    Z=              0.0000  Tot=              2.6988
                          Isotropic Fermi Contact Couplings
        Atom                 a.u.       MegaHertz       Gauss      10(-4) cm-1
     1  H(1)               0.00417      18.64277       6.65221       6.21856
     2  B(11)              0.16750     240.25955      85.73058      80.14196
     3  C(13)             -0.00513      -5.77111      -2.05927      -1.92503
     4  Cl(35)             0.06297      27.61179       9.85257       9.21030
     5  H(1)               0.00185       8.28074       2.95477       2.76216
     6  H(1)               0.00185       8.28071       2.95476       2.76215
 --------------------------------------------------------
       Center         ----  Spin Dipole Couplings  ----

 Normal termination of Gaussian 16 at Wed Apr  9 00:35:50 2025.
