 Gaussian 16, Revision C.01,

 ----------------------------------------------------------------------
 #t hf aug-cc-pvdz symm=none int=(grid=ultrafine) guess=(read,tcheck) s
 table=(opt,rrhf)
 ----------------------------------------------------------------------
 -----
 title
 -----
 Symbolic Z-matrix:
 Charge =  0 Multiplicity = 1

 SCF Done:  E(RHF) =  -549.206419963     A.U. after   13 cycles
 Normal termination of Gaussian 16 at Wed Apr  9 00:44:53 2025.
 Gaussian 16:  ES64L-G16RevC.01  3-Jul-2019

 ----------------------------------------------------------------------
 #t hf aug-cc-pvdz iop(5/13=1,5/36=2,99/5=2) pseudo=read geom=check gue
 ss=(read,tcheck) scf=(maxcycle=1)
 ----------------------------------------------------------------------
 -----
 title
 -----
 Structure from the checkpoint file:  "BDE49_nonexpt_733_mol1.chk"
 Charge =  0 Multiplicity = 1

                         Standard orientation:
 ---------------------------------------------------------------------
 Center     Atomic      Atomic             Coordinates (Angstroms)
 Number     Number       Type             X           Y           Z
 ---------------------------------------------------------------------
      1          6           0        1.841979    1.587617    0.017381
      2          5           0        1.638941    0.025068    0.006259
      3          1           0        1.694645    1.941420    1.048111
      4          1           0        1.152660    2.155995   -0.609031
      5          1           0        2.866337    1.866120   -0.253105
      6          6           0        2.845520   -0.922572    0.364736
      7          1           0        3.630272   -0.808852   -0.395773
      8          1           0        2.609324   -1.985631    0.444594
      9          1           0        3.306840   -0.602560    1.307910
     10         15           0       -0.000001   -0.751731   -0.510852
     11          5           0       -1.638900    0.025068    0.006401
     12          6           0       -2.845525   -0.922573    0.364722
     13          1           0       -3.630219   -0.808799   -0.395839
     14          1           0       -3.306910   -0.602606    1.307878
     15          1           0       -2.609352   -1.985640    0.444537
     16          6           0       -1.841989    1.587610    0.017359
     17          1           0       -1.694682    1.941514    1.048058
     18          1           0       -2.866351    1.866057   -0.253170
     19          1           0       -1.152677    2.155950   -0.609096
     20          1           0        0.000014   -2.088181   -0.070785
 ---------------------------------------------------------------------

 SCF Done:  E(RHF) =  -550.483663009     A.U. after    2 cycles

 The electronic state is 1-A.
 Alpha  occ. eigenvalues -- -105.13526 -11.33939 -11.33441 -11.33371 -11.33161
 Alpha  occ. eigenvalues --   -7.60633  -7.60453  -2.72048  -1.53541  -1.45982
 Alpha  occ. eigenvalues --   -1.38297  -1.12525  -1.10129  -1.00795  -1.00279
 Alpha  occ. eigenvalues --   -0.77995  -0.63101  -0.61105  -0.56074  -0.55864
 Alpha  occ. eigenvalues --   -0.55213  -0.54602  -0.53157  -0.52899  -0.52531
 Alpha  occ. eigenvalues --   -0.50462  -0.42173  -0.41515  -0.19930  -0.07289
 Alpha  occ. eigenvalues --   -0.04446
 Alpha virt. eigenvalues --    0.03232   0.03914   0.03998   0.04374   0.06770
 Alpha virt. eigenvalues --    0.06835   0.07008   0.07748   0.07903   0.08057
 Alpha virt. eigenvalues --    0.08085   0.08852   0.08865   0.09093   0.09627

 Mulliken charges:
               1
     1  C   -6.161545
     2  B    5.762720
     3  H    1.135421
     4  H    1.536248
     5  H    1.157600
     6  C   -6.071956
     7  H    0.852642
     8  H    1.321040
     9  H    1.157375
    10  P    0.465712
    11  B    5.762670
    12  C   -6.072146
    13  H    0.852477
    14  H    1.157256
    15  H    1.321031
    16  C   -6.161411
    17  H    1.135427
    18  H    1.157562
    19  H    1.536285
    20  H   -1.844405
 Sum of Mulliken charges =   0.00000

 Dipole moment (field-independent basis, Debye):
    X=             -0.0000    Y=             -1.4984    Z=             -4.3829  Tot=              4.6320

 Test job not archived.
 1\1\GINC-SE177\SP\RHF\Aug-CC-pVDZ\C4H13B2P1\OHZDE\09-Apr-2025\0\\#t hf
  aug-cc-pvdz iop(5/13=1,5/36=2,99/5=2) pseudo=read geom=check guess=(r
 ead,tcheck) scf=(maxcycle=1)\\title\\0,1\C,0,1.841979,1.587617,0.01738
 1\B,0,1.638941,0.025068,0.006259\H,0,1.694645,1.94142,1.048111\H,0,1.1
 5266,2.155995,-0.609031\H,0,2.866337,1.86612,-0.253105\C,0,2.84552,-0.
 922572,0.364736\H,0,3.630272,-0.808852,-0.395773\H,0,2.609324,-1.98563
 1,0.444594\H,0,3.30684,-0.60256,1.30791\P,0,-0.000001,-0.751731,-0.510
 852\B,0,-1.6389,0.025068,0.006401\C,0,-2.845525,-0.922573,0.364722\H,0

 Normal termination of Gaussian 16 at Wed Apr  9 00:45:15 2025.
