 Gaussian 16, Revision C.01,

 ----------------------------------------------------------------------
 #t hf aug-cc-pvdz symm=none int=(grid=ultrafine) guess=(read,tcheck) s
 table=(opt,rrhf)
 ----------------------------------------------------------------------
 -----
 title
 -----
 Symbolic Z-matrix:
 Charge =  0 Multiplicity = 1

 SCF Done:  E(RHF) =  -784.861984190     A.U. after   13 cycles
 Normal termination of Gaussian 16 at Wed Apr  9 00:12:37 2025.
 Gaussian 16:  ES64L-G16RevC.01  3-Jul-2019

 ----------------------------------------------------------------------
 #t hf aug-cc-pvdz iop(5/13=1,5/36=2,99/5=2) pseudo=read geom=check gue
 ss=(read,tcheck) scf=(maxcycle=1)
 ----------------------------------------------------------------------
 -----
 title
 -----
 Structure from the checkpoint file:  "BDE49_nonexpt_2404_mol1.chk"
 Charge =  0 Multiplicity = 1

                         Standard orientation:
 ---------------------------------------------------------------------
 Center     Atomic      Atomic             Coordinates (Angstroms)
 Number     Number       Type             X           Y           Z
 ---------------------------------------------------------------------
      1         14           0       -2.077038    0.291558   -0.000017
      2         14           0       -0.096197   -0.977076    0.000015
      3          7           0        1.333890    0.245636   -0.000003
      4          8           0        1.065995    1.446976    0.000016
      5          1           0       -3.225288   -0.646594   -0.000017
      6          1           0       -2.120752    1.127915   -1.217501
      7          1           0        0.141234   -1.789202   -1.209894
      8          1           0        0.141226   -1.789148    1.209962
      9          8           0        2.468059   -0.216115   -0.000009
     10          1           0       -2.120775    1.127942    1.217446
 ---------------------------------------------------------------------

 SCF Done:  E(RHF) =  -786.027702132     A.U. after    2 cycles

 The electronic state is 1-A.
 Alpha  occ. eigenvalues --  -76.28123 -76.24536 -21.09645 -21.09499 -15.96332
 Alpha  occ. eigenvalues --   -5.61633  -5.57940  -2.25306  -2.23493  -2.23123
 Alpha  occ. eigenvalues --   -2.20060  -2.19997  -2.19131  -1.97246  -1.68169
 Alpha  occ. eigenvalues --   -1.00692  -0.82149  -0.74280  -0.65325  -0.65093
 Alpha  occ. eigenvalues --   -0.60162  -0.51732  -0.49608  -0.49175  -0.40614
 Alpha  occ. eigenvalues --   -0.32186  -0.31229  -0.31147
 Alpha virt. eigenvalues --    0.03318   0.04030   0.05398   0.05747   0.06848
 Alpha virt. eigenvalues --    0.07584   0.07611   0.07980   0.08827   0.09137
 Alpha virt. eigenvalues --    0.09654   0.10833   0.11635   0.13497   0.13510

 Mulliken charges:
               1
     1  Si   4.586117
     2  Si   4.475517
     3  N    3.310705
     4  O   -2.038310
     5  H   -1.522630
     6  H   -1.497945
     7  H   -1.726715
     8  H   -1.726728
     9  O   -2.362061
    10  H   -1.497950
 Sum of Mulliken charges =  -0.00000

 Dipole moment (field-independent basis, Debye):
    X=             -2.4154    Y=             -0.9934    Z=              0.0000  Tot=              2.6117

 Test job not archived.
 1\1\GINC-SE322\SP\RHF\Aug-CC-pVDZ\H5N1O2Si2\OHZDE\09-Apr-2025\0\\#t hf
  aug-cc-pvdz iop(5/13=1,5/36=2,99/5=2) pseudo=read geom=check guess=(r
 ead,tcheck) scf=(maxcycle=1)\\title\\0,1\Si,0,-2.077038,0.291558,-0.00
 0017\Si,0,-0.096197,-0.977076,0.000015\N,0,1.33389,0.245636,-0.000003\
 O,0,1.065995,1.446976,0.000016\H,0,-3.225288,-0.646594,-0.000017\H,0,-
 2.120752,1.127915,-1.217501\H,0,0.141234,-1.789202,-1.209894\H,0,0.141
 226,-1.789148,1.209962\O,0,2.468059,-0.216115,-0.000009\H,0,-2.120775,
 1.127942,1.217446\\Version=ES64L-G16RevC.01\State=1-A\HF=-786.0277021\

 Normal termination of Gaussian 16 at Wed Apr  9 00:12:41 2025.
