 Gaussian 16, Revision C.01,

 ----------------------------------------------------------------------
 #t hf aug-cc-pvdz symm=none int=(grid=ultrafine) guess=(read,tcheck) s
 table=(opt,rrhf)
 ----------------------------------------------------------------------
 -----
 title
 -----
 Symbolic Z-matrix:
 Charge =  0 Multiplicity = 1

 SCF Done:  E(RHF) =  -1186.83092604     A.U. after   12 cycles
 Normal termination of Gaussian 16 at Tue Apr  8 23:48:16 2025.
 Gaussian 16:  ES64L-G16RevC.01  3-Jul-2019

 ----------------------------------------------------------------------
 #t hf aug-cc-pvdz iop(5/13=1,5/36=2,99/5=2) pseudo=read geom=check gue
 ss=(read,tcheck) scf=(maxcycle=1)
 ----------------------------------------------------------------------
 -----
 title
 -----
 Structure from the checkpoint file:  "BDE49_nonexpt_1799_mol1.chk"
 Charge =  0 Multiplicity = 1

                         Standard orientation:
 ---------------------------------------------------------------------
 Center     Atomic      Atomic             Coordinates (Angstroms)
 Number     Number       Type             X           Y           Z
 ---------------------------------------------------------------------
      1         14           0        0.472686   -0.812057    0.378653
      2          6           0       -1.889180    1.151526    0.371528
      3         16           0       -1.448228   -0.433798   -0.458496
      4          1           0       -2.902993    1.388920    0.051257
      5          1           0       -1.217244    1.948754    0.057931
      6          1           0       -1.872589    1.041973    1.455307
      7         17           0        1.914989    0.582018   -0.205313
      8          1           0        0.886353   -2.133998   -0.119771
      9          1           0        0.440791   -0.739543    1.851232
 ---------------------------------------------------------------------

 SCF Done:  E(RHF) =  -1187.66839004     A.U. after    2 cycles

 The electronic state is 1-A.
 Alpha  occ. eigenvalues --  -99.88550 -76.28393 -75.68493 -13.10272 -13.07311
 Alpha  occ. eigenvalues --  -13.02897 -11.41101 -10.45938  -9.65825  -9.65203
 Alpha  occ. eigenvalues --   -9.65168  -8.02686  -5.61800  -2.24010  -2.23492
 Alpha  occ. eigenvalues --   -2.23278  -1.29057  -1.18814  -0.95433  -0.76900
 Alpha  occ. eigenvalues --   -0.60319  -0.60146  -0.56012  -0.55661  -0.53398
 Alpha  occ. eigenvalues --   -0.48690  -0.43712  -0.34663  -0.27358
 Alpha virt. eigenvalues --    0.02654   0.04432   0.04802   0.05337   0.06817
 Alpha virt. eigenvalues --    0.07745   0.08376   0.10014   0.10347   0.11555
 Alpha virt. eigenvalues --    0.12461   0.13376   0.13855   0.14281   0.14900

 Mulliken charges:
               1
     1  Si   5.644082
     2  C   -4.431609
     3  S   -0.794434
     4  H    1.406657
     5  H    1.329770
     6  H    1.374529
     7  Cl  -0.924176
     8  H   -1.827383
     9  H   -1.777436
 Sum of Mulliken charges =  -0.00000

 Dipole moment (field-independent basis, Debye):
    X=             -3.1773    Y=             -0.4012    Z=             -0.4137  Tot=              3.2292

 Test job not archived.
 1\1\GINC-SE398\SP\RHF\Aug-CC-pVDZ\C1H5Cl1S1Si1\OHZDE\08-Apr-2025\0\\#t
  hf aug-cc-pvdz iop(5/13=1,5/36=2,99/5=2) pseudo=read geom=check guess
 =(read,tcheck) scf=(maxcycle=1)\\title\\0,1\Si,0,0.472686,-0.812057,0.
 378653\C,0,-1.88918,1.151526,0.371528\S,0,-1.448228,-0.433798,-0.45849
 6\H,0,-2.902993,1.38892,0.051257\H,0,-1.217244,1.948754,0.057931\H,0,-
 1.872589,1.041973,1.455307\Cl,0,1.914989,0.582018,-0.205313\H,0,0.8863
 53,-2.133998,-0.119771\H,0,0.440791,-0.739543,1.851232\\Version=ES64L-
 G16RevC.01\State=1-A\HF=-1187.66839\RMSD=8.717e-02\Dipole=-1.2500598,-

 Normal termination of Gaussian 16 at Tue Apr  8 23:48:18 2025.
