 Gaussian 16, Revision C.01,

 ----------------------------------------------------------------------
 #t hf aug-cc-pvdz symm=none int=(grid=ultrafine) guess=(read,tcheck) s
 table=(opt,rrhf)
 ----------------------------------------------------------------------
 -----
 title
 -----
 Symbolic Z-matrix:
 Charge =  0 Multiplicity = 1

 SCF Done:  E(RHF) =  -855.209546964     A.U. after   15 cycles
 Normal termination of Gaussian 16 at Tue Apr  8 23:24:39 2025.
 Gaussian 16:  ES64L-G16RevC.01  3-Jul-2019

 ----------------------------------------------------------------------
 #t hf aug-cc-pvdz iop(5/13=1,5/36=2,99/5=2) pseudo=read geom=check gue
 ss=(read,tcheck) scf=(maxcycle=1)
 ----------------------------------------------------------------------
 -----
 title
 -----
 Structure from the checkpoint file:  "BDE49_nonexpt_1195_mol1.chk"
 Charge =  0 Multiplicity = 1

                         Standard orientation:
 ---------------------------------------------------------------------
 Center     Atomic      Atomic             Coordinates (Angstroms)
 Number     Number       Type             X           Y           Z
 ---------------------------------------------------------------------
      1          6           0       -2.172631    0.521408   -0.133007
      2          8           0       -1.550199    1.424102   -0.603566
      3          8           0       -1.772973   -0.807881   -0.181137
      4         16           0       -0.256530   -1.151602   -0.848171
      5          6           0        0.792161   -0.637905    0.522987
      6          8           0        0.345032   -0.153058    1.525730
      7          6           0       -3.481159    0.605174    0.605370
      8          1           0       -3.885243    1.610173    0.504001
      9          1           0       -3.299801    0.383591    1.659750
     10          1           0       -4.186400   -0.135204    0.225531
     11          6           0        2.263371   -0.862956    0.232897
     12          6           0        3.078009    0.432818    0.404765
     13          1           0        2.394359   -1.273249   -0.775520
     14          1           0        2.609053   -1.623367    0.941371
     15          6           0        2.737037    1.508814   -0.629897
     16          1           0        4.140393    0.177543    0.344666
     17          1           0        2.898578    0.813318    1.413858
     18          1           0        2.930420    1.156061   -1.647783
     19          1           0        3.341765    2.404493   -0.468596
     20          1           0        1.685748    1.802856   -0.573445
 ---------------------------------------------------------------------

 SCF Done:  E(RHF) =  -857.493080060     A.U. after    2 cycles

 The electronic state is 1-A.
 Alpha  occ. eigenvalues --  -75.75274 -21.11007 -21.07268 -21.06300 -13.24281
 Alpha  occ. eigenvalues --  -13.16713 -13.10771 -11.53548 -11.51882 -11.43929
 Alpha  occ. eigenvalues --  -11.40427 -11.39988 -11.36246  -8.09098  -1.84539
 Alpha  occ. eigenvalues --   -1.73155  -1.67856  -1.24753  -1.15494  -1.09473
 Alpha  occ. eigenvalues --   -1.02897  -0.88384  -0.78958  -0.72830  -0.66635
 Alpha  occ. eigenvalues --   -0.64237  -0.63553  -0.62263  -0.60407  -0.58117
 Alpha  occ. eigenvalues --   -0.57277  -0.52305  -0.51640  -0.51195  -0.48450
 Alpha  occ. eigenvalues --   -0.47701  -0.45989  -0.43852  -0.41385  -0.36023
 Alpha  occ. eigenvalues --   -0.30736  -0.27031  -0.26039
 Alpha virt. eigenvalues --    0.03552   0.04339   0.05217   0.05397   0.05964
 Alpha virt. eigenvalues --    0.06144   0.06672   0.06931   0.07212   0.08474
 Alpha virt. eigenvalues --    0.09104   0.09928   0.11513   0.11802   0.12857

 Mulliken charges:
               1
     1  C    5.365007
     2  O   -3.008040
     3  O   -2.703685
     4  S    1.402365
     5  C    3.104911
     6  O   -3.344677
     7  C   -4.353280
     8  H    1.226448
     9  H    1.274568
    10  H    1.277708
    11  C   -2.959480
    12  C   -3.234921
    13  H    1.783714
    14  H    1.321395
    15  C   -3.863191
    16  H    1.323019
    17  H    1.423613
    18  H    1.254427
    19  H    1.153062
    20  H    1.557039
 Sum of Mulliken charges =   0.00000

 Dipole moment (field-independent basis, Debye):
    X=              0.3722    Y=             -0.7204    Z=             -0.8030  Tot=              1.1411

 Test job not archived.
 1\1\GINC-SE163\SP\RHF\Aug-CC-pVDZ\C6H10O3S1\OHZDE\08-Apr-2025\0\\#t hf
  aug-cc-pvdz iop(5/13=1,5/36=2,99/5=2) pseudo=read geom=check guess=(r
 ead,tcheck) scf=(maxcycle=1)\\title\\0,1\C,0,-2.172631,0.521408,-0.133
 007\O,0,-1.550199,1.424102,-0.603566\O,0,-1.772973,-0.807881,-0.181137
 \S,0,-0.25653,-1.151602,-0.848171\C,0,0.792161,-0.637905,0.522987\O,0,
 0.345032,-0.153058,1.52573\C,0,-3.481159,0.605174,0.60537\H,0,-3.88524
 3,1.610173,0.504001\H,0,-3.299801,0.383591,1.65975\H,0,-4.1864,-0.1352
 04,0.225531\C,0,2.263371,-0.862956,0.232897\C,0,3.078009,0.432818,0.40

 Normal termination of Gaussian 16 at Tue Apr  8 23:24:50 2025.
