 Gaussian 16, Revision C.01,

 ----------------------------------------------------------------------
 #t hf aug-cc-pvdz symm=none int=(grid=ultrafine) guess=(read,tcheck) s
 table=opt
 ----------------------------------------------------------------------
 -----
 title
 -----
 Symbolic Z-matrix:
 Charge =  0 Multiplicity = 2

 SCF Done:  E(UHF) =  -2165.39905096     A.U. after   17 cycles
 Normal termination of Gaussian 16 at Tue Apr  8 23:49:29 2025.
 Gaussian 16:  ES64L-G16RevC.01  3-Jul-2019

 ----------------------------------------------------------------------
 #t hf aug-cc-pvdz iop(5/13=1,5/36=2,99/5=2) pseudo=read geom=check gue
 ss=(read,tcheck) scf=(maxcycle=1)
 ----------------------------------------------------------------------
 -----
 title
 -----
 Structure from the checkpoint file:  "BDE49_nonexpt_1817_mol2.chk"
 Charge =  0 Multiplicity = 2

                         Standard orientation:
 ---------------------------------------------------------------------
 Center     Atomic      Atomic             Coordinates (Angstroms)
 Number     Number       Type             X           Y           Z
 ---------------------------------------------------------------------
      1         14           0       -0.964080   -1.025645   -0.437484
      2          6           0        0.595302    0.020408   -0.006179
      3         17           0       -2.675863    0.055429   -0.010732
      4         17           0        0.650504    0.426531    1.746242
      5         17           0        0.661460    1.523500   -0.979267
      6         17           0        2.002209   -1.037169   -0.419230
      7          1           0       -0.925965   -2.224380    0.432626
 ---------------------------------------------------------------------

 SCF Done:  E(UHF) =  -2166.68952207     A.U. after    2 cycles

 The electronic state is 2-A.
 Alpha  occ. eigenvalues --  -99.92680 -99.92431 -99.92390 -99.90661 -76.30846
 Alpha  occ. eigenvalues --  -11.53848 -10.50089 -10.49690 -10.49572 -10.48070
 Alpha  occ. eigenvalues --   -9.69824  -9.69633  -9.69536  -9.69086  -9.69015
 Alpha  occ. eigenvalues --   -9.68844  -9.68803  -9.68731  -9.68683  -9.67986
 Alpha  occ. eigenvalues --   -9.67305  -9.67249  -5.64194  -2.27206  -2.26029
 Alpha  occ. eigenvalues --   -2.25173  -1.45374  -1.31450  -1.31165  -1.31018
 Alpha  occ. eigenvalues --   -0.99068  -0.80939  -0.70843  -0.70780  -0.66194
 Alpha  occ. eigenvalues --   -0.58960  -0.57812  -0.55941  -0.55498  -0.53939
 Alpha  occ. eigenvalues --   -0.52009  -0.51908  -0.50816  -0.45829  -0.33792
 Alpha virt. eigenvalues --   -0.00990   0.03916   0.04661   0.05336   0.05736
 Alpha virt. eigenvalues --    0.06194   0.06800   0.09455   0.10588   0.11385
 Alpha virt. eigenvalues --    0.11742   0.12295   0.12415   0.13454   0.14885

  Beta  occ. eigenvalues --  -99.92683 -99.92436 -99.92344 -99.90560 -76.30249
  Beta  occ. eigenvalues --  -11.53720 -10.50085 -10.49689 -10.49535 -10.47960
  Beta  occ. eigenvalues --   -9.69842  -9.69618  -9.69430  -9.69092  -9.69002
  Beta  occ. eigenvalues --   -9.68827  -9.68783  -9.68701  -9.68661  -9.67799
  Beta  occ. eigenvalues --   -9.67218  -9.66997  -5.63217  -2.26539  -2.25396
  Beta  occ. eigenvalues --   -2.21651  -1.45195  -1.31277  -1.30937  -1.30369
  Beta  occ. eigenvalues --   -0.98315  -0.77883  -0.70729  -0.70434  -0.65087
  Beta  occ. eigenvalues --   -0.58205  -0.57242  -0.55618  -0.54487  -0.53036
  Beta  occ. eigenvalues --   -0.51926  -0.51859  -0.50750  -0.44856
  Beta virt. eigenvalues --   -0.01863   0.00781   0.04343   0.05169   0.05976
  Beta virt. eigenvalues --    0.06042   0.06454   0.07071   0.09976   0.10806
  Beta virt. eigenvalues --    0.11542   0.12134   0.13163   0.13791   0.14013

 Mulliken charges and spin densities:
               1          2
     1  Si   3.579757   0.891708
     2  C   -1.949721  -0.096128
     3  Cl  -0.911135   0.069051
     4  Cl   0.303247   0.031395
     5  Cl   0.317639   0.008940
     6  Cl   0.274940   0.013856
     7  H   -1.614726   0.081178
 Sum of Mulliken charges =   0.00000   1.00000

 Dipole moment (field-independent basis, Debye):
    X=             -0.3161    Y=             -1.3352    Z=             -0.9397  Tot=              1.6630
                          Isotropic Fermi Contact Couplings
        Atom                 a.u.       MegaHertz       Gauss      10(-4) cm-1
     1  Si(29)             0.71297    -633.63900    -226.09815    -211.35922
     2  C(13)              0.04547      51.11616      18.23952      17.05052
     3  Cl(35)             0.07234      31.71735      11.31754      10.57977
     4  Cl(35)             0.01666       7.30470       2.60650       2.43659
     5  Cl(35)            -0.00185      -0.81113      -0.28943      -0.27056
     6  Cl(35)            -0.00200      -0.87740      -0.31308      -0.29267
     7  H(1)               0.01949      87.11160      31.08359      29.05730
 --------------------------------------------------------

 Normal termination of Gaussian 16 at Tue Apr  8 23:49:32 2025.
