 Gaussian 16, Revision C.01,

 ----------------------------------------------------------------------
 #t hf aug-cc-pvdz symm=none int=(grid=ultrafine) guess=(read,tcheck) s
 table=(opt,rrhf)
 ----------------------------------------------------------------------
 -----
 title
 -----
 Symbolic Z-matrix:
 Charge =  0 Multiplicity = 1

 SCF Done:  E(RHF) =  -491.120254999     A.U. after   12 cycles
 Normal termination of Gaussian 16 at Wed Apr  9 00:34:19 2025.
 Gaussian 16:  ES64L-G16RevC.01  3-Jul-2019

 ----------------------------------------------------------------------
 #t hf aug-cc-pvdz iop(5/13=1,5/36=2,99/5=2) pseudo=read geom=check gue
 ss=(read,tcheck) scf=(maxcycle=1)
 ----------------------------------------------------------------------
 -----
 title
 -----
 Structure from the checkpoint file:  "BDE49_nonexpt_417_mol1.chk"
 Charge =  0 Multiplicity = 1

                         Standard orientation:
 ---------------------------------------------------------------------
 Center     Atomic      Atomic             Coordinates (Angstroms)
 Number     Number       Type             X           Y           Z
 ---------------------------------------------------------------------
      1          9           0       -2.228922    0.480892    0.300038
      2          5           0       -1.275861   -0.412045    0.081522
      3          9           0       -1.647716   -1.579966   -0.407515
      4          6           0        0.233706   -0.115022    0.487217
      5          8           0        0.563310    1.257725    0.577589
      6          8           0        1.077290   -0.839434   -0.375458
      7          6           0        0.408320    1.982285   -0.641042
      8          1           0        0.752069    2.996847   -0.443172
      9          1           0       -0.643044    2.020221   -0.952106
     10          1           0        1.007778    1.544219   -1.444608
     11          6           0        2.418227   -0.951586    0.093919
     12          1           0        2.967922   -1.516693   -0.657948
     13          1           0        2.450820   -1.493366    1.048610
     14          1           0        2.879751    0.031286    0.226646
     15          1           0        0.367436   -0.471016    1.524646
 ---------------------------------------------------------------------

 SCF Done:  E(RHF) =  -493.099185605     A.U. after    2 cycles

 The electronic state is 1-A.
 Alpha  occ. eigenvalues --  -29.26153 -29.25931 -21.05960 -21.05754 -11.43924
 Alpha  occ. eigenvalues --  -11.41282 -11.40517  -7.70479  -1.82349  -1.69843
 Alpha  occ. eigenvalues --   -1.17869  -1.03322  -0.98878  -0.86279  -0.75774
 Alpha  occ. eigenvalues --   -0.69897  -0.66797  -0.61025  -0.60775  -0.59575
 Alpha  occ. eigenvalues --   -0.54918  -0.52605  -0.48770  -0.46895  -0.46053
 Alpha  occ. eigenvalues --   -0.44038  -0.39476  -0.34503  -0.33338  -0.33146
 Alpha  occ. eigenvalues --   -0.30257  -0.24664
 Alpha virt. eigenvalues --    0.03318   0.03973   0.05092   0.05279   0.06007
 Alpha virt. eigenvalues --    0.06150   0.06307   0.07007   0.08228   0.09161
 Alpha virt. eigenvalues --    0.09737   0.11970   0.13510   0.14621   0.15269

 Mulliken charges:
               1
     1  F   -0.096899
     2  B    1.913455
     3  F   -0.303489
     4  C    1.319179
     5  O   -2.989351
     6  O   -3.085730
     7  C   -3.305318
     8  H    1.202113
     9  H    1.494032
    10  H    1.415627
    11  C   -3.064748
    12  H    1.267974
    13  H    1.354751
    14  H    1.389198
    15  H    1.489205
 Sum of Mulliken charges =   0.00000

 Dipole moment (field-independent basis, Debye):
    X=             -1.6760    Y=             -0.5062    Z=             -0.5023  Tot=              1.8214

 Test job not archived.
 1\1\GINC-SE247\SP\RHF\Aug-CC-pVDZ\C3H7B1F2O2\OHZDE\09-Apr-2025\0\\#t h
 f aug-cc-pvdz iop(5/13=1,5/36=2,99/5=2) pseudo=read geom=check guess=(
 read,tcheck) scf=(maxcycle=1)\\title\\0,1\F,0,-2.228922,0.480892,0.300
 038\B,0,-1.275861,-0.412045,0.081522\F,0,-1.647716,-1.579966,-0.407515
 \C,0,0.233706,-0.115022,0.487217\O,0,0.56331,1.257725,0.577589\O,0,1.0
 7729,-0.839434,-0.375458\C,0,0.40832,1.982285,-0.641042\H,0,0.75207,2.
 996847,-0.443172\H,0,-0.643044,2.020221,-0.952106\H,0,1.007778,1.54421
 9,-1.444608\C,0,2.418227,-0.951586,0.093919\H,0,2.967922,-1.516694,-0.

 Normal termination of Gaussian 16 at Wed Apr  9 00:34:25 2025.
