 Gaussian 16, Revision C.01,

 ----------------------------------------------------------------------
 #t hf aug-cc-pvdz symm=none int=(grid=ultrafine) guess=(read,tcheck) s
 table=(opt,rrhf)
 ----------------------------------------------------------------------
 -----
 title
 -----
 Symbolic Z-matrix:
 Charge =  0 Multiplicity = 1

 SCF Done:  E(RHF) =  -256.256446019     A.U. after   14 cycles
 Normal termination of Gaussian 16 at Wed Apr  9 00:30:20 2025.
 Gaussian 16:  ES64L-G16RevC.01  3-Jul-2019

 ----------------------------------------------------------------------
 #t hf aug-cc-pvdz iop(5/13=1,5/36=2,99/5=2) pseudo=read geom=check gue
 ss=(read,tcheck) scf=(maxcycle=1)
 ----------------------------------------------------------------------
 -----
 title
 -----
 Structure from the checkpoint file:  "BDE49_nonexpt_339_mol1.chk"
 Charge =  0 Multiplicity = 1

                         Standard orientation:
 ---------------------------------------------------------------------
 Center     Atomic      Atomic             Coordinates (Angstroms)
 Number     Number       Type             X           Y           Z
 ---------------------------------------------------------------------
      1          6           0       -2.742053   -0.152472   -0.000012
      2          6           0       -1.330032    0.438062    0.000006
      3          1           0       -2.914096   -0.775477   -0.883254
      4          1           0       -3.497702    0.636904   -0.000047
      5          1           0       -2.914135   -0.775435    0.883252
      6          6           0       -0.242113   -0.638821    0.000058
      7          1           0       -1.192949    1.083250    0.872713
      8          1           0       -1.192910    1.083207   -0.872726
      9          6           0        1.160746   -0.123026    0.000101
     10          1           0       -0.334199   -1.304974   -0.869473
     11          1           0       -0.334235   -1.304926    0.869620
     12          8           0        1.469920    1.072219   -0.000109
     13          5           0        2.630625   -0.590298   -0.000012
     14          1           0        3.194231   -0.705397   -1.040339
     15          1           0        3.194221   -0.705874    1.040263
 ---------------------------------------------------------------------

 SCF Done:  E(RHF) =  -257.477190009     A.U. after    2 cycles

 The electronic state is 1-A.
 Alpha  occ. eigenvalues --  -21.06817 -11.48218 -11.42314 -11.39678 -11.36238
 Alpha  occ. eigenvalues --   -7.63308  -1.73879  -1.23077  -1.05579  -0.93817
 Alpha  occ. eigenvalues --   -0.86220  -0.72607  -0.65662  -0.58973  -0.57850
 Alpha  occ. eigenvalues --   -0.57102  -0.51981  -0.49836  -0.47431  -0.47385
 Alpha  occ. eigenvalues --   -0.43979  -0.39634  -0.29393
 Alpha virt. eigenvalues --    0.03233   0.03849   0.04066   0.04796   0.05738
 Alpha virt. eigenvalues --    0.05854   0.06250   0.06659   0.08550   0.09311
 Alpha virt. eigenvalues --    0.09468   0.10383   0.11422   0.13218   0.13669

 Mulliken charges:
               1
     1  C   -3.916251
     2  C   -2.724619
     3  H    1.285992
     4  H    1.065802
     5  H    1.285972
     6  C   -3.482032
     7  H    1.505888
     8  H    1.505951
     9  C    2.453255
    10  H    1.593868
    11  H    1.593963
    12  O   -2.612743
    13  B    6.475194
    14  H   -3.015115
    15  H   -3.015127
 Sum of Mulliken charges =   0.00000

 Dipole moment (field-independent basis, Debye):
    X=             -1.9362    Y=             -0.1291    Z=             -0.0001  Tot=              1.9405

 Test job not archived.
 1\1\GINC-SE132\SP\RHF\Aug-CC-pVDZ\C4H9B1O1\OHZDE\09-Apr-2025\0\\#t hf
 aug-cc-pvdz iop(5/13=1,5/36=2,99/5=2) pseudo=read geom=check guess=(re
 ad,tcheck) scf=(maxcycle=1)\\title\\0,1\C,0,2.742053,-0.152472,0.00001
 2\C,0,1.330032,0.438062,-0.000006\H,0,2.914096,-0.775477,0.883254\H,0,
 3.497702,0.636904,0.000047\H,0,2.914135,-0.775435,-0.883252\C,0,0.2421
 13,-0.638821,-0.000058\H,0,1.192949,1.08325,-0.872713\H,0,1.19291,1.08
 3207,0.872726\C,0,-1.160746,-0.123026,-0.000101\H,0,0.334199,-1.304974
 ,0.869473\H,0,0.334235,-1.304926,-0.86962\O,0,-1.46992,1.072219,0.0001

 Normal termination of Gaussian 16 at Wed Apr  9 00:30:24 2025.
