 Gaussian 16, Revision C.01,

 ----------------------------------------------------------------------
 #t hf aug-cc-pvdz symm=none int=(grid=ultrafine) guess=(read,tcheck) s
 table=(opt,rrhf)
 ----------------------------------------------------------------------
 -----
 title
 -----
 Symbolic Z-matrix:
 Charge =  0 Multiplicity = 1

 SCF Done:  E(RHF) =  -230.987456819     A.U. after   13 cycles
 Normal termination of Gaussian 16 at Tue Apr  8 22:41:50 2025.
 Gaussian 16:  ES64L-G16RevC.01  3-Jul-2019

 ----------------------------------------------------------------------
 #t hf aug-cc-pvdz iop(5/13=1,5/36=2,99/5=2) pseudo=read geom=check gue
 ss=(read,tcheck) scf=(maxcycle=1)
 ----------------------------------------------------------------------
 -----
 title
 -----
 Structure from the checkpoint file:  "BDE49_expt_1360_mol1.chk"
 Charge =  0 Multiplicity = 1

                         Standard orientation:
 ---------------------------------------------------------------------
 Center     Atomic      Atomic             Coordinates (Angstroms)
 Number     Number       Type             X           Y           Z
 ---------------------------------------------------------------------
      1          6           0        1.356133   -0.555369   -0.000001
      2          8           0        0.010784   -0.712080   -0.000001
      3          6           0       -0.792544    0.469924    0.000001
      4          6           0       -2.247334    0.041708   -0.000000
      5          6           0        2.062221    0.576640    0.000001
      6          1           0        1.837024   -1.527804   -0.000002
      7          1           0        1.617458    1.562096    0.000002
      8          1           0        3.141976    0.517164    0.000001
      9          1           0       -0.555295    1.070832   -0.886888
     10          1           0       -0.555295    1.070830    0.886891
     11          1           0       -2.471992   -0.556613   -0.885569
     12          1           0       -2.899011    0.919332    0.000001
     13          1           0       -2.471992   -0.556615    0.885568
 ---------------------------------------------------------------------

 SCF Done:  E(RHF) =  -232.084218189     A.U. after    2 cycles

 The electronic state is 1-A.
 Alpha  occ. eigenvalues --  -21.06958 -11.44420 -11.43716 -11.36931 -11.36632
 Alpha  occ. eigenvalues --   -1.78176  -1.14507  -1.08194  -0.90253  -0.78325
 Alpha  occ. eigenvalues --   -0.66945  -0.65187  -0.60825  -0.54773  -0.51946
 Alpha  occ. eigenvalues --   -0.51793  -0.47418  -0.44310  -0.39598  -0.27486
 Alpha virt. eigenvalues --    0.03766   0.05163   0.05718   0.05977   0.06363
 Alpha virt. eigenvalues --    0.06463   0.06808   0.07634   0.11603   0.12429
 Alpha virt. eigenvalues --    0.12851   0.14248   0.14529   0.15218   0.15365

 Mulliken charges:
               1
     1  C    1.115922
     2  O   -3.570294
     3  C   -2.070030
     4  C   -3.304672
     5  C   -3.403372
     6  H    1.746662
     7  H    1.429963
     8  H    1.258985
     9  H    1.611361
    10  H    1.611362
    11  H    1.229484
    12  H    1.115144
    13  H    1.229484
 Sum of Mulliken charges =  -0.00000

 Dipole moment (field-independent basis, Debye):
    X=             -0.9249    Y=             -0.0131    Z=              0.0000  Tot=              0.9250

 Test job not archived.
 1\1\GINC-SE059\SP\RHF\Aug-CC-pVDZ\C4H8O1\OHZDE\08-Apr-2025\0\\#t hf au
 g-cc-pvdz iop(5/13=1,5/36=2,99/5=2) pseudo=read geom=check guess=(read
 ,tcheck) scf=(maxcycle=1)\\title\\0,1\C,0,1.356133,-0.555369,-0.000001
 \O,0,0.010784,-0.71208,-0.000001\C,0,-0.792544,0.469924,0.000001\C,0,-
 2.247334,0.041708,0.\C,0,2.062221,0.57664,0.000001\H,0,1.837024,-1.527
 804,-0.000002\H,0,1.617458,1.562096,0.000002\H,0,3.141976,0.517164,0.0
 00001\H,0,-0.555295,1.070832,-0.886888\H,0,-0.555295,1.07083,0.886891\
 H,0,-2.471992,-0.556613,-0.885569\H,0,-2.899011,0.919332,0.000001\H,0,

 Normal termination of Gaussian 16 at Tue Apr  8 22:41:53 2025.
