 Gaussian 16, Revision C.01,

 ----------------------------------------------------------------------
 #t hf aug-cc-pvdz symm=none int=(grid=ultrafine) guess=(read,tcheck) s
 table=(opt,rrhf)
 ----------------------------------------------------------------------
 -----
 title
 -----
 Symbolic Z-matrix:
 Charge =  0 Multiplicity = 1

 SCF Done:  E(RHF) =  -943.532326205     A.U. after   16 cycles
 Normal termination of Gaussian 16 at Wed Apr  9 00:21:53 2025.
 Gaussian 16:  ES64L-G16RevC.01  3-Jul-2019

 ----------------------------------------------------------------------
 #t hf aug-cc-pvdz iop(5/13=1,5/36=2,99/5=2) pseudo=read geom=check gue
 ss=(read,tcheck) scf=(maxcycle=1)
 ----------------------------------------------------------------------
 -----
 title
 -----
 Structure from the checkpoint file:  "BDE49_nonexpt_2633_mol1.chk"
 Charge =  0 Multiplicity = 1

                         Standard orientation:
 ---------------------------------------------------------------------
 Center     Atomic      Atomic             Coordinates (Angstroms)
 Number     Number       Type             X           Y           Z
 ---------------------------------------------------------------------
      1          9           0        2.516334   -0.326947   -0.400637
      2         16           0        1.200028   -1.052873    0.321154
      3          6           0       -0.034062   -0.005840   -0.477148
      4          7           0       -1.353745   -0.699315   -0.252193
      5          8           0       -1.320818   -1.600375    0.577209
      6          8           0       -2.309205   -0.309507   -0.878845
      7          7           0       -0.135279    1.398201    0.153666
      8          1           0        0.148005    0.139419   -1.538251
      9          8           0       -0.849630    1.520666    1.125430
     10          8           0        0.558664    2.238205   -0.379032
 ---------------------------------------------------------------------

 SCF Done:  E(RHF) =  -945.958133331     A.U. after    2 cycles

 The electronic state is 1-A.
 Alpha  occ. eigenvalues --  -75.82800 -29.31701 -21.16343 -21.15478 -21.14750
 Alpha  occ. eigenvalues --  -21.14491 -16.06185 -16.05046 -13.29834 -13.25348
 Alpha  occ. eigenvalues --  -13.15342 -11.56948  -8.16639  -2.07325  -2.03477
 Alpha  occ. eigenvalues --   -1.76032  -1.74609  -1.37086  -1.20376  -1.04396
 Alpha  occ. eigenvalues --   -0.87711  -0.80475  -0.78513  -0.76317  -0.69012
 Alpha  occ. eigenvalues --   -0.67299  -0.66312  -0.64387  -0.55518  -0.47055
 Alpha  occ. eigenvalues --   -0.44995  -0.40877  -0.38965  -0.38009  -0.35887
 Alpha  occ. eigenvalues --   -0.34859  -0.34733  -0.32133  -0.22304
 Alpha virt. eigenvalues --    0.03763   0.04872   0.07817   0.09352   0.09732
 Alpha virt. eigenvalues --    0.10778   0.11937   0.12558   0.13267   0.14037
 Alpha virt. eigenvalues --    0.15524   0.15854   0.16636   0.17700   0.18294

 Mulliken charges:
               1
     1  F   -0.251804
     2  S    1.588875
     3  C   -1.526068
     4  N    4.409628
     5  O   -2.611747
     6  O   -2.877723
     7  N    5.262766
     8  H    1.908444
     9  O   -2.949413
    10  O   -2.952958
 Sum of Mulliken charges =  -0.00000

 Dipole moment (field-independent basis, Debye):
    X=              3.6482    Y=             -1.0256    Z=             -0.8022  Tot=              3.8736

 Test job not archived.
 1\1\GINC-SE419\SP\RHF\Aug-CC-pVDZ\C1H1F1N2O4S1\OHZDE\09-Apr-2025\0\\#t
  hf aug-cc-pvdz iop(5/13=1,5/36=2,99/5=2) pseudo=read geom=check guess
 =(read,tcheck) scf=(maxcycle=1)\\title\\0,1\F,0,2.516334,-0.326948,-0.
 400637\S,0,1.200028,-1.052873,0.321154\C,0,-0.034062,-0.00584,-0.47714
 8\N,0,-1.353745,-0.699315,-0.252193\O,0,-1.320818,-1.600375,0.577209\O
 ,0,-2.309205,-0.309507,-0.878845\N,0,-0.135279,1.398201,0.153666\H,0,0
 .148005,0.139419,-1.538251\O,0,-0.84963,1.520666,1.12543\O,0,0.558664,
 2.238205,-0.379032\\Version=ES64L-G16RevC.01\State=1-A\HF=-945.9581333

 Normal termination of Gaussian 16 at Wed Apr  9 00:21:57 2025.
