 Gaussian 16, Revision C.01,

 ----------------------------------------------------------------------
 #t hf aug-cc-pvdz symm=none int=(grid=ultrafine) guess=(read,tcheck) s
 table=(opt,rrhf)
 ----------------------------------------------------------------------
 -----
 title
 -----
 Symbolic Z-matrix:
 Charge =  0 Multiplicity = 1

 SCF Done:  E(RHF) =  -1187.61444872     A.U. after   15 cycles

 1\1\GINC-SE227\Stability\RHF\Aug-CC-pVDZ\C7H6Cl2\OHZDE\08-Apr-2025\0\\
 #t hf aug-cc-pvdz symm=none int=(grid=ultrafine) guess=(read,tcheck) s
 table=(opt,rrhf)\\title\\0,1\C,0,0.579697,1.666473,0.160505\C,0,-0.672
 816,2.13959,-0.217329\C,0,-1.761357,1.274306,-0.296261\C,0,-1.572282,-
 0.069791,0.008707\C,0,-0.327725,-0.55853,0.386533\C,0,0.760755,0.31448
 8,0.465264\H,0,1.422243,2.346637,0.215901\H,0,-0.808571,3.189044,-0.45
 1081\C,0,2.105588,-0.201053,0.876392\Cl,0,-2.935451,-1.172984,-0.08052
 3\H,0,-2.740317,1.632234,-0.586967\H,0,-0.207651,-1.610514,0.614127\H,

 Normal termination of Gaussian 16 at Tue Apr  8 22:50:36 2025.
 Gaussian 16:  ES64L-G16RevC.01  3-Jul-2019

 ----------------------------------------------------------------------
 #t hf aug-cc-pvdz iop(5/13=1,5/36=2,99/5=2) pseudo=read geom=check gue
 ss=(read,tcheck) scf=(maxcycle=1)
 ----------------------------------------------------------------------
 -----
 title
 -----
 Structure from the checkpoint file:  "BDE49_expt_1689_mol1.chk"
 Charge =  0 Multiplicity = 1

                         Standard orientation:
 ---------------------------------------------------------------------
 Center     Atomic      Atomic             Coordinates (Angstroms)
 Number     Number       Type             X           Y           Z
 ---------------------------------------------------------------------
      1          6           0        0.579697    1.666473    0.160505
      2          6           0       -0.672816    2.139590   -0.217329
      3          6           0       -1.761357    1.274306   -0.296261
      4          6           0       -1.572282   -0.069791    0.008707
      5          6           0       -0.327725   -0.558530    0.386533
      6          6           0        0.760755    0.314488    0.465264
      7          1           0        1.422243    2.346637    0.215901
      8          1           0       -0.808572    3.189044   -0.451081
      9          6           0        2.105588   -0.201053    0.876392
     10         17           0       -2.935451   -1.172985   -0.080523
     11          1           0       -2.740317    1.632233   -0.586967
     12          1           0       -0.207651   -1.610514    0.614127
     13          1           0        2.700992    0.562798    1.371007
     14         17           0        3.107845   -0.734927   -0.565368
     15          1           0        2.031443   -1.078600    1.514281
 ---------------------------------------------------------------------

 SCF Done:  E(RHF) =  -1189.40065632     A.U. after    2 cycles

 The electronic state is 1-A.
 Alpha  occ. eigenvalues --  -99.89999 -99.88111 -11.53782 -11.47531 -11.46554
 Alpha  occ. eigenvalues --  -11.45482 -11.43935 -11.43487 -11.38877 -10.47342
 Alpha  occ. eigenvalues --  -10.45292  -9.67382  -9.66480  -9.66303  -9.65248
 Alpha  occ. eigenvalues --   -9.64545  -9.64473  -1.42159  -1.33415  -1.27559
 Alpha  occ. eigenvalues --   -1.14351  -1.09794  -1.00427  -0.88728  -0.85777
 Alpha  occ. eigenvalues --   -0.73122  -0.67949  -0.67105  -0.62129  -0.60908
 Alpha  occ. eigenvalues --   -0.59701  -0.59343  -0.57424  -0.51400  -0.50168
 Alpha  occ. eigenvalues --   -0.49390  -0.48324  -0.47034  -0.45007  -0.35074
 Alpha  occ. eigenvalues --   -0.34481
 Alpha virt. eigenvalues --    0.02821   0.04537   0.05194   0.05481   0.06423
 Alpha virt. eigenvalues --    0.06590   0.07667   0.08030   0.09110   0.09672
 Alpha virt. eigenvalues --    0.09957   0.11453   0.11915   0.12326   0.12898

 Mulliken charges:
               1
     1  C   -2.619863
     2  C   -0.370746
     3  C   -2.498998
     4  C   -2.001936
     5  C   -0.544155
     6  C    4.331639
     7  H    1.782769
     8  H    1.476808
     9  C   -4.993804
    10  Cl  -0.848863
    11  H    1.711051
    12  H    1.799662
    13  H    1.297999
    14  Cl   0.166167
    15  H    1.312268
 Sum of Mulliken charges =   0.00000

 Dipole moment (field-independent basis, Debye):
    X=              0.0352    Y=              2.3766    Z=              1.6440  Tot=              2.8900

 Test job not archived.
 1\1\GINC-SE227\SP\RHF\Aug-CC-pVDZ\C7H6Cl2\OHZDE\08-Apr-2025\0\\#t hf a
 ug-cc-pvdz iop(5/13=1,5/36=2,99/5=2) pseudo=read geom=check guess=(rea
 d,tcheck) scf=(maxcycle=1)\\title\\0,1\C,0,0.579697,1.666473,0.160505\
 C,0,-0.672816,2.13959,-0.217329\C,0,-1.761357,1.274306,-0.296261\C,0,-
 1.572282,-0.069791,0.008707\C,0,-0.327725,-0.55853,0.386533\C,0,0.7607
 55,0.314488,0.465264\H,0,1.422243,2.346637,0.215901\H,0,-0.808571,3.18
 9044,-0.451081\C,0,2.105588,-0.201053,0.876392\Cl,0,-2.935451,-1.17298
 4,-0.080523\H,0,-2.740317,1.632234,-0.586967\H,0,-0.207651,-1.610514,0

 Normal termination of Gaussian 16 at Tue Apr  8 22:50:44 2025.
