 Gaussian 16, Revision C.01,

 ----------------------------------------------------------------------
 #t hf aug-cc-pvdz symm=none int=(grid=ultrafine) guess=(read,tcheck) s
 table=(opt,rrhf)
 ----------------------------------------------------------------------
 -----
 title
 -----
 Symbolic Z-matrix:
 Charge =  0 Multiplicity = 1

 SCF Done:  E(RHF) =  -572.874731913     A.U. after   14 cycles
 Normal termination of Gaussian 16 at Wed Apr  9 00:00:41 2025.
 Gaussian 16:  ES64L-G16RevC.01  3-Jul-2019

 ----------------------------------------------------------------------
 #t hf aug-cc-pvdz iop(5/13=1,5/36=2,99/5=2) pseudo=read geom=check gue
 ss=(read,tcheck) scf=(maxcycle=1)
 ----------------------------------------------------------------------
 -----
 title
 -----
 Structure from the checkpoint file:  "BDE49_nonexpt_2106_mol1.chk"
 Charge =  0 Multiplicity = 1

                         Standard orientation:
 ---------------------------------------------------------------------
 Center     Atomic      Atomic             Coordinates (Angstroms)
 Number     Number       Type             X           Y           Z
 ---------------------------------------------------------------------
      1         14           0        0.669560    0.095340    0.419923
      2          7           0       -1.155248   -0.093500    0.005566
      3          8           0       -1.566951   -1.145284   -0.477335
      4          8           0       -1.862091    0.883809    0.246519
      5          6           0        1.218123    1.613716   -0.507307
      6          1           0        0.573248    2.458386   -0.257173
      7          1           0        1.177514    1.454764   -1.588065
      8          6           0        1.518030   -1.487389   -0.058832
      9          1           0        1.448984   -1.659477   -1.135462
     10          1           0        1.064166   -2.340591    0.449476
     11          1           0        2.576447   -1.445415    0.217071
     12          1           0        2.246705    1.873482   -0.240033
     13          1           0        0.641256    0.312414    1.879670
 ---------------------------------------------------------------------

 SCF Done:  E(RHF) =  -574.302158143     A.U. after    2 cycles

 The electronic state is 1-A.
 Alpha  occ. eigenvalues --  -76.26018 -21.08775 -21.08489 -15.95101 -11.37606
 Alpha  occ. eigenvalues --  -11.37453  -5.59975  -2.24200  -2.23896  -2.22444
 Alpha  occ. eigenvalues --   -1.96324  -1.67197  -1.10069  -1.04119  -0.97370
 Alpha  occ. eigenvalues --   -0.73033  -0.65231  -0.63254  -0.59964  -0.59210
 Alpha  occ. eigenvalues --   -0.57726  -0.57400  -0.57150  -0.46845  -0.43412
 Alpha  occ. eigenvalues --   -0.31351  -0.30987  -0.30302
 Alpha virt. eigenvalues --    0.02382   0.04570   0.05262   0.05692   0.06634
 Alpha virt. eigenvalues --    0.06682   0.07166   0.08334   0.08752   0.09994
 Alpha virt. eigenvalues --    0.11045   0.13397   0.14001   0.14912   0.15674

 Mulliken charges:
               1
     1  Si   6.261503
     2  N    3.135619
     3  O   -2.110650
     4  O   -2.404228
     5  C   -5.108656
     6  H    1.305245
     7  H    1.250663
     8  C   -5.174327
     9  H    1.334364
    10  H    1.297941
    11  H    1.279766
    12  H    1.274403
    13  H   -2.341642
 Sum of Mulliken charges =  -0.00000

 Dipole moment (field-independent basis, Debye):
    X=              3.3674    Y=              0.1704    Z=             -0.1871  Tot=              3.3769

 Test job not archived.
 1\1\GINC-SE455\SP\RHF\Aug-CC-pVDZ\C2H7N1O2Si1\OHZDE\09-Apr-2025\0\\#t
 hf aug-cc-pvdz iop(5/13=1,5/36=2,99/5=2) pseudo=read geom=check guess=
 (read,tcheck) scf=(maxcycle=1)\\title\\0,1\Si,0,0.66956,0.09534,0.4199
 23\N,0,-1.155248,-0.0935,0.005566\O,0,-1.566951,-1.145284,-0.477335\O,
 0,-1.862091,0.883809,0.246519\C,0,1.218123,1.613716,-0.507307\H,0,0.57
 3248,2.458386,-0.257173\H,0,1.177514,1.454764,-1.588065\C,0,1.51803,-1
 .487389,-0.058832\H,0,1.448984,-1.659477,-1.135462\H,0,1.064166,-2.340
 591,0.449476\H,0,2.576447,-1.445415,0.217071\H,0,2.246705,1.873482,-0.

 Normal termination of Gaussian 16 at Wed Apr  9 00:00:45 2025.
