 Gaussian 16, Revision C.01,

 ----------------------------------------------------------------------
 #t hf aug-cc-pvdz symm=none int=(grid=ultrafine) guess=(read,tcheck) s
 table=(opt,rrhf)
 ----------------------------------------------------------------------
 -----
 title
 -----
 Symbolic Z-matrix:
 Charge =  0 Multiplicity = 1

 SCF Done:  E(RHF) =  -1752.58168343     A.U. after   12 cycles

 1\1\GINC-SE343\Stability\RHF\Aug-CC-pVDZ\C2Cl3F3\OHZDE\08-Apr-2025\0\\
 #t hf aug-cc-pvdz symm=none int=(grid=ultrafine) guess=(read,tcheck) s
 table=(opt,rrhf)\\title\\0,1\C,0,-0.729561,-0.52738,-0.230781\C,0,0.57
 7137,0.14621,0.311548\Cl,0,-2.181669,0.394076,0.235123\F,0,-0.821203,-
 1.761388,0.285439\F,0,-0.66924,-0.628399,-1.563221\Cl,0,0.79777,1.7663
 6,-0.388992\Cl,0,1.977352,-0.892958,-0.0711\F,0,0.471091,0.249775,1.64
 8877\\Version=ES64L-G16RevC.01\HF=-1752.5816834\RMSD=9.568e-09\Dipole=
 0.0498533,0.2003598,-0.0797167\Quadrupole=1.3099477,0.388686,-1.698633

 Normal termination of Gaussian 16 at Tue Apr  8 22:30:27 2025.
 Gaussian 16:  ES64L-G16RevC.01  3-Jul-2019

 ----------------------------------------------------------------------
 #t hf aug-cc-pvdz iop(5/13=1,5/36=2,99/5=2) pseudo=read geom=check gue
 ss=(read,tcheck) scf=(maxcycle=1)
 ----------------------------------------------------------------------
 -----
 title
 -----
 Structure from the checkpoint file:  "BDE49_expt_1005_mol1.chk"
 Charge =  0 Multiplicity = 1

                         Standard orientation:
 ---------------------------------------------------------------------
 Center     Atomic      Atomic             Coordinates (Angstroms)
 Number     Number       Type             X           Y           Z
 ---------------------------------------------------------------------
      1          6           0       -0.729561   -0.527380   -0.230781
      2          6           0        0.577137    0.146210    0.311548
      3         17           0       -2.181669    0.394077    0.235123
      4          9           0       -0.821203   -1.761388    0.285439
      5          9           0       -0.669240   -0.628399   -1.563221
      6         17           0        0.797771    1.766360   -0.388992
      7         17           0        1.977352   -0.892959   -0.071100
      8          9           0        0.471091    0.249775    1.648877
 ---------------------------------------------------------------------

 SCF Done:  E(RHF) =  -1754.66377063     A.U. after    2 cycles

 The electronic state is 1-A.
 Alpha  occ. eigenvalues --  -99.93650 -99.93457 -99.93268 -29.34122 -29.34029
 Alpha  occ. eigenvalues --  -29.33826 -11.63523 -11.58651 -10.51106 -10.50882
 Alpha  occ. eigenvalues --  -10.50771  -9.70988  -9.70748  -9.70597  -9.70102
 Alpha  occ. eigenvalues --   -9.70065  -9.69901  -9.69817  -9.69709  -9.69667
 Alpha  occ. eigenvalues --   -1.52580  -1.41325  -1.33745  -1.25384  -1.12587
 Alpha  occ. eigenvalues --   -0.92120  -0.84420  -0.81460  -0.75609  -0.70583
 Alpha  occ. eigenvalues --   -0.58939  -0.57203  -0.56787  -0.55282  -0.54732
 Alpha  occ. eigenvalues --   -0.52814  -0.48373  -0.45275  -0.42943  -0.39000
 Alpha  occ. eigenvalues --   -0.37603  -0.34481  -0.33383  -0.29597  -0.25753
 Alpha virt. eigenvalues --    0.02106   0.04696   0.07129   0.07668   0.08388
 Alpha virt. eigenvalues --    0.10483   0.11201   0.12374   0.12917   0.13892
 Alpha virt. eigenvalues --    0.14629   0.15389   0.16142   0.17215   0.17558

 Mulliken charges:
               1
     1  C   -0.225693
     2  C   -1.811351
     3  Cl  -0.341384
     4  F    0.777170
     5  F    0.627673
     6  Cl   0.041383
     7  Cl   0.028593
     8  F    0.903609
 Sum of Mulliken charges =   0.00000

 Dipole moment (field-independent basis, Debye):
    X=             -0.3532    Y=             -3.7324    Z=              1.7096  Tot=              4.1205

 Test job not archived.
 1\1\GINC-SE343\SP\RHF\Aug-CC-pVDZ\C2Cl3F3\OHZDE\08-Apr-2025\0\\#t hf a
 ug-cc-pvdz iop(5/13=1,5/36=2,99/5=2) pseudo=read geom=check guess=(rea
 d,tcheck) scf=(maxcycle=1)\\title\\0,1\C,0,-0.729561,-0.52738,-0.23078
 1\C,0,0.577137,0.14621,0.311548\Cl,0,-2.181669,0.394076,0.235123\F,0,-
 0.821203,-1.761388,0.285439\F,0,-0.66924,-0.628399,-1.563221\Cl,0,0.79
 777,1.76636,-0.388992\Cl,0,1.977352,-0.892958,-0.0711\F,0,0.471091,0.2
 49775,1.648877\\Version=ES64L-G16RevC.01\State=1-A\HF=-1754.6637706\RM
 SD=1.276e-01\Dipole=-0.1389566,-1.4684376,0.6726173\Quadrupole=-5.7534

 Normal termination of Gaussian 16 at Tue Apr  8 22:30:31 2025.
