 Gaussian 16, Revision C.01,

 ----------------------------------------------------------------------
 #t hf aug-cc-pvdz symm=none int=(grid=ultrafine) guess=(read,tcheck) s
 table=opt
 ----------------------------------------------------------------------
 -----
 title
 -----
 Symbolic Z-matrix:
 Charge =  0 Multiplicity = 2

 SCF Done:  E(UHF) =  -827.636777275     A.U. after   16 cycles
 Normal termination of Gaussian 16 at Tue Apr  8 23:46:21 2025.
 Gaussian 16:  ES64L-G16RevC.01  3-Jul-2019

 ----------------------------------------------------------------------
 #t hf aug-cc-pvdz iop(5/13=1,5/36=2,99/5=2) pseudo=read geom=check gue
 ss=(read,tcheck) scf=(maxcycle=1)
 ----------------------------------------------------------------------
 -----
 title
 -----
 Structure from the checkpoint file:  "BDE49_nonexpt_1759_mol2.chk"
 Charge =  0 Multiplicity = 2

                         Standard orientation:
 ---------------------------------------------------------------------
 Center     Atomic      Atomic             Coordinates (Angstroms)
 Number     Number       Type             X           Y           Z
 ---------------------------------------------------------------------
      1         14           0        2.316623    0.019103   -0.000000
      2          6           0        0.508054    0.606250   -0.000001
      3          6           0       -0.483284   -0.546260    0.000001
      4          1           0       -0.396195   -1.169130    0.888292
      5          1           0       -0.396195   -1.169134   -0.888287
      6         17           0       -2.220243    0.046503   -0.000000
      7          1           0        0.348719    1.237240   -0.879029
      8          1           0        0.348719    1.237244    0.879024
      9          1           0        2.628868   -0.777083   -1.215291
     10          1           0        2.628868   -0.777077    1.215295
 ---------------------------------------------------------------------

 SCF Done:  E(UHF) =  -828.424237886     A.U. after    2 cycles

 The electronic state is 2-A.
 Alpha  occ. eigenvalues --  -99.87309 -76.23645 -11.45734 -11.38175 -10.44520
 Alpha  occ. eigenvalues --   -9.64415  -9.63697  -9.63646  -5.57040  -2.20575
 Alpha  occ. eigenvalues --   -2.19056  -2.18397  -1.32693  -1.13065  -0.91202
 Alpha  occ. eigenvalues --   -0.75411  -0.67349  -0.60067  -0.57958  -0.55080
 Alpha  occ. eigenvalues --   -0.48032  -0.47733  -0.47111  -0.42536  -0.28311
 Alpha virt. eigenvalues --    0.03049   0.04674   0.05643   0.05674   0.06631
 Alpha virt. eigenvalues --    0.07275   0.08029   0.08268   0.08577   0.10655
 Alpha virt. eigenvalues --    0.11214   0.12727   0.14091   0.15346   0.16568

  Beta  occ. eigenvalues --  -99.87286 -76.23085 -11.45649 -11.38154 -10.44494
  Beta  occ. eigenvalues --   -9.64314  -9.63685  -9.63633  -5.56161  -2.19836
  Beta  occ. eigenvalues --   -2.18395  -2.14884  -1.32482  -1.12662  -0.90804
  Beta  occ. eigenvalues --   -0.71395  -0.67258  -0.59469  -0.57555  -0.54957
  Beta  occ. eigenvalues --   -0.47561  -0.47422  -0.47048  -0.41719
  Beta virt. eigenvalues --    0.02283   0.03261   0.04948   0.05812   0.06451
  Beta virt. eigenvalues --    0.06735   0.07457   0.08285   0.08760   0.09960
  Beta virt. eigenvalues --    0.10889   0.11869   0.13204   0.14917   0.15752

 Mulliken charges and spin densities:
               1          2
     1  Si   3.880310   1.064030
     2  C   -3.370914   0.008572
     3  C   -3.550009  -0.023100
     4  H    1.659069  -0.014124
     5  H    1.659068  -0.014124
     6  Cl  -0.030958   0.024180
     7  H    1.416255  -0.011684
     8  H    1.416254  -0.011684
     9  H   -1.539537  -0.011033
    10  H   -1.539537  -0.011033
 Sum of Mulliken charges =   0.00000   1.00000

 Dipole moment (field-independent basis, Debye):
    X=              2.2058    Y=              0.0763    Z=             -0.0000  Tot=              2.2071
                          Isotropic Fermi Contact Couplings
        Atom                 a.u.       MegaHertz       Gauss      10(-4) cm-1
     1  Si(29)             0.48159    -428.00624    -152.72327    -142.76751
     2  C(13)              0.01417      15.93290       5.68525       5.31464
     3  C(13)              0.03651      41.04346      14.64533      13.69063
     4  H(1)              -0.00018      -0.81106      -0.28941      -0.27054
     5  H(1)              -0.00018      -0.81106      -0.28941      -0.27054
     6  Cl(35)             0.01351       5.92368       2.11372       1.97593
     7  H(1)               0.00057       2.55298       0.91097       0.85158
     8  H(1)               0.00057       2.55296       0.91096       0.85157

 Normal termination of Gaussian 16 at Tue Apr  8 23:46:24 2025.
