 Gaussian 16, Revision C.01,

 ----------------------------------------------------------------------
 #t hf aug-cc-pvdz symm=none int=(grid=ultrafine) guess=(read,tcheck) s
 table=(opt,rrhf)
 ----------------------------------------------------------------------
 -----
 title
 -----
 Symbolic Z-matrix:
 Charge =  0 Multiplicity = 1

 SCF Done:  E(RHF) =  -565.609600603     A.U. after   12 cycles
 Normal termination of Gaussian 16 at Wed Apr  9 00:31:13 2025.
 Gaussian 16:  ES64L-G16RevC.01  3-Jul-2019

 ----------------------------------------------------------------------
 #t hf aug-cc-pvdz iop(5/13=1,5/36=2,99/5=2) pseudo=read geom=check gue
 ss=(read,tcheck) scf=(maxcycle=1)
 ----------------------------------------------------------------------
 -----
 title
 -----
 Structure from the checkpoint file:  "BDE49_nonexpt_361_mol1.chk"
 Charge =  0 Multiplicity = 1

                         Standard orientation:
 ---------------------------------------------------------------------
 Center     Atomic      Atomic             Coordinates (Angstroms)
 Number     Number       Type             X           Y           Z
 ---------------------------------------------------------------------
      1          9           0       -1.207729   -1.130974    0.003979
      2          9           0       -1.207725    1.130976    0.003978
      3          5           0       -0.516657   -0.000000    0.016123
      4         15           0        1.405615   -0.000000   -0.116993
      5          1           0        1.619079   -1.054585    0.801331
      6          1           0        1.619077    1.054575    0.801342
 ---------------------------------------------------------------------

 SCF Done:  E(RHF) =  -566.583301688     A.U. after    2 cycles

 The electronic state is 1-A.
 Alpha  occ. eigenvalues -- -105.18939 -29.26775 -29.26681  -7.72017  -2.76191
 Alpha  occ. eigenvalues --   -1.50763  -1.45909  -1.43865  -1.08834  -0.75915
 Alpha  occ. eigenvalues --   -0.75751  -0.50948  -0.45837  -0.45038  -0.41555
 Alpha  occ. eigenvalues --   -0.34895  -0.34234  -0.26863  -0.14730  -0.03952
 Alpha virt. eigenvalues --    0.04264   0.05423   0.05974   0.06237   0.10048
 Alpha virt. eigenvalues --    0.10133   0.11268   0.12865   0.15957   0.17599
 Alpha virt. eigenvalues --    0.18006   0.18124   0.20743   0.23612   0.24342

 Mulliken charges:
               1
     1  F    0.197393
     2  F    0.197390
     3  B    0.102087
     4  P    0.861587
     5  H   -0.679228
     6  H   -0.679230
 Sum of Mulliken charges =  -0.00000

 Dipole moment (field-independent basis, Debye):
    X=             -0.1259    Y=              0.0000    Z=             -3.6297  Tot=              3.6319

 Test job not archived.
 1\1\GINC-SE058\SP\RHF\Aug-CC-pVDZ\B1F2H2P1\OHZDE\09-Apr-2025\0\\#t hf
 aug-cc-pvdz iop(5/13=1,5/36=2,99/5=2) pseudo=read geom=check guess=(re
 ad,tcheck) scf=(maxcycle=1)\\title\\0,1\F,0,-1.207729,-1.130974,0.0039
 79\F,0,-1.207725,1.130976,0.003978\B,0,-0.516657,0.,0.016123\P,0,1.405
 615,0.,-0.116993\H,0,1.619079,-1.054585,0.801331\H,0,1.619077,1.054575
 ,0.801342\\Version=ES64L-G16RevC.01\State=1-A\HF=-566.5833017\RMSD=3.7
 16e-01\Dipole=-0.0495371,0.0000064,-1.4280523\Quadrupole=1.7935926,4.2
 190188,-6.0126114,0.0000134,-1.0150022,0.0000287\PG=C01 [X(B1F2H2P1)]\

 Normal termination of Gaussian 16 at Wed Apr  9 00:31:15 2025.
