 Gaussian 16, Revision C.01,

 ----------------------------------------------------------------------
 #t hf aug-cc-pvdz symm=none int=(grid=ultrafine) guess=(read,tcheck) s
 table=(opt,rrhf)
 ----------------------------------------------------------------------
 -----
 title
 -----
 Symbolic Z-matrix:
 Charge =  0 Multiplicity = 1

 SCF Done:  E(RHF) =  -954.271018054     A.U. after   15 cycles
 Normal termination of Gaussian 16 at Tue Apr  8 23:17:54 2025.
 Gaussian 16:  ES64L-G16RevC.01  3-Jul-2019

 ----------------------------------------------------------------------
 #t hf aug-cc-pvdz iop(5/13=1,5/36=2,99/5=2) pseudo=read geom=check gue
 ss=(read,tcheck) scf=(maxcycle=1)
 ----------------------------------------------------------------------
 -----
 title
 -----
 Structure from the checkpoint file:  "BDE49_nonexpt_1029_mol1.chk"
 Charge =  0 Multiplicity = 1

                         Standard orientation:
 ---------------------------------------------------------------------
 Center     Atomic      Atomic             Coordinates (Angstroms)
 Number     Number       Type             X           Y           Z
 ---------------------------------------------------------------------
      1         17           0        1.983648   -0.000000   -0.301410
      2          8           0        0.514507   -0.000000    1.019104
      3         15           0       -0.990742    0.000000    0.547606
      4          6           0       -1.258492   -1.436608   -0.551965
      5          6           0       -1.258492    1.436608   -0.551965
      6          1           0       -1.073192   -2.356366    0.004075
      7          1           0       -0.573534   -1.384586   -1.403442
      8          1           0       -2.290794   -1.438830   -0.910317
      9          1           0       -1.073197    2.356366    0.004076
     10          1           0       -2.290792    1.438827   -0.910322
     11          1           0       -0.573528    1.384589   -1.403438
 ---------------------------------------------------------------------

 SCF Done:  E(RHF) =  -955.453210531     A.U. after    2 cycles

 The electronic state is 1-A.
 Alpha  occ. eigenvalues -- -105.21229 -99.91647 -21.14369 -11.38824 -11.38679
 Alpha  occ. eigenvalues --  -10.48083  -9.67846  -9.67404  -9.67351  -2.81628
 Alpha  occ. eigenvalues --   -1.84870  -1.53257  -1.49688  -1.37610  -1.21651
 Alpha  occ. eigenvalues --   -1.04118  -0.98611  -0.66568  -0.59601  -0.59457
 Alpha  occ. eigenvalues --   -0.58512  -0.57155  -0.54058  -0.53823  -0.49645
 Alpha  occ. eigenvalues --   -0.40716  -0.27577  -0.22001  -0.06679
 Alpha virt. eigenvalues --    0.02065   0.05495   0.05802   0.06388   0.06957
 Alpha virt. eigenvalues --    0.06973   0.07727   0.09977   0.10904   0.11362
 Alpha virt. eigenvalues --    0.12145   0.13344   0.16014   0.16398   0.16479

 Mulliken charges:
               1
     1  Cl  -0.618284
     2  O   -2.322875
     3  P    7.984760
     4  C   -6.033290
     5  C   -6.033288
     6  H    1.143197
     7  H    1.138303
     8  H    1.229989
     9  H    1.143197
    10  H    1.229989
    11  H    1.138302
 Sum of Mulliken charges =   0.00000

 Dipole moment (field-independent basis, Debye):
    X=            -14.5676    Y=              0.0000    Z=              4.7142  Tot=             15.3114

 Test job not archived.
 1\1\GINC-SE328\SP\RHF\Aug-CC-pVDZ\C2H6Cl1O1P1\OHZDE\08-Apr-2025\0\\#t
 hf aug-cc-pvdz iop(5/13=1,5/36=2,99/5=2) pseudo=read geom=check guess=
 (read,tcheck) scf=(maxcycle=1)\\title\\0,1\Cl,0,1.983648,0.,-0.30141\O
 ,0,0.514507,0.,1.019104\P,0,-0.990742,0.,0.547606\C,0,-1.258492,-1.436
 608,-0.551965\C,0,-1.258492,1.436608,-0.551965\H,0,-1.073192,-2.356366
 ,0.004075\H,0,-0.573534,-1.384586,-1.403442\H,0,-2.290794,-1.43883,-0.
 910317\H,0,-1.073197,2.356366,0.004076\H,0,-2.290792,1.438827,-0.91032
 2\H,0,-0.573528,1.384589,-1.403438\\Version=ES64L-G16RevC.01\State=1-A

 Normal termination of Gaussian 16 at Tue Apr  8 23:17:58 2025.
