 Gaussian 16, Revision C.01,

 ----------------------------------------------------------------------
 #t hf aug-cc-pvdz symm=none int=(grid=ultrafine) guess=(read,tcheck) s
 table=(opt,rrhf)
 ----------------------------------------------------------------------
 -----
 title
 -----
 Symbolic Z-matrix:
 Charge =  0 Multiplicity = 1

 SCF Done:  E(RHF) =  -1052.49477819     A.U. after   14 cycles
 Normal termination of Gaussian 16 at Tue Apr  8 23:40:34 2025.
 Gaussian 16:  ES64L-G16RevC.01  3-Jul-2019

 ----------------------------------------------------------------------
 #t hf aug-cc-pvdz iop(5/13=1,5/36=2,99/5=2) pseudo=read geom=check gue
 ss=(read,tcheck) scf=(maxcycle=1)
 ----------------------------------------------------------------------
 -----
 title
 -----
 Structure from the checkpoint file:  "BDE49_nonexpt_1615_mol1.chk"
 Charge =  0 Multiplicity = 1

                         Standard orientation:
 ---------------------------------------------------------------------
 Center     Atomic      Atomic             Coordinates (Angstroms)
 Number     Number       Type             X           Y           Z
 ---------------------------------------------------------------------
      1          8           0       -0.249386    0.631965   -0.642666
      2         15           0       -1.655805    0.085591    0.033947
      3          8           0       -2.540707    1.241416    0.068058
      4          8           0       -1.228740   -0.656218    1.360616
      5          8           0        0.744879   -0.441348   -0.730106
      6          6           0        1.851561   -0.005635   -0.040003
      7          9           0        2.729301   -0.996711   -0.128199
      8          9           0        1.580215    0.229240    1.258994
      9          9           0        2.372553    1.105717   -0.549433
     10          1           0       -0.732467   -0.098732    1.972919
     11          8           0       -2.099030   -1.181224   -0.799744
     12          1           0       -2.694581   -0.952249   -1.523625
 ---------------------------------------------------------------------

 SCF Done:  E(RHF) =  -1055.37897657     A.U. after    2 cycles

 The electronic state is 1-A.
 Alpha  occ. eigenvalues -- -105.36058 -29.34921 -29.34573 -29.34303 -21.18081
 Alpha  occ. eigenvalues --  -21.16701 -21.15116 -21.15040 -21.05523 -11.64107
 Alpha  occ. eigenvalues --   -2.99321  -2.07545  -2.05416  -1.95553  -1.83967
 Alpha  occ. eigenvalues --   -1.71436  -1.44561  -1.43453  -1.30160  -1.26381
 Alpha  occ. eigenvalues --   -0.95934  -0.95235  -0.76500  -0.73115  -0.61789
 Alpha  occ. eigenvalues --   -0.61051  -0.57714  -0.51832  -0.50554  -0.48254
 Alpha  occ. eigenvalues --   -0.48079  -0.46440  -0.45093  -0.42813  -0.39442
 Alpha  occ. eigenvalues --   -0.38388  -0.37431  -0.35491  -0.34355  -0.30713
 Alpha  occ. eigenvalues --   -0.29641  -0.28581  -0.27558  -0.24639  -0.18710
 Alpha virt. eigenvalues --    0.03977   0.05787   0.10054   0.10126   0.10391
 Alpha virt. eigenvalues --    0.11133   0.11457   0.12807   0.13532   0.16870
 Alpha virt. eigenvalues --    0.17153   0.18575   0.20066   0.20665   0.21099

 Mulliken charges:
               1
     1  O   -1.910392
     2  P    8.433338
     3  O   -2.760048
     4  O   -2.797568
     5  O   -1.923720
     6  C    0.295252
     7  F    0.590184
     8  F    0.521164
     9  F    0.542449
    10  H    0.860637
    11  O   -2.743226
    12  H    0.891929
 Sum of Mulliken charges =  -0.00000

 Dipole moment (field-independent basis, Debye):
    X=              3.1175    Y=             -1.8386    Z=              0.9791  Tot=              3.7494

 Test job not archived.
 1\1\GINC-SE423\SP\RHF\Aug-CC-pVDZ\C1H2F3O5P1\OHZDE\08-Apr-2025\0\\#t h
 f aug-cc-pvdz iop(5/13=1,5/36=2,99/5=2) pseudo=read geom=check guess=(
 read,tcheck) scf=(maxcycle=1)\\title\\0,1\O,0,0.249386,-0.631965,-0.64
 2666\P,0,1.655805,-0.085591,0.033947\O,0,2.540707,-1.241416,0.068058\O
 ,0,1.22874,0.656218,1.360616\O,0,-0.744879,0.441348,-0.730106\C,0,-1.8
 51561,0.005635,-0.040003\F,0,-2.729301,0.996711,-0.128199\F,0,-1.58021
 5,-0.22924,1.258994\F,0,-2.372553,-1.105717,-0.549433\H,0,0.732467,0.0
 98732,1.972919\O,0,2.09903,1.181224,-0.799744\H,0,2.694581,0.952249,-1

 Normal termination of Gaussian 16 at Tue Apr  8 23:40:41 2025.
