 Gaussian 16, Revision C.01,

 ----------------------------------------------------------------------
 #t hf aug-cc-pvdz symm=none int=(grid=ultrafine) guess=(read,tcheck) s
 table=(opt,rrhf)
 ----------------------------------------------------------------------
 -----
 title
 -----
 Symbolic Z-matrix:
 Charge =  0 Multiplicity = 1

 SCF Done:  E(RHF) =  -1103.46611334     A.U. after   15 cycles
 Normal termination of Gaussian 16 at Wed Apr  9 00:19:02 2025.
 Gaussian 16:  ES64L-G16RevC.01  3-Jul-2019

 ----------------------------------------------------------------------
 #t hf aug-cc-pvdz iop(5/13=1,5/36=2,99/5=2) pseudo=read geom=check gue
 ss=(read,tcheck) scf=(maxcycle=1)
 ----------------------------------------------------------------------
 -----
 title
 -----
 Structure from the checkpoint file:  "BDE49_nonexpt_2566_mol1.chk"
 Charge =  0 Multiplicity = 1

                         Standard orientation:
 ---------------------------------------------------------------------
 Center     Atomic      Atomic             Coordinates (Angstroms)
 Number     Number       Type             X           Y           Z
 ---------------------------------------------------------------------
      1         17           0        2.586230   -0.252890    0.000420
      2         16           0        0.890760    0.904228    0.017032
      3          6           0       -0.386032   -0.455834   -0.024896
      4          8           0       -0.065139   -1.614150   -0.006139
      5          7           0       -1.655351    0.031916   -0.075540
      6          6           0       -2.766907   -0.909775    0.038652
      7          1           0       -2.378580   -1.920364   -0.055844
      8          1           0       -3.493830   -0.722282   -0.756417
      9          1           0       -3.266878   -0.805996    1.008109
     10          6           0       -1.975101    1.448847    0.001399
     11          1           0       -1.188471    2.049355   -0.460603
     12          1           0       -2.121745    1.785195    1.034072
     13          1           0       -2.891756    1.635924   -0.562015
 ---------------------------------------------------------------------

 SCF Done:  E(RHF) =  -1105.06669834     A.U. after    2 cycles

 The electronic state is 1-A.
 Alpha  occ. eigenvalues --  -99.90798 -75.75139 -21.05089 -15.77319 -13.16293
 Alpha  occ. eigenvalues --  -13.13051 -13.06670 -11.52381 -11.42802 -11.41105
 Alpha  occ. eigenvalues --  -10.47969  -9.67740  -9.67066  -9.66907  -8.08971
 Alpha  occ. eigenvalues --   -1.73580  -1.45845  -1.34171  -1.11818  -1.06695
 Alpha  occ. eigenvalues --   -0.99689  -0.76078  -0.68310  -0.67744  -0.64409
 Alpha  occ. eigenvalues --   -0.58121  -0.57345  -0.55980  -0.55375  -0.54526
 Alpha  occ. eigenvalues --   -0.52506  -0.51805  -0.45435  -0.31907  -0.28196
 Alpha  occ. eigenvalues --   -0.27257
 Alpha virt. eigenvalues --    0.02183   0.04317   0.05122   0.05545   0.06330
 Alpha virt. eigenvalues --    0.06685   0.07660   0.08360   0.08898   0.12210
 Alpha virt. eigenvalues --    0.12511   0.13032   0.13843   0.14231   0.14686

 Mulliken charges:
               1
     1  Cl  -0.466926
     2  S    0.877259
     3  C    3.527730
     4  O   -2.673267
     5  N   -2.762952
     6  C   -3.309553
     7  H    1.434974
     8  H    1.358564
     9  H    1.414623
    10  C   -3.714204
    11  H    1.527657
    12  H    1.384269
    13  H    1.401825
 Sum of Mulliken charges =  -0.00000

 Dipole moment (field-independent basis, Debye):
    X=             -4.4193    Y=              3.3135    Z=              0.0975  Tot=              5.5244

 Test job not archived.
 1\1\GINC-SE127\SP\RHF\Aug-CC-pVDZ\C3H6Cl1N1O1S1\OHZDE\09-Apr-2025\0\\#
 t hf aug-cc-pvdz iop(5/13=1,5/36=2,99/5=2) pseudo=read geom=check gues
 s=(read,tcheck) scf=(maxcycle=1)\\title\\0,1\Cl,0,2.58623,-0.25289,0.0
 0042\S,0,0.89076,0.904228,0.017032\C,0,-0.386032,-0.455834,-0.024896\O
 ,0,-0.065139,-1.61415,-0.006139\N,0,-1.655351,0.031916,-0.07554\C,0,-2
 .766907,-0.909775,0.038652\H,0,-2.37858,-1.920364,-0.055844\H,0,-3.493
 83,-0.722282,-0.756417\H,0,-3.266878,-0.805996,1.008109\C,0,-1.975101,
 1.448847,0.001399\H,0,-1.188471,2.049355,-0.460603\H,0,-2.121745,1.785

 Normal termination of Gaussian 16 at Wed Apr  9 00:19:07 2025.
