 Gaussian 16, Revision C.01,

 ----------------------------------------------------------------------
 #t hf aug-cc-pvdz symm=none int=(grid=ultrafine) guess=(read,tcheck) s
 table=(opt,rrhf)
 ----------------------------------------------------------------------
 -----
 title
 -----
 Symbolic Z-matrix:
 Charge =  0 Multiplicity = 1

 SCF Done:  E(RHF) =  -447.405851162     A.U. after   11 cycles
 Normal termination of Gaussian 16 at Tue Apr  8 23:57:43 2025.
 Gaussian 16:  ES64L-G16RevC.01  3-Jul-2019

 ----------------------------------------------------------------------
 #t hf aug-cc-pvdz iop(5/13=1,5/36=2,99/5=2) pseudo=read geom=check gue
 ss=(read,tcheck) scf=(maxcycle=1)
 ----------------------------------------------------------------------
 -----
 title
 -----
 Structure from the checkpoint file:  "BDE49_nonexpt_2033_mol1.chk"
 Charge =  0 Multiplicity = 1

                         Standard orientation:
 ---------------------------------------------------------------------
 Center     Atomic      Atomic             Coordinates (Angstroms)
 Number     Number       Type             X           Y           Z
 ---------------------------------------------------------------------
      1         14           0       -2.376593   -0.215372   -0.000004
      2          6           0       -0.716550    0.680871   -0.000030
      3          6           0        0.513064   -0.245502    0.000010
      4          1           0       -0.686389    1.341434   -0.875533
      5          6           0        1.848586    0.510406   -0.000007
      6          1           0        0.477270   -0.905227   -0.875896
      7          1           0        0.477259   -0.905167    0.875960
      8          6           0        3.067421   -0.416561    0.000031
      9          1           0        1.887250    1.168426    0.876415
     10          1           0        1.887260    1.168368   -0.876472
     11          1           0        3.072842   -1.063266    0.882992
     12          1           0        4.001153    0.152254    0.000018
     13          1           0        3.072853   -1.063325   -0.882886
     14          1           0       -0.686397    1.341497    0.875426
     15          1           0       -2.505237   -1.077135   -1.201500
     16          1           0       -3.495408    0.759034   -0.000090
     17          1           0       -2.505285   -1.076976    1.201601
 ---------------------------------------------------------------------

 SCF Done:  E(RHF) =  -448.410987179     A.U. after    2 cycles

 The electronic state is 1-A.
 Alpha  occ. eigenvalues --  -76.20448 -11.41899 -11.39334 -11.36302 -11.34075
 Alpha  occ. eigenvalues --   -5.53971  -2.18022  -2.16362  -2.16125  -1.23658
 Alpha  occ. eigenvalues --   -1.07177  -0.91932  -0.82941  -0.74221  -0.64975
 Alpha  occ. eigenvalues --   -0.58418  -0.57685  -0.53059  -0.50009  -0.49505
 Alpha  occ. eigenvalues --   -0.46056  -0.45799  -0.45512  -0.44320  -0.37022
 Alpha virt. eigenvalues --    0.04057   0.04986   0.05100   0.05562   0.05867
 Alpha virt. eigenvalues --    0.06319   0.06337   0.06460   0.08023   0.08188
 Alpha virt. eigenvalues --    0.09154   0.09850   0.10249   0.11151   0.12042

 Mulliken charges:
               1
     1  Si   5.907920
     2  C   -4.170656
     3  C   -2.394166
     4  H    1.483564
     5  C   -2.857596
     6  H    1.623274
     7  H    1.623270
     8  C   -3.969296
     9  H    1.395047
    10  H    1.395048
    11  H    1.294541
    12  H    1.107511
    13  H    1.294541
    14  H    1.483565
    15  H   -1.754554
    16  H   -1.707447
    17  H   -1.754568
 Sum of Mulliken charges =   0.00000

 Dipole moment (field-independent basis, Debye):
    X=              0.9982    Y=              0.5139    Z=             -0.0000  Tot=              1.1227

 Test job not archived.
 1\1\GINC-SE082\SP\RHF\Aug-CC-pVDZ\C4H12Si1\OHZDE\08-Apr-2025\0\\#t hf
 aug-cc-pvdz iop(5/13=1,5/36=2,99/5=2) pseudo=read geom=check guess=(re
 ad,tcheck) scf=(maxcycle=1)\\title\\0,1\Si,0,-2.376593,-0.215372,-0.00
 0004\C,0,-0.71655,0.680871,-0.00003\C,0,0.513064,-0.245502,0.00001\H,0
 ,-0.686389,1.341434,-0.875533\C,0,1.848586,0.510406,-0.000007\H,0,0.47
 727,-0.905227,-0.875896\H,0,0.477259,-0.905167,0.87596\C,0,3.067421,-0
 .416561,0.000031\H,0,1.88725,1.168426,0.876415\H,0,1.88726,1.168368,-0
 .876472\H,0,3.072842,-1.063266,0.882992\H,0,4.001153,0.152254,0.000018

 Normal termination of Gaussian 16 at Tue Apr  8 23:57:48 2025.
