 Gaussian 16, Revision C.01,

 ----------------------------------------------------------------------
 #t hf aug-cc-pvdz symm=none int=(grid=ultrafine) guess=(read,tcheck) s
 table=opt
 ----------------------------------------------------------------------
 -----
 title
 -----
 Symbolic Z-matrix:
 Charge =  0 Multiplicity = 2

 SCF Done:  E(UHF) =  -518.562081459     A.U. after   15 cycles
 Normal termination of Gaussian 16 at Tue Apr  8 23:43:25 2025.
 Gaussian 16:  ES64L-G16RevC.01  3-Jul-2019

 ----------------------------------------------------------------------
 #t hf aug-cc-pvdz iop(5/13=1,5/36=2,99/5=2) pseudo=read geom=check gue
 ss=(read,tcheck) scf=(maxcycle=1)
 ----------------------------------------------------------------------
 -----
 title
 -----
 Structure from the checkpoint file:  "BDE49_nonexpt_1678_mol2.chk"
 Charge =  0 Multiplicity = 2

                         Standard orientation:
 ---------------------------------------------------------------------
 Center     Atomic      Atomic             Coordinates (Angstroms)
 Number     Number       Type             X           Y           Z
 ---------------------------------------------------------------------
      1         14           0       -0.634111    0.000844    0.503398
      2          8           0       -0.913272    1.412885   -0.312565
      3          6           0        1.244392   -0.073031    0.713445
      4          6           0        1.997308   -0.050158   -0.630899
      5          1           0        1.490647   -0.975190    1.284467
      6          1           0        1.538884    0.776292    1.339486
      7          1           0        1.712058   -0.899683   -1.256497
      8          1           0        3.080061   -0.093408   -0.477786
      9          1           0        1.769433    0.860975   -1.187860
     10          1           0       -1.751392    1.499951   -0.774380
     11          8           0       -1.207869   -1.212492   -0.487446
     12          1           0       -1.443204   -2.044758   -0.070177
 ---------------------------------------------------------------------

 SCF Done:  E(UHF) =  -519.731584753     A.U. after    2 cycles

 The electronic state is 2-A.
 Alpha  occ. eigenvalues --  -76.24242 -21.07718 -21.07197 -11.38784 -11.34408
 Alpha  occ. eigenvalues --   -5.58377  -2.25297  -2.23065  -2.19597  -1.68147
 Alpha  occ. eigenvalues --   -1.63647  -1.14468  -0.89077  -0.70671  -0.62060
 Alpha  occ. eigenvalues --   -0.59330  -0.57067  -0.52713  -0.49189  -0.48400
 Alpha  occ. eigenvalues --   -0.44259  -0.40480  -0.39849  -0.36692  -0.24074
 Alpha virt. eigenvalues --    0.03717   0.05436   0.05644   0.06111   0.06693
 Alpha virt. eigenvalues --    0.06864   0.07243   0.07481   0.08857   0.09533
 Alpha virt. eigenvalues --    0.13225   0.13834   0.15177   0.15846   0.16727

  Beta  occ. eigenvalues --  -76.23761 -21.07356 -21.06872 -11.38611 -11.34173
  Beta  occ. eigenvalues --   -5.57586  -2.24788  -2.22617  -2.16643  -1.67279
  Beta  occ. eigenvalues --   -1.62890  -1.13824  -0.88320  -0.68740  -0.61892
  Beta  occ. eigenvalues --   -0.59093  -0.56457  -0.49745  -0.48765  -0.47357
  Beta  occ. eigenvalues --   -0.43287  -0.39052  -0.38286  -0.35487
  Beta virt. eigenvalues --    0.02939   0.05329   0.05758   0.05959   0.06599
  Beta virt. eigenvalues --    0.06917   0.07235   0.07473   0.08894   0.09153
  Beta virt. eigenvalues --    0.09988   0.13414   0.14644   0.15860   0.16920

 Mulliken charges and spin densities:
               1          2
     1  Si   4.645799   0.969935
     2  O   -2.774725  -0.021805
     3  C   -4.308896   0.275171
     4  C   -3.609777  -0.081859
     5  H    1.355852  -0.038811
     6  H    1.381479  -0.008263
     7  H    1.303790  -0.006907
     8  H    1.177262   0.006353
     9  H    1.325549  -0.007667
    10  H    1.087713   0.009246
    11  O   -2.603511  -0.073811
    12  H    1.019465  -0.021583
 Sum of Mulliken charges =   0.00000   1.00000

 Dipole moment (field-independent basis, Debye):
    X=             -0.2228    Y=             -0.5131    Z=             -0.1709  Tot=              0.5850
                          Isotropic Fermi Contact Couplings
        Atom                 a.u.       MegaHertz       Gauss      10(-4) cm-1
     1  Si(29)             0.49062    -436.02644    -155.58508    -145.44276
     2  O(17)              0.03278     -19.86876      -7.08967      -6.62751
     3  C(13)              0.06424      72.22247      25.77077      24.09082
     4  C(13)              0.00675       7.59019       2.70837       2.53181
     5  H(1)              -0.00147      -6.55809      -2.34009      -2.18754
     6  H(1)              -0.00158      -7.08093      -2.52665      -2.36194
     7  H(1)              -0.00016      -0.70139      -0.25027      -0.23396
     8  H(1)               0.00207       9.25024       3.30071       3.08555

 Normal termination of Gaussian 16 at Tue Apr  8 23:43:30 2025.
