 Gaussian 16, Revision C.01,

 ----------------------------------------------------------------------
 #t hf aug-cc-pvdz symm=none int=(grid=ultrafine) guess=(read,tcheck) s
 table=(opt,rrhf)
 ----------------------------------------------------------------------
 -----
 title
 -----
 Symbolic Z-matrix:
 Charge =  0 Multiplicity = 1

 SCF Done:  E(RHF) =  -1291.02820124     A.U. after   15 cycles
 Normal termination of Gaussian 16 at Tue Apr  8 23:31:57 2025.
 Gaussian 16:  ES64L-G16RevC.01  3-Jul-2019

 ----------------------------------------------------------------------
 #t hf aug-cc-pvdz iop(5/13=1,5/36=2,99/5=2) pseudo=read geom=check gue
 ss=(read,tcheck) scf=(maxcycle=1)
 ----------------------------------------------------------------------
 -----
 title
 -----
 Structure from the checkpoint file:  "BDE49_nonexpt_1329_mol1.chk"
 Charge =  0 Multiplicity = 1

                         Standard orientation:
 ---------------------------------------------------------------------
 Center     Atomic      Atomic             Coordinates (Angstroms)
 Number     Number       Type             X           Y           Z
 ---------------------------------------------------------------------
      1          6           0        2.373739    0.000007   -0.018700
      2          6           0        1.678935    1.204526   -0.004327
      3          6           0        0.291341    1.186963    0.017688
      4          6           0        1.678947   -1.204519   -0.004328
      5          6           0        0.291352   -1.186969    0.017685
      6          6           0       -0.436027   -0.000006    0.017331
      7          9           0        3.704220    0.000013   -0.038782
      8          9           0        2.347118    2.358763   -0.008247
      9          9           0       -0.346995    2.371664    0.055826
     10          9           0        2.347141   -2.358750   -0.008247
     11          9           0       -0.346968   -2.371680    0.055832
     12         15           0       -2.263683   -0.000006    0.110446
     13          8           0       -2.732053   -0.000015    1.496326
     14          8           0       -2.718301   -1.190904   -0.841079
     15          1           0       -2.652949   -2.053740   -0.414921
     16          8           0       -2.718292    1.190916   -0.841052
     17          1           0       -2.652998    2.053734   -0.414849
 ---------------------------------------------------------------------

 SCF Done:  E(RHF) =  -1294.85632043     A.U. after    2 cycles

 The electronic state is 1-A.
 Alpha  occ. eigenvalues -- -105.33792 -29.34539 -29.34449 -29.34426 -29.33930
 Alpha  occ. eigenvalues --  -29.33906 -21.13591 -21.13546 -21.04308 -11.63047
 Alpha  occ. eigenvalues --  -11.57062 -11.55811 -11.54111 -11.51891 -11.47315
 Alpha  occ. eigenvalues --   -2.96284  -2.02459  -1.93125  -1.83035  -1.59594
 Alpha  occ. eigenvalues --   -1.48519  -1.42363  -1.30498  -1.28383  -1.25967
 Alpha  occ. eigenvalues --   -1.10753  -1.06368  -0.93487  -0.86814  -0.78845
 Alpha  occ. eigenvalues --   -0.77870  -0.74669  -0.70597  -0.69024  -0.65423
 Alpha  occ. eigenvalues --   -0.60267  -0.58699  -0.57964  -0.55367  -0.47568
 Alpha  occ. eigenvalues --   -0.47246  -0.45962  -0.44739  -0.44192  -0.43851
 Alpha  occ. eigenvalues --   -0.42951  -0.40984  -0.40090  -0.38643  -0.36140
 Alpha  occ. eigenvalues --   -0.35160  -0.33677  -0.32992  -0.32426  -0.31983
 Alpha  occ. eigenvalues --   -0.30552  -0.29507  -0.28700  -0.24499  -0.20933
 Alpha  occ. eigenvalues --   -0.18037
 Alpha virt. eigenvalues --    0.05200   0.06243   0.06721   0.09433   0.10085
 Alpha virt. eigenvalues --    0.10462   0.10824   0.10991   0.11195   0.11441
 Alpha virt. eigenvalues --    0.11731   0.11886   0.12654   0.13364   0.13649

 Mulliken charges:
               1
     1  C    1.467768
     2  C   -2.304748
     3  C    3.854694
     4  C   -2.304824
     5  C    3.854617
     6  C  -11.416454
     7  F    1.082436
     8  F    1.124658
     9  F    0.786065
    10  F    1.124658
    11  F    0.786051
    12  P    9.175734
    13  O   -2.981092
    14  O   -3.047692
    15  H    0.922913
    16  O   -3.047679
    17  H    0.922895
 Sum of Mulliken charges =  -0.00000

 Dipole moment (field-independent basis, Debye):
    X=              4.7910    Y=              0.0000    Z=             -2.2670  Tot=              5.3003

 Test job not archived.
 1\1\GINC-SE252\SP\RHF\Aug-CC-pVDZ\C6H2F5O3P1\OHZDE\08-Apr-2025\0\\#t h
 f aug-cc-pvdz iop(5/13=1,5/36=2,99/5=2) pseudo=read geom=check guess=(
 read,tcheck) scf=(maxcycle=1)\\title\\0,1\C,0,-2.373739,-0.000007,-0.0
 187\C,0,-1.678935,-1.204526,-0.004327\C,0,-0.291341,-1.186963,0.017688
 \C,0,-1.678947,1.204519,-0.004328\C,0,-0.291352,1.186969,0.017685\C,0,
 0.436027,0.000006,0.017331\F,0,-3.70422,-0.000013,-0.038782\F,0,-2.347
 118,-2.358763,-0.008247\F,0,0.346995,-2.371664,0.055826\F,0,-2.347141,
 2.35875,-0.008247\F,0,0.346968,2.37168,0.055832\P,0,2.263683,0.000006,

 Normal termination of Gaussian 16 at Tue Apr  8 23:32:11 2025.
