 Gaussian 16, Revision C.01,

 ----------------------------------------------------------------------
 #t hf aug-cc-pvdz symm=none int=(grid=ultrafine) guess=(read,tcheck) s
 table=(opt,rrhf)
 ----------------------------------------------------------------------
 -----
 title
 -----
 Symbolic Z-matrix:
 Charge =  0 Multiplicity = 1

 SCF Done:  E(RHF) =  -359.811736234     A.U. after   13 cycles
 Normal termination of Gaussian 16 at Tue Apr  8 23:08:06 2025.
 Gaussian 16:  ES64L-G16RevC.01  3-Jul-2019

 ----------------------------------------------------------------------
 #t hf aug-cc-pvdz iop(5/13=1,5/36=2,99/5=2) pseudo=read geom=check gue
 ss=(read,tcheck) scf=(maxcycle=1)
 ----------------------------------------------------------------------
 -----
 title
 -----
 Structure from the checkpoint file:  "BDE49_expt_431_mol1.chk"
 Charge =  0 Multiplicity = 1

                         Standard orientation:
 ---------------------------------------------------------------------
 Center     Atomic      Atomic             Coordinates (Angstroms)
 Number     Number       Type             X           Y           Z
 ---------------------------------------------------------------------
      1          7           0        0.046880   -0.638410   -0.000023
      2          6           0        1.193218    0.155803   -0.000033
      3          6           0        2.480836   -0.648525    0.000015
      4          1           0        2.536723   -1.290080    0.884076
      5          1           0        3.321751    0.041259    0.000050
      6          1           0        2.536788   -1.290070   -0.884049
      7          6           0       -1.316563   -0.279776   -0.000020
      8          1           0        0.168176   -1.643441   -0.000013
      9          6           0       -1.672718    1.183248    0.000009
     10          1           0       -2.758651    1.257170    0.000046
     11          1           0       -1.251998    1.686372   -0.872051
     12          1           0       -1.251941    1.686356    0.872050
     13          8           0       -2.135997   -1.171344    0.000031
     14          8           0        1.168792    1.365945   -0.000003
 ---------------------------------------------------------------------

 SCF Done:  E(RHF) =  -361.411305353     A.U. after    2 cycles

 The electronic state is 1-A.
 Alpha  occ. eigenvalues --  -21.05320 -21.04857 -15.79031 -11.53043 -11.52008
 Alpha  occ. eigenvalues --  -11.40884 -11.38913  -1.74111  -1.71743  -1.39458
 Alpha  occ. eigenvalues --   -1.13229  -1.08773  -0.87881  -0.78243  -0.67754
 Alpha  occ. eigenvalues --   -0.64372  -0.63324  -0.59796  -0.58342  -0.55156
 Alpha  occ. eigenvalues --   -0.52265  -0.50271  -0.49793  -0.44396  -0.32506
 Alpha  occ. eigenvalues --   -0.32180  -0.29588
 Alpha virt. eigenvalues --    0.02793   0.05260   0.05380   0.05687   0.06839
 Alpha virt. eigenvalues --    0.07064   0.07237   0.08827   0.10974   0.12103
 Alpha virt. eigenvalues --    0.12387   0.13248   0.13926   0.14438   0.15121

 Mulliken charges:
               1
     1  N   -3.070481
     2  C    5.184707
     3  C   -4.259048
     4  H    1.262694
     5  H    1.186072
     6  H    1.262715
     7  C    4.325805
     8  H    0.794841
     9  C   -4.200245
    10  H    1.046314
    11  H    1.400848
    12  H    1.400839
    13  O   -3.160538
    14  O   -3.174523
 Sum of Mulliken charges =  -0.00000

 Dipole moment (field-independent basis, Debye):
    X=              1.5694    Y=             -0.5596    Z=              0.0000  Tot=              1.6662

 Test job not archived.
 1\1\GINC-SE341\SP\RHF\Aug-CC-pVDZ\C4H7N1O2\OHZDE\08-Apr-2025\0\\#t hf
 aug-cc-pvdz iop(5/13=1,5/36=2,99/5=2) pseudo=read geom=check guess=(re
 ad,tcheck) scf=(maxcycle=1)\\title\\0,1\N,0,-0.04688,-0.63841,0.000023
 \C,0,-1.193218,0.155803,0.000033\C,0,-2.480836,-0.648525,-0.000015\H,0
 ,-2.536723,-1.29008,-0.884076\H,0,-3.321751,0.041259,-0.00005\H,0,-2.5
 36788,-1.29007,0.884049\C,0,1.316563,-0.279776,0.00002\H,0,-0.168176,-
 1.643441,0.000013\C,0,1.672718,1.183248,-0.000009\H,0,2.758651,1.25717
 ,-0.000046\H,0,1.251998,1.686372,0.872051\H,0,1.251941,1.686356,-0.872

 Normal termination of Gaussian 16 at Tue Apr  8 23:08:10 2025.
