 Gaussian 16, Revision C.01,

 ----------------------------------------------------------------------
 #t hf aug-cc-pvdz symm=none int=(grid=ultrafine) guess=(read,tcheck) s
 table=(opt,rrhf)
 ----------------------------------------------------------------------
 -----
 title
 -----
 Symbolic Z-matrix:
 Charge =  0 Multiplicity = 1

 SCF Done:  E(RHF) =  -1037.26028961     A.U. after   13 cycles
 Normal termination of Gaussian 16 at Wed Apr  9 00:02:27 2025.
 Gaussian 16:  ES64L-G16RevC.01  3-Jul-2019

 ----------------------------------------------------------------------
 #t hf aug-cc-pvdz iop(5/13=1,5/36=2,99/5=2) pseudo=read geom=check gue
 ss=(read,tcheck) scf=(maxcycle=1)
 ----------------------------------------------------------------------
 -----
 title
 -----
 Structure from the checkpoint file:  "BDE49_nonexpt_215_mol1.chk"
 Charge =  0 Multiplicity = 1

                         Standard orientation:
 ---------------------------------------------------------------------
 Center     Atomic      Atomic             Coordinates (Angstroms)
 Number     Number       Type             X           Y           Z
 ---------------------------------------------------------------------
      1         17           0        0.393000    1.579959   -0.000026
      2         17           0       -1.809194   -0.508825    0.000026
      3          5           0       -0.100291   -0.109359    0.000009
      4          6           0        0.970615   -1.257240    0.000005
      5          7           0        2.238710   -1.103574   -0.000011
      6          1           0        2.477212   -0.104766   -0.000024
      7          1           0        0.604889   -2.289247    0.000025
 ---------------------------------------------------------------------

 SCF Done:  E(RHF) =  -1038.27084752     A.U. after    2 cycles

 The electronic state is 1-A.
 Alpha  occ. eigenvalues --  -99.91736 -99.91709 -15.78069 -11.40952 -10.49151
 Alpha  occ. eigenvalues --  -10.48920  -9.69095  -9.68847  -9.68501  -9.68463
 Alpha  occ. eigenvalues --   -9.68342  -9.68263  -7.73165  -1.43064  -1.33998
 Alpha  occ. eigenvalues --   -1.31489  -0.94274  -0.80291  -0.68383  -0.65926
 Alpha  occ. eigenvalues --   -0.59625  -0.56931  -0.54125  -0.53697  -0.51984
 Alpha  occ. eigenvalues --   -0.45221  -0.39494
 Alpha virt. eigenvalues --    0.02207   0.03215   0.03921   0.04007   0.04194
 Alpha virt. eigenvalues --    0.08365   0.08805   0.10791   0.13291   0.13343
 Alpha virt. eigenvalues --    0.13630   0.15792   0.15947   0.16037   0.16578

 Mulliken charges:
               1
     1  Cl  -1.107308
     2  Cl  -1.204631
     3  B    3.437310
     4  C   -0.876848
     5  N   -2.527820
     6  H    0.749976
     7  H    1.529321
 Sum of Mulliken charges =  -0.00000

 Dipole moment (field-independent basis, Debye):
    X=             -0.2270    Y=              0.2169    Z=              0.0000  Tot=              0.3140

 Test job not archived.
 1\1\GINC-SE460\SP\RHF\Aug-CC-pVDZ\C1H2B1Cl2N1\OHZDE\09-Apr-2025\0\\#t
 hf aug-cc-pvdz iop(5/13=1,5/36=2,99/5=2) pseudo=read geom=check guess=
 (read,tcheck) scf=(maxcycle=1)\\title\\0,1\Cl,0,-0.393,1.579959,0.0000
 26\Cl,0,1.809194,-0.508825,-0.000026\B,0,0.100291,-0.109359,-0.000009\
 C,0,-0.970615,-1.25724,-0.000005\N,0,-2.23871,-1.103574,0.000011\H,0,-
 2.477212,-0.104766,0.000024\H,0,-0.604889,-2.289247,-0.000025\\Version
 =ES64L-G16RevC.01\State=1-A\HF=-1038.2708475\RMSD=4.840e-02\Dipole=0.0
 893059,0.0853454,-0.0000061\Quadrupole=-1.2406256,0.3878338,0.8527918,

 Normal termination of Gaussian 16 at Wed Apr  9 00:02:29 2025.
