 Gaussian 16, Revision C.01,

 ----------------------------------------------------------------------
 #t hf aug-cc-pvdz symm=none int=(grid=ultrafine) guess=(read,tcheck) s
 table=(opt,rrhf)
 ----------------------------------------------------------------------
 -----
 title
 -----
 Symbolic Z-matrix:
 Charge =  0 Multiplicity = 1

 SCF Done:  E(RHF) =  -909.751545554     A.U. after   12 cycles
 Normal termination of Gaussian 16 at Tue Apr  8 22:47:14 2025.
 Gaussian 16:  ES64L-G16RevC.01  3-Jul-2019

 ----------------------------------------------------------------------
 #t hf aug-cc-pvdz iop(5/13=1,5/36=2,99/5=2) pseudo=read geom=check gue
 ss=(read,tcheck) scf=(maxcycle=1)
 ----------------------------------------------------------------------
 -----
 title
 -----
 Structure from the checkpoint file:  "BDE49_expt_1321_mol1.chk"
 Charge =  0 Multiplicity = 1

                         Standard orientation:
 ---------------------------------------------------------------------
 Center     Atomic      Atomic             Coordinates (Angstroms)
 Number     Number       Type             X           Y           Z
 ---------------------------------------------------------------------
      1          6           0        0.046991   -2.125867   -0.053191
      2          7           0        0.003433   -0.646287   -0.108041
      3          1           0       -0.590687   -2.577503   -0.817544
      4          1           0       -0.262276   -2.522945    0.922129
      5          1           0        1.060236   -2.493367   -0.237447
      6         14           0        1.576896    0.116523   -0.011345
      7         14           0       -1.578218    0.107735   -0.007472
      8          6           0       -2.893801   -1.180092   -0.413458
      9          1           0       -2.776952   -1.583378   -1.423786
     10          1           0       -3.880689   -0.708919   -0.361584
     11          1           0       -2.896757   -2.019807    0.286769
     12          6           0       -1.776258    1.517731   -1.241030
     13          1           0       -1.499470    1.200528   -2.250769
     14          1           0       -1.182366    2.397806   -0.987724
     15          1           0       -2.825762    1.830348   -1.267456
     16          6           0       -1.930991    0.764715    1.726144
     17          1           0       -2.933911    1.201082    1.784335
     18          1           0       -1.874853   -0.037296    2.468962
     19          1           0       -1.218106    1.539386    2.023574
     20          6           0        2.627151   -0.365939   -1.501806
     21          1           0        2.771506   -1.447330   -1.581152
     22          1           0        3.620743    0.089978   -1.436706
     23          1           0        2.162308   -0.024824   -2.431645
     24          6           0        1.447395    1.993379    0.024597
     25          1           0        1.094080    2.405765   -0.922953
     26          1           0        2.448179    2.400306    0.204386
     27          1           0        0.800428    2.364483    0.823640
     28          6           0        2.475578   -0.435452    1.553846
     29          1           0        3.480528   -0.002711    1.597890
     30          1           0        1.935003   -0.115530    2.450037
     31          1           0        2.586904   -1.522537    1.606165
 ---------------------------------------------------------------------

 SCF Done:  E(RHF) =  -911.823303098     A.U. after    2 cycles

 The electronic state is 1-A.
 Alpha  occ. eigenvalues --  -76.18858 -76.18814 -15.67118 -11.39402 -11.34444
 Alpha  occ. eigenvalues --  -11.34184 -11.34008 -11.33832 -11.33697 -11.33619
 Alpha  occ. eigenvalues --   -5.53156  -5.53023  -2.18617  -2.18533  -2.16705
 Alpha  occ. eigenvalues --   -2.16546  -2.16292  -2.16244  -1.30251  -1.06744
 Alpha  occ. eigenvalues --   -1.06198  -1.00734  -1.00354  -1.00121  -0.99867
 Alpha  occ. eigenvalues --   -0.94085  -0.69794  -0.61848  -0.59696  -0.59055
 Alpha  occ. eigenvalues --   -0.57844  -0.56596  -0.56010  -0.55658  -0.55449
 Alpha  occ. eigenvalues --   -0.54211  -0.53791  -0.53431  -0.53316  -0.52921
 Alpha  occ. eigenvalues --   -0.52111  -0.51604  -0.48835  -0.41651  -0.40100
 Alpha  occ. eigenvalues --   -0.38479  -0.38414  -0.37393  -0.32184
 Alpha virt. eigenvalues --    0.03145   0.04577   0.05250   0.05565   0.05707
 Alpha virt. eigenvalues --    0.05856   0.06010   0.06121   0.06343   0.06867
 Alpha virt. eigenvalues --    0.07036   0.07156   0.07411   0.07488   0.07516

 Mulliken charges:
               1
     1  C   -4.663715
     2  N   -5.643418
     3  H    1.434245
     4  H    1.380718
     5  H    1.493785
     6  Si  13.060002
     7  Si  13.225866
     8  C   -6.417549
     9  H    1.074689
    10  H    1.187343
    11  H    1.034649
    12  C   -6.529665
    13  H    0.878057
    14  H    1.221280
    15  H    1.096077
    16  C   -6.723581
    17  H    0.995817
    18  H    0.958487
    19  H    1.111184
    20  C   -6.634387
    21  H    1.123926
    22  H    1.121397
    23  H    0.923819
    24  C   -6.809352
    25  H    1.205427
    26  H    0.966587
    27  H    1.215810
    28  C   -6.464782
    29  H    1.137785
    30  H    0.982260
    31  H    1.057236
 Sum of Mulliken charges =  -0.00000

 Dipole moment (field-independent basis, Debye):
    X=              0.0113    Y=             -0.3303    Z=             -0.0563  Tot=              0.3353

 Test job not archived.
 1\1\GINC-SE054\SP\RHF\Aug-CC-pVDZ\C7H21N1Si2\OHZDE\08-Apr-2025\0\\#t h
 f aug-cc-pvdz iop(5/13=1,5/36=2,99/5=2) pseudo=read geom=check guess=(
 read,tcheck) scf=(maxcycle=1)\\title\\0,1\C,0,0.046991,-2.125867,-0.05
 3191\N,0,0.003433,-0.646287,-0.108041\H,0,-0.590687,-2.577503,-0.81754
 4\H,0,-0.262276,-2.522945,0.922129\H,0,1.060236,-2.493367,-0.237447\Si
 ,0,1.576896,0.116523,-0.011345\Si,0,-1.578218,0.107735,-0.007472\C,0,-
 2.893801,-1.180092,-0.413458\H,0,-2.776952,-1.583378,-1.423786\H,0,-3.
 880689,-0.708919,-0.361584\H,0,-2.896757,-2.019807,0.286769\C,0,-1.776

 Normal termination of Gaussian 16 at Tue Apr  8 22:47:43 2025.
