 Gaussian 16, Revision C.01,

 ----------------------------------------------------------------------
 #t hf aug-cc-pvdz symm=none int=(grid=ultrafine) guess=(read,tcheck) s
 table=(opt,rrhf)
 ----------------------------------------------------------------------
 -----
 title
 -----
 Symbolic Z-matrix:
 Charge =  0 Multiplicity = 1

 SCF Done:  E(RHF) =  -347.291504829     A.U. after   12 cycles
 Normal termination of Gaussian 16 at Wed Apr  9 00:39:47 2025.
 Gaussian 16:  ES64L-G16RevC.01  3-Jul-2019

 ----------------------------------------------------------------------
 #t hf aug-cc-pvdz iop(5/13=1,5/36=2,99/5=2) pseudo=read geom=check gue
 ss=(read,tcheck) scf=(maxcycle=1)
 ----------------------------------------------------------------------
 -----
 title
 -----
 Structure from the checkpoint file:  "BDE49_nonexpt_609_mol1.chk"
 Charge =  0 Multiplicity = 1

                         Standard orientation:
 ---------------------------------------------------------------------
 Center     Atomic      Atomic             Coordinates (Angstroms)
 Number     Number       Type             X           Y           Z
 ---------------------------------------------------------------------
      1          5           0        1.329143   -0.039229    0.022931
      2          8           0        1.401343    1.334978    0.101790
      3          8           0        2.481853   -0.744620   -0.227691
      4          6           0       -1.149032   -0.209128    0.555786
      5          6           0       -2.375566   -0.568309   -0.240221
      6          6           0       -1.804338    0.824263   -0.341166
      7          1           0       -3.309727   -0.707168    0.290093
      8          1           0       -2.228122   -1.222721   -1.090559
      9          1           0       -1.291403    1.079194   -1.260382
     10          1           0       -2.347987    1.638588    0.123354
     11          1           0        3.233336   -0.154050   -0.327415
     12          1           0        0.547740    1.740482    0.275516
     13          7           0        0.115016   -0.763364    0.175148
     14          1           0       -1.311677   -0.067221    1.624038
     15          1           0        0.165061   -1.771234    0.185483
 ---------------------------------------------------------------------

 SCF Done:  E(RHF) =  -348.846061910     A.U. after    2 cycles

 The electronic state is 1-A.
 Alpha  occ. eigenvalues --  -21.04682 -21.03974 -15.69991 -11.43785 -11.41934
 Alpha  occ. eigenvalues --  -11.36897  -7.63314  -1.81228  -1.64507  -1.39640
 Alpha  occ. eigenvalues --   -1.21509  -0.87403  -0.86422  -0.76095  -0.70046
 Alpha  occ. eigenvalues --   -0.65600  -0.63978  -0.59446  -0.53502  -0.51708
 Alpha  occ. eigenvalues --   -0.50207  -0.44328  -0.40916  -0.40310  -0.37298
 Alpha  occ. eigenvalues --   -0.35376  -0.32986
 Alpha virt. eigenvalues --    0.03816   0.04768   0.04903   0.05159   0.05839
 Alpha virt. eigenvalues --    0.06296   0.07118   0.07453   0.08191   0.09252
 Alpha virt. eigenvalues --    0.09425   0.10192   0.12361   0.13655   0.14246

 Mulliken charges:
               1
     1  B    6.837673
     2  O   -3.936852
     3  O   -4.460733
     4  C    1.082879
     5  C   -2.865566
     6  C   -2.557051
     7  H    1.348442
     8  H    1.243178
     9  H    1.265464
    10  H    1.226892
    11  H    0.969217
    12  H    1.495822
    13  N   -4.170235
    14  H    1.468473
    15  H    1.052398
 Sum of Mulliken charges =  -0.00000

 Dipole moment (field-independent basis, Debye):
    X=             -1.2561    Y=              0.1346    Z=              0.3423  Tot=              1.3088

 Test job not archived.
 1\1\GINC-SE212\SP\RHF\Aug-CC-pVDZ\C3H8B1N1O2\OHZDE\09-Apr-2025\0\\#t h
 f aug-cc-pvdz iop(5/13=1,5/36=2,99/5=2) pseudo=read geom=check guess=(
 read,tcheck) scf=(maxcycle=1)\\title\\0,1\B,0,1.329143,-0.039229,0.022
 931\O,0,1.401343,1.334978,0.10179\O,0,2.481853,-0.74462,-0.227691\C,0,
 -1.149032,-0.209128,0.555786\C,0,-2.375566,-0.568309,-0.240221\C,0,-1.
 804338,0.824263,-0.341166\H,0,-3.309727,-0.707168,0.290093\H,0,-2.2281
 22,-1.222721,-1.090559\H,0,-1.291403,1.079194,-1.260382\H,0,-2.347987,
 1.638588,0.123354\H,0,3.233336,-0.15405,-0.327415\H,0,0.54774,1.740482

 Normal termination of Gaussian 16 at Wed Apr  9 00:39:52 2025.
