 Gaussian 16, Revision C.01,

 ----------------------------------------------------------------------
 #t hf aug-cc-pvdz symm=none int=(grid=ultrafine) guess=(read,tcheck) s
 table=opt
 ----------------------------------------------------------------------
 -----
 title
 -----
 Symbolic Z-matrix:
 Charge =  0 Multiplicity = 2

 SCF Done:  E(UHF) =  -497.501064827     A.U. after   18 cycles
 Normal termination of Gaussian 16 at Tue Apr  8 23:52:30 2025.
 Gaussian 16:  ES64L-G16RevC.01  3-Jul-2019

 ----------------------------------------------------------------------
 #t hf aug-cc-pvdz iop(5/13=1,5/36=2,99/5=2) pseudo=read geom=check gue
 ss=(read,tcheck) scf=(maxcycle=1)
 ----------------------------------------------------------------------
 -----
 title
 -----
 Structure from the checkpoint file:  "BDE49_nonexpt_1909_mol2.chk"
 Charge =  0 Multiplicity = 2

                         Standard orientation:
 ---------------------------------------------------------------------
 Center     Atomic      Atomic             Coordinates (Angstroms)
 Number     Number       Type             X           Y           Z
 ---------------------------------------------------------------------
      1         14           0        1.835199    0.069406   -0.098305
      2          7           0        0.261092   -0.687179    0.039572
      3          1           0        1.887880    1.265928    0.782350
      4          1           0        2.800131   -0.967670    0.346998
      5          6           0       -1.028759   -0.160014    0.005925
      6          8           0       -2.000780   -0.886348    0.010246
      7          1           0        0.221069   -1.701747    0.027674
      8          6           0       -1.129975    1.351921   -0.018354
      9          1           0       -0.728165    1.779854    0.904124
     10          1           0       -2.178106    1.626177   -0.115218
     11          1           0       -0.564601    1.775374   -0.854058
 ---------------------------------------------------------------------

 SCF Done:  E(UHF) =  -498.567214039     A.U. after    2 cycles

 The electronic state is 2-A.
 Alpha  occ. eigenvalues --  -76.25886 -21.03448 -15.75744 -11.50267 -11.39375
 Alpha  occ. eigenvalues --   -5.59338  -2.24152  -2.21320  -2.20104  -1.71118
 Alpha  occ. eigenvalues --   -1.33971  -1.09807  -0.83011  -0.76213  -0.63624
 Alpha  occ. eigenvalues --   -0.61737  -0.59072  -0.54275  -0.50883  -0.49677
 Alpha  occ. eigenvalues --   -0.46641  -0.37374  -0.29224  -0.27565
 Alpha virt. eigenvalues --    0.03321   0.04569   0.05292   0.06477   0.06705
 Alpha virt. eigenvalues --    0.07006   0.08040   0.09674   0.09689   0.10449
 Alpha virt. eigenvalues --    0.12123   0.13336   0.13818   0.14528   0.15411

  Beta  occ. eigenvalues --  -76.25361 -21.03263 -15.75430 -11.50339 -11.39374
  Beta  occ. eigenvalues --   -5.58494  -2.23504  -2.20755  -2.16888  -1.70796
  Beta  occ. eigenvalues --   -1.33166  -1.09748  -0.81584  -0.74052  -0.63591
  Beta  occ. eigenvalues --   -0.61450  -0.57834  -0.54198  -0.49723  -0.48332
  Beta  occ. eigenvalues --   -0.46328  -0.34590  -0.28903
  Beta virt. eigenvalues --    0.02738   0.03848   0.04862   0.05402   0.06758
  Beta virt. eigenvalues --    0.07086   0.07819   0.08692   0.09808   0.10050
  Beta virt. eigenvalues --    0.11012   0.12708   0.13523   0.14254   0.14969

 Mulliken charges and spin densities:
               1          2
     1  Si   3.617049   0.959017
     2  N   -2.647856  -0.007845
     3  H   -1.416044   0.022880
     4  H   -1.500563   0.014212
     5  C    4.473984   0.007220
     6  O   -3.121657   0.047844
     7  H    0.767072  -0.004185
     8  C   -3.898403  -0.027101
     9  H    1.349727   0.000256
    10  H    1.150006  -0.003074
    11  H    1.226685  -0.009223
 Sum of Mulliken charges =  -0.00000   1.00000

 Dipole moment (field-independent basis, Debye):
    X=              1.2841    Y=              0.6214    Z=             -0.3805  Tot=              1.4764
                          Isotropic Fermi Contact Couplings
        Atom                 a.u.       MegaHertz       Gauss      10(-4) cm-1
     1  Si(29)             0.53661    -476.90228    -170.17059    -159.07748
     2  N(14)              0.04205      13.58503       4.84748       4.53148
     3  H(1)               0.01496      66.86487      23.85905      22.30372
     4  H(1)               0.01040      46.48640      16.58750      15.50619
     5  C(13)             -0.00603      -6.77638      -2.41798      -2.26036
     6  O(17)              0.01138      -6.89828      -2.46148      -2.30102
     7  H(1)              -0.00098      -4.36429      -1.55729      -1.45577
     8  C(13)              0.00017       0.18834       0.06720       0.06282

 1\1\GINC-SE335\SP\UHF\Aug-CC-pVDZ\C2H6N1O1Si1(2)\OHZDE\08-Apr-2025\0\\
 #t hf aug-cc-pvdz iop(5/13=1,5/36=2,99/5=2) pseudo=read geom=check gue
 ss=(read,tcheck) scf=(maxcycle=1)\\title\\0,2\Si,0,1.835199,0.069406,-
 0.098305\N,0,0.261092,-0.687179,0.039572\H,0,1.88788,1.265928,0.78235\
 H,0,2.800131,-0.967669,0.346998\C,0,-1.028759,-0.160014,0.005925\O,0,-
 2.00078,-0.886348,0.010246\H,0,0.221069,-1.701747,0.027674\C,0,-1.1299
 75,1.351921,-0.018354\H,0,-0.728165,1.779854,0.904124\H,0,-2.178106,1.
 626177,-0.115218\H,0,-0.564601,1.775374,-0.854058\\Version=ES64L-G16Re

 Normal termination of Gaussian 16 at Tue Apr  8 23:52:33 2025.
