 Gaussian 16, Revision C.01,

 ----------------------------------------------------------------------
 #t hf aug-cc-pvdz symm=none int=(grid=ultrafine) guess=(read,tcheck) s
 table=(opt,rrhf)
 ----------------------------------------------------------------------
 -----
 title
 -----
 Symbolic Z-matrix:
 Charge =  0 Multiplicity = 1

 SCF Done:  E(RHF) =  -1293.84209610     A.U. after   15 cycles
 Normal termination of Gaussian 16 at Wed Apr  9 00:31:53 2025.
 Gaussian 16:  ES64L-G16RevC.01  3-Jul-2019

 ----------------------------------------------------------------------
 #t hf aug-cc-pvdz iop(5/13=1,5/36=2,99/5=2) pseudo=read geom=check gue
 ss=(read,tcheck) scf=(maxcycle=1)
 ----------------------------------------------------------------------
 -----
 title
 -----
 Structure from the checkpoint file:  "BDE49_nonexpt_2718_mol1.chk"
 Charge =  0 Multiplicity = 1

                         Standard orientation:
 ---------------------------------------------------------------------
 Center     Atomic      Atomic             Coordinates (Angstroms)
 Number     Number       Type             X           Y           Z
 ---------------------------------------------------------------------
      1          6           0        3.236613    0.760501    0.003955
      2          8           0        2.546499    1.627624   -0.440764
      3         16           0        2.800162   -1.026261   -0.077979
      4         16           0        0.970313   -0.970604   -1.036509
      5          6           0       -0.156115   -0.414681    0.306912
      6          8           0        0.213140   -0.180671    1.419830
      7          6           0        4.537533    0.973708    0.744927
      8          1           0        5.035288    1.855014    0.338772
      9          1           0        5.197334    0.106573    0.688511
     10          1           0        4.301974    1.160617    1.796666
     11          6           0       -1.580367   -0.257678   -0.197881
     12          6           0       -2.552853   -1.076606    0.677052
     13          6           0       -4.008397   -0.860768    0.240735
     14          1           0       -2.422032   -0.765561    1.718584
     15          1           0       -2.293655   -2.138763    0.627696
     16          6           0       -4.385139    0.627105    0.232601
     17          1           0       -4.675649   -1.418512    0.905178
     18          1           0       -4.152299   -1.277181   -0.764560
     19          6           0       -3.416108    1.445004   -0.632078
     20          1           0       -4.362387    1.010601    1.260497
     21          1           0       -5.411362    0.754533   -0.125749
     22          6           0       -1.959062    1.241936   -0.196279
     23          1           0       -3.666860    2.509137   -0.582416
     24          1           0       -3.526577    1.148520   -1.683023
     25          1           0       -1.278916    1.797054   -0.848739
     26          1           0       -1.814187    1.629635    0.817740
     27          1           0       -1.632027   -0.628586   -1.229535
 ---------------------------------------------------------------------

 SCF Done:  E(RHF) =  -1296.63806686     A.U. after    2 cycles

 The electronic state is 1-A.
 Alpha  occ. eigenvalues --  -75.72352 -75.72099 -21.07485 -21.07142 -13.19648
 Alpha  occ. eigenvalues --  -13.14925 -13.13267 -13.11595 -13.06480 -13.05988
 Alpha  occ. eigenvalues --  -11.52134 -11.51625 -11.45614 -11.44498 -11.43158
 Alpha  occ. eigenvalues --  -11.40549 -11.39117 -11.38466 -11.35279  -8.06334
 Alpha  occ. eigenvalues --   -8.06169  -1.73475  -1.72891  -1.33331  -1.24589
 Alpha  occ. eigenvalues --   -1.15233  -1.11783  -1.11056  -1.02847  -0.91940
 Alpha  occ. eigenvalues --   -0.89243  -0.80436  -0.76373  -0.73378  -0.66193
 Alpha  occ. eigenvalues --   -0.64364  -0.62235  -0.61843  -0.61661  -0.61104
 Alpha  occ. eigenvalues --   -0.57461  -0.54613  -0.54104  -0.53276  -0.52944
 Alpha  occ. eigenvalues --   -0.49451  -0.47810  -0.47294  -0.45723  -0.44938
 Alpha  occ. eigenvalues --   -0.44228  -0.42271  -0.38987  -0.35647  -0.29466
 Alpha  occ. eigenvalues --   -0.28431  -0.25693  -0.24373
 Alpha virt. eigenvalues --    0.03029   0.04111   0.04912   0.05261   0.05444
 Alpha virt. eigenvalues --    0.05519   0.05685   0.06374   0.06638   0.06820
 Alpha virt. eigenvalues --    0.07340   0.08194   0.08879   0.08965   0.09089

 Mulliken charges:
               1
     1  C    3.174634
     2  O   -3.042026
     3  S    0.046943
     4  S   -0.270598
     5  C    3.789786
     6  O   -3.428558
     7  C   -4.314037
     8  H    1.243888
     9  H    1.483230
    10  H    1.329126
    11  C    0.604528
    12  C   -3.743124
    13  C   -2.965776
    14  H    1.419807
    15  H    1.401503
    16  C   -2.795697
    17  H    1.249252
    18  H    1.380769
    19  C   -3.103195
    20  H    1.398416
    21  H    1.326762
    22  C   -3.774990
    23  H    1.270417
    24  H    1.396542
    25  H    1.424336
    26  H    1.386048
    27  H    2.112014
 Sum of Mulliken charges =   0.00000

 Dipole moment (field-independent basis, Debye):
    X=             -0.6181    Y=             -0.5969    Z=             -0.3710  Tot=              0.9359

 Test job not archived.
 1\1\GINC-SE116\SP\RHF\Aug-CC-pVDZ\C9H14O2S2\OHZDE\09-Apr-2025\0\\#t hf
  aug-cc-pvdz iop(5/13=1,5/36=2,99/5=2) pseudo=read geom=check guess=(r
 ead,tcheck) scf=(maxcycle=1)\\title\\0,1\C,0,3.236613,0.760501,0.00395
 5\O,0,2.546499,1.627624,-0.440764\S,0,2.800162,-1.026261,-0.077979\S,0
 ,0.970313,-0.970604,-1.036509\C,0,-0.156115,-0.414681,0.306912\O,0,0.2
 1314,-0.180671,1.41983\C,0,4.537533,0.973708,0.744927\H,0,5.035288,1.8
 55014,0.338772\H,0,5.197334,0.106573,0.688511\H,0,4.301974,1.160617,1.
 796666\C,0,-1.580367,-0.257678,-0.197881\C,0,-2.552853,-1.076606,0.677

 Normal termination of Gaussian 16 at Wed Apr  9 00:32:34 2025.
