 Gaussian 16, Revision C.01,

 ----------------------------------------------------------------------
 #t hf aug-cc-pvdz symm=none int=(grid=ultrafine) guess=(read,tcheck) s
 table=(opt,rrhf)
 ----------------------------------------------------------------------
 -----
 title
 -----
 Symbolic Z-matrix:
 Charge =  0 Multiplicity = 1

 SCF Done:  E(RHF) =  -616.245475777     A.U. after   12 cycles

 1\1\GINC-SE461\Stability\RHF\Aug-CC-pVDZ\C4H9Cl1\OHZDE\08-Apr-2025\0\\
 #t hf aug-cc-pvdz symm=none int=(grid=ultrafine) guess=(read,tcheck) s
 table=(opt,rrhf)\\title\\0,1\C,0,2.21208,-0.245317,0.120821\C,0,1.0852
 49,0.685832,-0.328807\C,0,-0.257978,0.452403,0.356872\C,0,-1.314989,1.
 483237,-0.007446\H,0,-0.126495,0.404383,1.439149\Cl,0,-0.900654,-1.224
 084,-0.069082\H,0,-2.262498,1.27047,0.4892\H,0,-1.486524,1.500442,-1.0
 86129\H,0,-0.977417,2.476977,0.304676\H,0,3.147004,0.01209,-0.382917\H
 ,0,1.980129,-1.286849,-0.108859\H,0,2.382441,-0.167736,1.199037\H,0,0.

 Normal termination of Gaussian 16 at Tue Apr  8 22:33:35 2025.
 Gaussian 16:  ES64L-G16RevC.01  3-Jul-2019

 ----------------------------------------------------------------------
 #t hf aug-cc-pvdz iop(5/13=1,5/36=2,99/5=2) pseudo=read geom=check gue
 ss=(read,tcheck) scf=(maxcycle=1)
 ----------------------------------------------------------------------
 -----
 title
 -----
 Structure from the checkpoint file:  "BDE49_expt_1035_mol1.chk"
 Charge =  0 Multiplicity = 1

                         Standard orientation:
 ---------------------------------------------------------------------
 Center     Atomic      Atomic             Coordinates (Angstroms)
 Number     Number       Type             X           Y           Z
 ---------------------------------------------------------------------
      1          6           0        2.212080   -0.245316    0.120821
      2          6           0        1.085249    0.685832   -0.328807
      3          6           0       -0.257978    0.452403    0.356872
      4          6           0       -1.314989    1.483237   -0.007446
      5          1           0       -0.126495    0.404383    1.439149
      6         17           0       -0.900654   -1.224084   -0.069082
      7          1           0       -2.262498    1.270470    0.489200
      8          1           0       -1.486524    1.500442   -1.086129
      9          1           0       -0.977417    2.476977    0.304676
     10          1           0        3.147004    0.012091   -0.382917
     11          1           0        1.980129   -1.286848   -0.108859
     12          1           0        2.382441   -0.167735    1.199037
     13          1           0        0.943174    0.617054   -1.412214
     14          1           0        1.365141    1.725653   -0.116193
 ---------------------------------------------------------------------

 SCF Done:  E(RHF) =  -617.318278190     A.U. after    2 cycles

 The electronic state is 1-A.
 Alpha  occ. eigenvalues --  -99.86367 -11.46269 -11.41181 -11.38435 -11.36129
 Alpha  occ. eigenvalues --  -10.43618  -9.63561  -9.62958  -9.62794  -1.34328
 Alpha  occ. eigenvalues --   -1.18564  -1.08242  -0.93362  -0.83648  -0.67268
 Alpha  occ. eigenvalues --   -0.62107  -0.60914  -0.58522  -0.53891  -0.52046
 Alpha  occ. eigenvalues --   -0.49753  -0.48757  -0.47872  -0.45114  -0.43256
 Alpha virt. eigenvalues --    0.03819   0.05010   0.05525   0.06062   0.06323
 Alpha virt. eigenvalues --    0.06640   0.06819   0.07343   0.08718   0.09584
 Alpha virt. eigenvalues --    0.10998   0.12476   0.13719   0.14262   0.15720

 Mulliken charges:
               1
     1  C   -3.638178
     2  C   -2.695323
     3  C   -2.306951
     4  C   -3.572047
     5  H    1.825008
     6  Cl  -0.019159
     7  H    1.190028
     8  H    1.291045
     9  H    1.289787
    10  H    1.115658
    11  H    1.350016
    12  H    1.226129
    13  H    1.460726
    14  H    1.483261
 Sum of Mulliken charges =  -0.00000

 Dipole moment (field-independent basis, Debye):
    X=              1.0610    Y=              2.4636    Z=              0.4459  Tot=              2.7191

 Test job not archived.
 1\1\GINC-SE461\SP\RHF\Aug-CC-pVDZ\C4H9Cl1\OHZDE\08-Apr-2025\0\\#t hf a
 ug-cc-pvdz iop(5/13=1,5/36=2,99/5=2) pseudo=read geom=check guess=(rea
 d,tcheck) scf=(maxcycle=1)\\title\\0,1\C,0,2.21208,-0.245317,0.120821\
 C,0,1.085249,0.685832,-0.328807\C,0,-0.257978,0.452403,0.356872\C,0,-1
 .314989,1.483237,-0.007446\H,0,-0.126495,0.404383,1.439149\Cl,0,-0.900
 654,-1.224084,-0.069082\H,0,-2.262498,1.27047,0.4892\H,0,-1.486524,1.5
 00442,-1.086129\H,0,-0.977417,2.476977,0.304676\H,0,3.147004,0.01209,-
 0.382917\H,0,1.980129,-1.286849,-0.108859\H,0,2.382441,-0.167736,1.199

 Normal termination of Gaussian 16 at Tue Apr  8 22:33:39 2025.
