 Gaussian 16, Revision C.01,

 ----------------------------------------------------------------------
 #t hf aug-cc-pvdz symm=none int=(grid=ultrafine) guess=(read,tcheck) s
 table=(opt,rrhf)
 ----------------------------------------------------------------------
 -----
 title
 -----
 Symbolic Z-matrix:
 Charge =  0 Multiplicity = 1

 SCF Done:  E(RHF) =  -1078.58958286     A.U. after   13 cycles
 Normal termination of Gaussian 16 at Tue Apr  8 23:44:24 2025.
 Gaussian 16:  ES64L-G16RevC.01  3-Jul-2019

 ----------------------------------------------------------------------
 #t hf aug-cc-pvdz iop(5/13=1,5/36=2,99/5=2) pseudo=read geom=check gue
 ss=(read,tcheck) scf=(maxcycle=1)
 ----------------------------------------------------------------------
 -----
 title
 -----
 Structure from the checkpoint file:  "BDE49_nonexpt_1713_mol1.chk"
 Charge =  0 Multiplicity = 1

                         Standard orientation:
 ---------------------------------------------------------------------
 Center     Atomic      Atomic             Coordinates (Angstroms)
 Number     Number       Type             X           Y           Z
 ---------------------------------------------------------------------
      1         16           0        0.716688   -1.123682   -0.050560
      2         15           0       -0.913193    0.214329   -0.045124
      3          8           0       -0.632189    1.571813   -0.529888
      4          8           0       -1.543148    0.137623    1.419455
      5          8           0        1.908029   -0.144339    0.622036
      6          6           0        2.598855    0.706150   -0.317177
      7          1           0        3.371998    1.202255    0.270714
      8          1           0        1.915236    1.444106   -0.739719
      9          1           0        3.060700    0.113043   -1.111546
     10          1           0       -1.846507    1.005445    1.716347
     11          8           0       -1.979751   -0.654930   -0.876484
     12          1           0       -1.887188   -0.519126   -1.827873
 ---------------------------------------------------------------------

 SCF Done:  E(RHF) =  -1080.45427070     A.U. after    2 cycles

 The electronic state is 1-A.
 Alpha  occ. eigenvalues -- -105.32802 -75.74645 -21.13357 -21.12793 -21.08771
 Alpha  occ. eigenvalues --  -21.03995 -13.22255 -13.13621 -13.09930 -11.41243
 Alpha  occ. eigenvalues --   -8.08515  -2.95279  -1.99881  -1.91959  -1.81031
 Alpha  occ. eigenvalues --   -1.76894  -1.54017  -1.41513  -1.27736  -1.06622
 Alpha  occ. eigenvalues --   -0.93835  -0.70798  -0.62368  -0.61962  -0.60720
 Alpha  occ. eigenvalues --   -0.56813  -0.53372  -0.46329  -0.43348  -0.41045
 Alpha  occ. eigenvalues --   -0.40250  -0.35731  -0.35194  -0.30043  -0.27253
 Alpha  occ. eigenvalues --   -0.21622  -0.14708
 Alpha virt. eigenvalues --    0.03388   0.04592   0.05571   0.06226   0.07707
 Alpha virt. eigenvalues --    0.08902   0.10376   0.11172   0.11836   0.13019
 Alpha virt. eigenvalues --    0.13818   0.14159   0.15508   0.16050   0.17452

 Mulliken charges:
               1
     1  S   -0.642378
     2  P    7.947366
     3  O   -2.891816
     4  O   -2.492428
     5  O   -2.240015
     6  C   -2.697955
     7  H    1.181868
     8  H    1.460962
     9  H    1.351696
    10  H    0.759670
    11  O   -2.550772
    12  H    0.813803
 Sum of Mulliken charges =  -0.00000

 Dipole moment (field-independent basis, Debye):
    X=             -1.5648    Y=             -1.0288    Z=              0.5775  Tot=              1.9597

 Test job not archived.
 1\1\GINC-SE329\SP\RHF\Aug-CC-pVDZ\C1H5O4P1S1\OHZDE\08-Apr-2025\0\\#t h
 f aug-cc-pvdz iop(5/13=1,5/36=2,99/5=2) pseudo=read geom=check guess=(
 read,tcheck) scf=(maxcycle=1)\\title\\0,1\S,0,0.716688,-1.123682,-0.05
 056\P,0,-0.913193,0.214329,-0.045124\O,0,-0.632189,1.571813,-0.529888\
 O,0,-1.543148,0.137623,1.419455\O,0,1.908029,-0.144339,0.622036\C,0,2.
 598855,0.70615,-0.317177\H,0,3.371998,1.202255,0.270714\H,0,1.915236,1
 .444106,-0.739719\H,0,3.0607,0.113043,-1.111546\H,0,-1.846507,1.005445
 ,1.716347\O,0,-1.979751,-0.65493,-0.876484\H,0,-1.887188,-0.519126,-1.

 Normal termination of Gaussian 16 at Tue Apr  8 23:44:29 2025.
