 Gaussian 16, Revision C.01,

 ----------------------------------------------------------------------
 #t hf aug-cc-pvdz symm=none int=(grid=ultrafine) guess=(read,tcheck) s
 table=(opt,rrhf)
 ----------------------------------------------------------------------
 -----
 title
 -----
 Symbolic Z-matrix:
 Charge =  0 Multiplicity = 1

 SCF Done:  E(RHF) =  -950.245732489     A.U. after   15 cycles
 Normal termination of Gaussian 16 at Tue Apr  8 23:43:36 2025.
 Gaussian 16:  ES64L-G16RevC.01  3-Jul-2019

 ----------------------------------------------------------------------
 #t hf aug-cc-pvdz iop(5/13=1,5/36=2,99/5=2) pseudo=read geom=check gue
 ss=(read,tcheck) scf=(maxcycle=1)
 ----------------------------------------------------------------------
 -----
 title
 -----
 Structure from the checkpoint file:  "BDE49_nonexpt_1686_mol1.chk"
 Charge =  0 Multiplicity = 1

                         Standard orientation:
 ---------------------------------------------------------------------
 Center     Atomic      Atomic             Coordinates (Angstroms)
 Number     Number       Type             X           Y           Z
 ---------------------------------------------------------------------
      1          6           0       -2.208510    0.089422    0.260245
      2         15           0       -0.863585    1.294045   -0.158864
      3         14           0        0.908092   -0.147065   -0.003672
      4          7           0        2.268714    0.680389   -0.608957
      5          8           0       -2.293816   -1.035593   -0.187572
      6          1           0       -3.014571    0.493266    0.907186
      7          8           0        1.246409   -0.640217    1.527486
      8          1           0        2.222310    1.118614   -1.518464
      9          1           0        3.190766    0.301807   -0.437161
     10          1           0       -0.836566    1.948132    1.095859
     11          1           0        1.581159    0.016874    2.142575
     12          8           0        0.421133   -1.433725   -0.873400
     13          1           0       -0.522355   -1.653421   -0.786515
 ---------------------------------------------------------------------

 SCF Done:  E(RHF) =  -951.934130950     A.U. after    2 cycles

 The electronic state is 1-A.
 Alpha  occ. eigenvalues -- -105.18034 -76.26024 -21.08366 -21.08227 -21.06192
 Alpha  occ. eigenvalues --  -15.74295 -11.48826  -5.60881  -2.75985  -2.28476
 Alpha  occ. eigenvalues --   -2.27000  -2.21924  -1.73173  -1.68545  -1.63604
 Alpha  occ. eigenvalues --   -1.47851  -1.46726  -1.43600  -1.26497  -0.88782
 Alpha  occ. eigenvalues --   -0.74698  -0.70370  -0.66325  -0.60831  -0.58659
 Alpha  occ. eigenvalues --   -0.55924  -0.48033  -0.45158  -0.44636  -0.41421
 Alpha  occ. eigenvalues --   -0.40322  -0.39631  -0.38242  -0.22681  -0.13145
 Alpha  occ. eigenvalues --   -0.02978
 Alpha virt. eigenvalues --    0.03623   0.04700   0.05729   0.06409   0.07084
 Alpha virt. eigenvalues --    0.07981   0.08937   0.09206   0.09340   0.10274
 Alpha virt. eigenvalues --    0.10398   0.11657   0.12180   0.13475   0.14825

 Mulliken charges:
               1
     1  C   -0.882982
     2  P    1.883726
     3  Si   5.624543
     4  N   -2.322516
     5  O   -2.491020
     6  H    1.437224
     7  O   -2.820225
     8  H    0.663887
     9  H    0.576410
    10  H   -0.784624
    11  H    0.833226
    12  O   -3.258568
    13  H    1.540918
 Sum of Mulliken charges =  -0.00000

 Dipole moment (field-independent basis, Debye):
    X=              1.9996    Y=              2.4734    Z=             -2.7984  Tot=              4.2365

 Test job not archived.
 1\1\GINC-SE284\SP\RHF\Aug-CC-pVDZ\C1H6N1O3P1Si1\OHZDE\08-Apr-2025\0\\#
 t hf aug-cc-pvdz iop(5/13=1,5/36=2,99/5=2) pseudo=read geom=check gues
 s=(read,tcheck) scf=(maxcycle=1)\\title\\0,1\C,0,-2.20851,0.089422,0.2
 60245\P,0,-0.863585,1.294045,-0.158864\Si,0,0.908092,-0.147065,-0.0036
 72\N,0,2.268714,0.680389,-0.608957\O,0,-2.293816,-1.035593,-0.187572\H
 ,0,-3.014571,0.493267,0.907186\O,0,1.246409,-0.640217,1.527486\H,0,2.2
 2231,1.118614,-1.518464\H,0,3.190766,0.301807,-0.437161\H,0,-0.836566,
 1.948132,1.095859\H,0,1.581159,0.016874,2.142575\O,0,0.421133,-1.43372

 Normal termination of Gaussian 16 at Tue Apr  8 23:43:41 2025.
