 Gaussian 16, Revision C.01,

 ----------------------------------------------------------------------
 #t hf aug-cc-pvdz symm=none int=(grid=ultrafine) guess=(read,tcheck) s
 table=(opt,rrhf)
 ----------------------------------------------------------------------
 -----
 title
 -----
 Symbolic Z-matrix:
 Charge =  0 Multiplicity = 1

 SCF Done:  E(RHF) =  -588.622575557     A.U. after   12 cycles
 Normal termination of Gaussian 16 at Tue Apr  8 22:35:36 2025.
 Gaussian 16:  ES64L-G16RevC.01  3-Jul-2019

 ----------------------------------------------------------------------
 #t hf aug-cc-pvdz iop(5/13=1,5/36=2,99/5=2) pseudo=read geom=check gue
 ss=(read,tcheck) scf=(maxcycle=1)
 ----------------------------------------------------------------------
 -----
 title
 -----
 Structure from the checkpoint file:  "BDE49_expt_1054_mol1.chk"
 Charge =  0 Multiplicity = 1

                         Standard orientation:
 ---------------------------------------------------------------------
 Center     Atomic      Atomic             Coordinates (Angstroms)
 Number     Number       Type             X           Y           Z
 ---------------------------------------------------------------------
      1          6           0        1.203650   -0.077271   -0.843476
      2          8           0        1.760499   -1.268078   -0.340331
      3          1           0        1.053770   -1.908387   -0.208945
      4          6           0        0.218383    0.589949    0.114326
      5          1           0        0.692198   -0.211636   -1.804719
      6          1           0        2.023532    0.628499   -0.985675
      7          6           0       -1.129480   -0.119327    0.294621
      8          9           0       -0.067312    1.845295   -0.358702
      9          9           0        0.763496    0.732208    1.355669
     10          9           0       -0.912941   -1.403715    0.719884
     11          9           0       -1.765842   -0.186687   -0.904630
     12          1           0       -1.765413    0.392138    1.019170
 ---------------------------------------------------------------------

 SCF Done:  E(RHF) =  -590.812879839     A.U. after    2 cycles

 The electronic state is 1-A.
 Alpha  occ. eigenvalues --  -29.31575 -29.31435 -29.30588 -29.30315 -21.09328
 Alpha  occ. eigenvalues --  -11.58576 -11.55040 -11.45153  -1.74090  -1.42953
 Alpha  occ. eigenvalues --   -1.21970  -1.00555  -0.89561  -0.81508  -0.77918
 Alpha  occ. eigenvalues --   -0.76639  -0.66306  -0.64962  -0.57301  -0.49578
 Alpha  occ. eigenvalues --   -0.47078  -0.45935  -0.41863  -0.39267  -0.37441
 Alpha  occ. eigenvalues --   -0.36471  -0.33414  -0.32796  -0.30844  -0.30165
 Alpha  occ. eigenvalues --   -0.25912  -0.23806  -0.21667
 Alpha virt. eigenvalues --    0.04745   0.05208   0.06160   0.06809   0.09815
 Alpha virt. eigenvalues --    0.10746   0.11649   0.12369   0.14020   0.14142
 Alpha virt. eigenvalues --    0.15086   0.15652   0.17562   0.18865   0.20975

 Mulliken charges:
               1
     1  C   -1.884264
     2  O   -2.495956
     3  H    0.780310
     4  C    0.241693
     5  H    1.259687
     6  H    1.228833
     7  C   -1.777099
     8  F    0.229241
     9  F    0.276520
    10  F    0.343638
    11  F    0.292611
    12  H    1.504786
 Sum of Mulliken charges =  -0.00000

 Dipole moment (field-independent basis, Debye):
    X=             -0.8589    Y=             -0.0162    Z=              0.0200  Tot=              0.8593

 Test job not archived.
 1\1\GINC-SE460\SP\RHF\Aug-CC-pVDZ\C3H4F4O1\OHZDE\08-Apr-2025\0\\#t hf
 aug-cc-pvdz iop(5/13=1,5/36=2,99/5=2) pseudo=read geom=check guess=(re
 ad,tcheck) scf=(maxcycle=1)\\title\\0,1\C,0,1.20365,-0.077272,-0.84347
 6\O,0,1.760499,-1.268079,-0.340331\H,0,1.053769,-1.908387,-0.208945\C,
 0,0.218383,0.589949,0.114326\H,0,0.692198,-0.211636,-1.804719\H,0,2.02
 3532,0.628498,-0.985675\C,0,-1.12948,-0.119327,0.294621\F,0,-0.067311,
 1.845295,-0.358702\F,0,0.763496,0.732208,1.355669\F,0,-0.912942,-1.403
 715,0.719884\F,0,-1.765842,-0.186686,-0.90463\H,0,-1.765413,0.392139,1

 Normal termination of Gaussian 16 at Tue Apr  8 22:35:41 2025.
