 Gaussian 16, Revision C.01,

 ----------------------------------------------------------------------
 #t hf aug-cc-pvdz symm=none int=(grid=ultrafine) guess=(read,tcheck) s
 table=(opt,rrhf)
 ----------------------------------------------------------------------
 -----
 title
 -----
 Symbolic Z-matrix:
 Charge =  0 Multiplicity = 1

 SCF Done:  E(RHF) =  -1155.48369080     A.U. after   14 cycles
 Normal termination of Gaussian 16 at Tue Apr  8 23:44:09 2025.
 Gaussian 16:  ES64L-G16RevC.01  3-Jul-2019

 ----------------------------------------------------------------------
 #t hf aug-cc-pvdz iop(5/13=1,5/36=2,99/5=2) pseudo=read geom=check gue
 ss=(read,tcheck) scf=(maxcycle=1)
 ----------------------------------------------------------------------
 -----
 title
 -----
 Structure from the checkpoint file:  "BDE49_nonexpt_1699_mol1.chk"
 Charge =  0 Multiplicity = 1

                         Standard orientation:
 ---------------------------------------------------------------------
 Center     Atomic      Atomic             Coordinates (Angstroms)
 Number     Number       Type             X           Y           Z
 ---------------------------------------------------------------------
      1         16           0        0.137965   -1.265061   -0.631724
      2         15           0        1.370755    0.230656    0.270879
      3          8           0        1.102837    0.416547    1.696784
      4          8           0        1.319042    1.524131   -0.662151
      5          8           0       -1.301850   -0.968075    0.224957
      6          6           0       -2.113454    0.097414   -0.128822
      7          6           0       -1.947192    0.892140   -1.188318
      8          6           0       -3.206594    0.207967    0.889074
      9          1           0       -3.881076    1.028160    0.644622
     10          1           0       -2.777652    0.372539    1.880863
     11          1           0       -3.777311   -0.723914    0.928331
     12          1           0       -1.168763    0.725347   -1.920443
     13          1           0       -2.658213    1.685452   -1.371245
     14          1           0        0.445115    1.940515   -0.635031
     15          8           0        2.811354   -0.291589   -0.183247
     16          1           0        3.201500   -0.880211    0.474954
 ---------------------------------------------------------------------

 SCF Done:  E(RHF) =  -1157.72768126     A.U. after    2 cycles

 The electronic state is 1-A.
 Alpha  occ. eigenvalues -- -105.33205 -75.75454 -21.13797 -21.12882 -21.10941
 Alpha  occ. eigenvalues --  -21.04078 -13.23175 -13.14745 -13.13369 -11.48360
 Alpha  occ. eigenvalues --  -11.39889 -11.38367  -8.09189  -2.95601  -2.01565
 Alpha  occ. eigenvalues --   -1.91819  -1.81077  -1.79921  -1.54172  -1.41700
 Alpha  occ. eigenvalues --   -1.27134  -1.19043  -1.03912  -1.01833  -0.77358
 Alpha  occ. eigenvalues --   -0.70314  -0.65479  -0.62232  -0.60619  -0.59661
 Alpha  occ. eigenvalues --   -0.57478  -0.53345  -0.50159  -0.49767  -0.46341
 Alpha  occ. eigenvalues --   -0.44750  -0.40951  -0.35903  -0.35404  -0.34099
 Alpha  occ. eigenvalues --   -0.29385  -0.27153  -0.21686  -0.15661
 Alpha virt. eigenvalues --    0.03204   0.04509   0.05251   0.05740   0.06580
 Alpha virt. eigenvalues --    0.07122   0.07857   0.08401   0.09805   0.11048
 Alpha virt. eigenvalues --    0.12243   0.12332   0.12653   0.13306   0.14072

 Mulliken charges:
               1
     1  S   -0.928601
     2  P    8.288724
     3  O   -2.940179
     4  O   -3.176456
     5  O   -3.379892
     6  C    3.953247
     7  C   -4.359773
     8  C   -4.073248
     9  H    1.276639
    10  H    1.273581
    11  H    1.229048
    12  H    2.069386
    13  H    1.415409
    14  H    1.105802
    15  O   -2.628208
    16  H    0.874519
 Sum of Mulliken charges =  -0.00000

 Dipole moment (field-independent basis, Debye):
    X=              1.0385    Y=             -0.1046    Z=             -1.4275  Tot=              1.7683

 Test job not archived.
 1\1\GINC-SE070\SP\RHF\Aug-CC-pVDZ\C3H7O4P1S1\OHZDE\08-Apr-2025\0\\#t h
 f aug-cc-pvdz iop(5/13=1,5/36=2,99/5=2) pseudo=read geom=check guess=(
 read,tcheck) scf=(maxcycle=1)\\title\\0,1\S,0,-0.137965,1.265061,-0.63
 1724\P,0,-1.370755,-0.230656,0.270879\O,0,-1.102837,-0.416547,1.696784
 \O,0,-1.319042,-1.524131,-0.662151\O,0,1.30185,0.968075,0.224957\C,0,2
 .113454,-0.097414,-0.128822\C,0,1.947192,-0.89214,-1.188318\C,0,3.2065
 94,-0.207967,0.889074\H,0,3.881076,-1.02816,0.644622\H,0,2.777652,-0.3
 72539,1.880863\H,0,3.777311,0.723914,0.928331\H,0,1.168763,-0.725347,-

 Normal termination of Gaussian 16 at Tue Apr  8 23:44:16 2025.
