 Gaussian 16, Revision C.01,

 ----------------------------------------------------------------------
 #t hf aug-cc-pvdz symm=none int=(grid=ultrafine) guess=(read,tcheck) s
 table=(opt,rrhf)
 ----------------------------------------------------------------------
 -----
 title
 -----
 Symbolic Z-matrix:
 Charge =  0 Multiplicity = 1

 SCF Done:  E(RHF) =  -752.351361033     A.U. after   13 cycles
 Normal termination of Gaussian 16 at Wed Apr  9 00:25:10 2025.
 Gaussian 16:  ES64L-G16RevC.01  3-Jul-2019

 ----------------------------------------------------------------------
 #t hf aug-cc-pvdz iop(5/13=1,5/36=2,99/5=2) pseudo=read geom=check gue
 ss=(read,tcheck) scf=(maxcycle=1)
 ----------------------------------------------------------------------
 -----
 title
 -----
 Structure from the checkpoint file:  "BDE49_nonexpt_270_mol1.chk"
 Charge =  0 Multiplicity = 1

                         Standard orientation:
 ---------------------------------------------------------------------
 Center     Atomic      Atomic             Coordinates (Angstroms)
 Number     Number       Type             X           Y           Z
 ---------------------------------------------------------------------
      1          6           0        0.263638    0.455910    0.000007
      2          5           0       -1.138918   -0.314333    0.000014
      3          8           0       -2.247739    0.479614   -0.000018
      4          6           0        0.443853    1.296741    1.265607
      5          1           0        0.389345    0.685305    2.168367
      6          1           0       -0.355952    2.041417    1.309560
      7          6           0        0.443834    1.296754   -1.265589
      8         17           0        1.625460   -0.834311   -0.000010
      9          1           0       -0.355971    2.041430   -1.309523
     10          1           0        0.389313    0.685326   -2.168354
     11          1           0        1.405937    1.815091   -1.256983
     12          1           0        1.405956    1.815078    1.256991
     13          1           0       -3.061784   -0.035889   -0.000029
     14          8           0       -1.281894   -1.664267    0.000006
     15          1           0       -0.425954   -2.112020    0.000014
 ---------------------------------------------------------------------

 SCF Done:  E(RHF) =  -753.931088990     A.U. after    2 cycles

 The electronic state is 1-A.
 Alpha  occ. eigenvalues --  -99.87159 -21.06406 -21.06091 -11.44569 -11.40285
 Alpha  occ. eigenvalues --  -11.37379 -10.44379  -9.64351  -9.63849  -9.63646
 Alpha  occ. eigenvalues --   -7.64665  -1.82845  -1.66548  -1.33987  -1.16849
 Alpha  occ. eigenvalues --   -1.02458  -0.88346  -0.74663  -0.68138  -0.64529
 Alpha  occ. eigenvalues --   -0.60453  -0.59792  -0.56096  -0.55474  -0.51220
 Alpha  occ. eigenvalues --   -0.51010  -0.48218  -0.47761  -0.44797  -0.43057
 Alpha  occ. eigenvalues --   -0.37134  -0.36695
 Alpha virt. eigenvalues --    0.03329   0.04693   0.05123   0.05362   0.06469
 Alpha virt. eigenvalues --    0.06920   0.07262   0.07320   0.07806   0.08141
 Alpha virt. eigenvalues --    0.09048   0.10082   0.10925   0.12884   0.14311

 Mulliken charges:
               1
     1  C   -1.843274
     2  B    8.891188
     3  O   -4.541322
     4  C   -3.695546
     5  H    1.059526
     6  H    1.324256
     7  C   -3.695532
     8  Cl  -0.115698
     9  H    1.324263
    10  H    1.059501
    11  H    1.182279
    12  H    1.182281
    13  H    1.159013
    14  O   -4.464262
    15  H    1.173328
 Sum of Mulliken charges =  -0.00000

 Dipole moment (field-independent basis, Debye):
    X=             -1.6765    Y=              1.4565    Z=              0.0000  Tot=              2.2209

 Test job not archived.
 1\1\GINC-SE343\SP\RHF\Aug-CC-pVDZ\C3H8B1Cl1O2\OHZDE\09-Apr-2025\0\\#t
 hf aug-cc-pvdz iop(5/13=1,5/36=2,99/5=2) pseudo=read geom=check guess=
 (read,tcheck) scf=(maxcycle=1)\\title\\0,1\C,0,0.263638,0.45591,0.0000
 07\B,0,-1.138918,-0.314333,0.000014\O,0,-2.247739,0.479614,-0.000018\C
 ,0,0.443853,1.296741,1.265607\H,0,0.389345,0.685305,2.168367\H,0,-0.35
 5952,2.041417,1.30956\C,0,0.443834,1.296754,-1.265589\Cl,0,1.62546,-0.
 834311,-0.00001\H,0,-0.355971,2.04143,-1.309523\H,0,0.389313,0.685326,
 -2.168354\H,0,1.405937,1.815091,-1.256983\H,0,1.405956,1.815078,1.2569

 Normal termination of Gaussian 16 at Wed Apr  9 00:25:16 2025.
