 Gaussian 16, Revision C.01,

 ----------------------------------------------------------------------
 #t hf aug-cc-pvdz symm=none int=(grid=ultrafine) guess=(read,tcheck) s
 table=(opt,rrhf)
 ----------------------------------------------------------------------
 -----
 title
 -----
 Symbolic Z-matrix:
 Charge =  0 Multiplicity = 1

 SCF Done:  E(RHF) =  -120.559907027     A.U. after   11 cycles
 Normal termination of Gaussian 16 at Wed Apr  9 00:28:56 2025.
 Gaussian 16:  ES64L-G16RevC.01  3-Jul-2019

 ----------------------------------------------------------------------
 #t hf aug-cc-pvdz iop(5/13=1,5/36=2,99/5=2) pseudo=read geom=check gue
 ss=(read,tcheck) scf=(maxcycle=1)
 ----------------------------------------------------------------------
 -----
 title
 -----
 Structure from the checkpoint file:  "BDE49_nonexpt_311_mol1.chk"
 Charge =  0 Multiplicity = 1

                         Standard orientation:
 ---------------------------------------------------------------------
 Center     Atomic      Atomic             Coordinates (Angstroms)
 Number     Number       Type             X           Y           Z
 ---------------------------------------------------------------------
      1          6           0        1.324730   -0.164904    0.000001
      2          5           0       -0.089315    0.528516   -0.000006
      3          1           0        1.908055    0.152258   -0.872735
      4          1           0        1.289110   -1.259605    0.000000
      5          7           0       -1.275687   -0.204323    0.000000
      6          1           0       -1.300103   -1.213436    0.000001
      7          1           0       -2.188510    0.222885    0.000007
      8          1           0        1.908047    0.152256    0.872744
      9          1           0       -0.188590    1.722746    0.000007
 ---------------------------------------------------------------------

 SCF Done:  E(RHF) =  -121.163102001     A.U. after    2 cycles

 The electronic state is 1-A.
 Alpha  occ. eigenvalues --  -15.72072 -11.32048  -7.58074  -1.32194  -1.04320
 Alpha  occ. eigenvalues --   -0.76389  -0.67070  -0.56436  -0.53577  -0.46869
 Alpha  occ. eigenvalues --   -0.41386  -0.40200
 Alpha virt. eigenvalues --    0.03415   0.03754   0.04092   0.04653   0.08175
 Alpha virt. eigenvalues --    0.08556   0.09060   0.09477   0.10997   0.12306
 Alpha virt. eigenvalues --    0.16600   0.17074   0.17259   0.17555   0.17969

 Mulliken charges:
               1
     1  C   -5.572863
     2  B    6.851752
     3  H    1.288282
     4  H    1.096612
     5  N   -2.835786
     6  H    0.720277
     7  H    0.831070
     8  H    1.288282
     9  H   -3.667626
 Sum of Mulliken charges =   0.00000

 Dipole moment (field-independent basis, Debye):
    X=             -0.9916    Y=             -0.9370    Z=             -0.0000  Tot=              1.3643

 Test job not archived.
 1\1\GINC-SE049\SP\RHF\Aug-CC-pVDZ\C1H6B1N1\OHZDE\09-Apr-2025\0\\#t hf
 aug-cc-pvdz iop(5/13=1,5/36=2,99/5=2) pseudo=read geom=check guess=(re
 ad,tcheck) scf=(maxcycle=1)\\title\\0,1\C,0,-1.32473,-0.164904,-0.0000
 01\B,0,0.089315,0.528516,0.000006\H,0,-1.908055,0.152258,0.872735\H,0,
 -1.28911,-1.259605,0.\N,0,1.275687,-0.204323,0.\H,0,1.300103,-1.213436
 ,-0.000001\H,0,2.18851,0.222885,-0.000007\H,0,-1.908047,0.152256,-0.87
 2744\H,0,0.18859,1.722746,-0.000007\\Version=ES64L-G16RevC.01\State=1-
 A\HF=-121.163102\RMSD=1.379e-01\Dipole=0.3901125,-0.368654,0.0000006\Q

 Normal termination of Gaussian 16 at Wed Apr  9 00:28:58 2025.
