 Gaussian 16, Revision C.01,

 ----------------------------------------------------------------------
 #t hf aug-cc-pvdz symm=none int=(grid=ultrafine) guess=(read,tcheck) s
 table=(opt,rrhf)
 ----------------------------------------------------------------------
 -----
 title
 -----
 Symbolic Z-matrix:
 Charge =  0 Multiplicity = 1

 SCF Done:  E(RHF) =  -165.599909771     A.U. after   13 cycles
 Normal termination of Gaussian 16 at Wed Apr  9 00:35:19 2025.
 Gaussian 16:  ES64L-G16RevC.01  3-Jul-2019

 ----------------------------------------------------------------------
 #t hf aug-cc-pvdz iop(5/13=1,5/36=2,99/5=2) pseudo=read geom=check gue
 ss=(read,tcheck) scf=(maxcycle=1)
 ----------------------------------------------------------------------
 -----
 title
 -----
 Structure from the checkpoint file:  "BDE49_nonexpt_45_mol1.chk"
 Charge =  0 Multiplicity = 1

                         Standard orientation:
 ---------------------------------------------------------------------
 Center     Atomic      Atomic             Coordinates (Angstroms)
 Number     Number       Type             X           Y           Z
 ---------------------------------------------------------------------
      1          5           0        0.634008    0.426064   -0.000151
      2          5           0        2.221313   -0.102631    0.000043
      3          8           0       -0.419529   -0.417103   -0.000065
      4          6           0       -1.774580    0.035130    0.000066
      5          1           0       -2.273844   -0.357182    0.888317
      6          1           0       -2.274004   -0.357164   -0.888102
      7          1           0       -1.823479    1.127944    0.000081
      8          1           0        2.838465   -0.261777    1.012575
      9          1           0        2.838675   -0.261797   -1.012357
     10          1           0        0.421296    1.618853    0.000147
 ---------------------------------------------------------------------

 SCF Done:  E(RHF) =  -166.353157201     A.U. after    2 cycles

 The electronic state is 1-A.
 Alpha  occ. eigenvalues --  -21.03362 -11.41085  -7.60033  -7.59013  -1.76844
 Alpha  occ. eigenvalues --   -1.01577  -0.87200  -0.71336  -0.61158  -0.60154
 Alpha  occ. eigenvalues --   -0.54661  -0.47687  -0.41662  -0.38399  -0.34658
 Alpha virt. eigenvalues --    0.02388   0.02789   0.03127   0.04315   0.06930
 Alpha virt. eigenvalues --    0.07030   0.07706   0.08595   0.09542   0.10204
 Alpha virt. eigenvalues --    0.10996   0.12086   0.13388   0.13840   0.14636

 Mulliken charges:
               1
     1  B    5.485363
     2  B    3.655144
     3  O   -3.607001
     4  C   -2.158863
     5  H    1.249926
     6  H    1.249937
     7  H    1.578165
     8  H   -2.315066
     9  H   -2.314976
    10  H   -2.822629
 Sum of Mulliken charges =  -0.00000

 Dipole moment (field-independent basis, Debye):
    X=             -1.4433    Y=             -0.1098    Z=             -0.0000  Tot=              1.4475

 Test job not archived.
 1\1\GINC-SE186\SP\RHF\Aug-CC-pVDZ\C1H6B2O1\OHZDE\09-Apr-2025\0\\#t hf
 aug-cc-pvdz iop(5/13=1,5/36=2,99/5=2) pseudo=read geom=check guess=(re
 ad,tcheck) scf=(maxcycle=1)\\title\\0,1\B,0,-0.634008,0.426064,0.00015
 1\B,0,-2.221313,-0.102631,-0.000043\O,0,0.419529,-0.417103,0.000065\C,
 0,1.77458,0.03513,-0.000066\H,0,2.273844,-0.357182,-0.888317\H,0,2.274
 004,-0.357164,0.888102\H,0,1.823479,1.127944,-0.000081\H,0,-2.838465,-
 0.261777,-1.012575\H,0,-2.838675,-0.261797,1.012357\H,0,-0.421296,1.61
 8853,-0.000147\\Version=ES64L-G16RevC.01\State=1-A\HF=-166.3531572\RMS

 Normal termination of Gaussian 16 at Wed Apr  9 00:35:22 2025.
