 Gaussian 16, Revision C.01,

 ----------------------------------------------------------------------
 #t hf aug-cc-pvdz symm=none int=(grid=ultrafine) guess=(read,tcheck) s
 table=(opt,rrhf)
 ----------------------------------------------------------------------
 -----
 title
 -----
 Symbolic Z-matrix:
 Charge =  0 Multiplicity = 1

 SCF Done:  E(RHF) =  -406.765914591     A.U. after   13 cycles
 Normal termination of Gaussian 16 at Wed Apr  9 00:43:21 2025.
 Gaussian 16:  ES64L-G16RevC.01  3-Jul-2019

 ----------------------------------------------------------------------
 #t hf aug-cc-pvdz iop(5/13=1,5/36=2,99/5=2) pseudo=read geom=check gue
 ss=(read,tcheck) scf=(maxcycle=1)
 ----------------------------------------------------------------------
 -----
 title
 -----
 Structure from the checkpoint file:  "BDE49_nonexpt_725_mol1.chk"
 Charge =  0 Multiplicity = 1

                         Standard orientation:
 ---------------------------------------------------------------------
 Center     Atomic      Atomic             Coordinates (Angstroms)
 Number     Number       Type             X           Y           Z
 ---------------------------------------------------------------------
      1          5           0        1.604469    0.568339    0.087038
      2         15           0        0.122457   -0.498973   -0.151444
      3          6           0       -1.469524    0.419088    0.082426
      4          1           0       -1.621642    0.733160    1.115006
      5          1           0       -2.308059   -0.203757   -0.232112
      6          1           0       -1.444115    1.304598   -0.555386
      7          1           0        2.625588    0.058851    0.422112
      8          1           0        1.579450    1.700636   -0.279676
      9          1           0        0.126726   -1.465113    0.871965
 ---------------------------------------------------------------------

 SCF Done:  E(RHF) =  -407.302504057     A.U. after    2 cycles

 The electronic state is 1-A.
 Alpha  occ. eigenvalues -- -105.15481 -11.37971  -7.61375  -2.74014  -1.52346
 Alpha  occ. eigenvalues --   -1.45819  -1.40081  -1.01982  -0.81784  -0.63518
 Alpha  occ. eigenvalues --   -0.56909  -0.56810  -0.49082  -0.23331  -0.13546
 Alpha  occ. eigenvalues --   -0.04151
 Alpha virt. eigenvalues --    0.03088   0.04185   0.04683   0.06356   0.07592
 Alpha virt. eigenvalues --    0.08142   0.08363   0.09260   0.10569   0.11783
 Alpha virt. eigenvalues --    0.13063   0.13287   0.15434   0.15799   0.17195

 Mulliken charges:
               1
     1  B    3.759330
     2  P    3.046287
     3  C   -5.604414
     4  H    1.196972
     5  H    1.285333
     6  H    1.342217
     7  H   -2.331079
     8  H   -1.984175
     9  H   -0.710471
 Sum of Mulliken charges =   0.00000

 Dipole moment (field-independent basis, Debye):
    X=             -6.1978    Y=             -4.6921    Z=             -3.6126  Tot=              8.5720

 Test job not archived.
 1\1\GINC-SE128\SP\RHF\Aug-CC-pVDZ\C1H6B1P1\OHZDE\09-Apr-2025\0\\#t hf
 aug-cc-pvdz iop(5/13=1,5/36=2,99/5=2) pseudo=read geom=check guess=(re
 ad,tcheck) scf=(maxcycle=1)\\title\\0,1\B,0,1.604469,0.568339,0.087038
 \P,0,0.122457,-0.498973,-0.151444\C,0,-1.469524,0.419088,0.082426\H,0,
 -1.621642,0.73316,1.115006\H,0,-2.308059,-0.203757,-0.232112\H,0,-1.44
 4115,1.304598,-0.555386\H,0,2.625588,0.058851,0.422112\H,0,1.57945,1.7
 00636,-0.279676\H,0,0.126726,-1.465113,0.871965\\Version=ES64L-G16RevC
 .01\State=1-A\HF=-407.3025041\RMSD=3.718e-01\Dipole=-2.4383834,-1.8460

 Normal termination of Gaussian 16 at Wed Apr  9 00:43:24 2025.
