 Gaussian 16, Revision C.01,

 ----------------------------------------------------------------------
 #t hf aug-cc-pvdz symm=none int=(grid=ultrafine) guess=(read,tcheck) s
 table=(opt,rrhf)
 ----------------------------------------------------------------------
 -----
 title
 -----
 Symbolic Z-matrix:
 Charge =  0 Multiplicity = 1

 SCF Done:  E(RHF) =  -1202.25663540     A.U. after   15 cycles
 Normal termination of Gaussian 16 at Tue Apr  8 23:54:44 2025.
 Gaussian 16:  ES64L-G16RevC.01  3-Jul-2019

 ----------------------------------------------------------------------
 #t hf aug-cc-pvdz iop(5/13=1,5/36=2,99/5=2) pseudo=read geom=check gue
 ss=(read,tcheck) scf=(maxcycle=1)
 ----------------------------------------------------------------------
 -----
 title
 -----
 Structure from the checkpoint file:  "BDE49_nonexpt_1948_mol1.chk"
 Charge =  0 Multiplicity = 1

                         Standard orientation:
 ---------------------------------------------------------------------
 Center     Atomic      Atomic             Coordinates (Angstroms)
 Number     Number       Type             X           Y           Z
 ---------------------------------------------------------------------
      1         14           0        2.525269   -0.356460   -0.447270
      2          6           0        1.192058   -0.233622    0.913214
      3          6           0       -0.140587    0.214292    0.383066
      4         16           0       -0.482953    1.776523    0.002971
      5         16           0       -1.242050   -1.136144    0.194537
      6          1           0        3.747624   -0.922220    0.170656
      7          1           0        2.818951    0.979683   -1.002397
      8          1           0        2.056393   -1.259207   -1.521790
      9          6           0       -2.720361   -0.400304   -0.549039
     10          1           0       -3.427312   -1.221512   -0.675034
     11          1           0       -2.477598    0.043219   -1.513730
     12          1           0       -3.135115    0.359813    0.111354
     13          1           0        1.550843    0.493541    1.645819
     14          1           0        1.125826   -1.211144    1.403323
 ---------------------------------------------------------------------

 SCF Done:  E(RHF) =  -1203.46302552     A.U. after    2 cycles

 The electronic state is 1-A.
 Alpha  occ. eigenvalues --  -76.22695 -75.71341 -75.65866 -13.15783 -13.13979
 Alpha  occ. eigenvalues --  -13.12865 -13.04779 -13.03002 -12.98341 -11.49597
 Alpha  occ. eigenvalues --  -11.40647 -11.39195  -8.05633  -8.00027  -5.56110
 Alpha  occ. eigenvalues --   -2.19646  -2.18407  -2.18345  -1.31603  -1.14898
 Alpha  occ. eigenvalues --   -1.04844  -0.97158  -0.78223  -0.72631  -0.63289
 Alpha  occ. eigenvalues --   -0.60711  -0.59801  -0.53857  -0.49370  -0.47443
 Alpha  occ. eigenvalues --   -0.47165  -0.44817  -0.37390  -0.35159  -0.23070
 Alpha  occ. eigenvalues --   -0.21497
 Alpha virt. eigenvalues --    0.02954   0.03537   0.04436   0.05326   0.05969
 Alpha virt. eigenvalues --    0.06395   0.07525   0.08110   0.08477   0.08962
 Alpha virt. eigenvalues --    0.09387   0.09815   0.10875   0.11102   0.12058

 Mulliken charges:
               1
     1  Si   6.185333
     2  C   -4.752770
     3  C   -0.565513
     4  S    0.815359
     5  S    1.148245
     6  H   -1.675889
     7  H   -1.776327
     8  H   -1.759419
     9  C   -4.833182
    10  H    1.276643
    11  H    1.523564
    12  H    1.485360
    13  H    1.321981
    14  H    1.606616
 Sum of Mulliken charges =  -0.00000

 Dipole moment (field-independent basis, Debye):
    X=             -1.0796    Y=             -0.7616    Z=              0.2044  Tot=              1.3370

 Test job not archived.
 1\1\GINC-SE250\SP\RHF\Aug-CC-pVDZ\C3H8S2Si1\OHZDE\08-Apr-2025\0\\#t hf
  aug-cc-pvdz iop(5/13=1,5/36=2,99/5=2) pseudo=read geom=check guess=(r
 ead,tcheck) scf=(maxcycle=1)\\title\\0,1\Si,0,2.525269,-0.35646,-0.447
 27\C,0,1.192058,-0.233622,0.913214\C,0,-0.140587,0.214292,0.383066\S,0
 ,-0.482953,1.776523,0.002971\S,0,-1.24205,-1.136144,0.194537\H,0,3.747
 624,-0.92222,0.170656\H,0,2.818951,0.979683,-1.002397\H,0,2.056393,-1.
 259207,-1.52179\C,0,-2.720361,-0.400304,-0.549039\H,0,-3.427312,-1.221
 512,-0.675034\H,0,-2.477598,0.043219,-1.51373\H,0,-3.135115,0.359813,0

 Normal termination of Gaussian 16 at Tue Apr  8 23:54:48 2025.
