 Gaussian 16, Revision C.01,

 ----------------------------------------------------------------------
 #t hf aug-cc-pvdz symm=none int=(grid=ultrafine) guess=(read,tcheck) s
 table=(opt,rrhf)
 ----------------------------------------------------------------------
 -----
 title
 -----
 Symbolic Z-matrix:
 Charge =  0 Multiplicity = 1

 SCF Done:  E(RHF) =  -1459.56042339     A.U. after   18 cycles
 Normal termination of Gaussian 16 at Tue Apr  8 22:57:52 2025.
 Gaussian 16:  ES64L-G16RevC.01  3-Jul-2019

 ----------------------------------------------------------------------
 #t hf aug-cc-pvdz iop(5/13=1,5/36=2,99/5=2) pseudo=read geom=check gue
 ss=(read,tcheck) scf=(maxcycle=1)
 ----------------------------------------------------------------------
 -----
 title
 -----
 Structure from the checkpoint file:  "BDE49_expt_1753_mol1.chk"
 Charge =  0 Multiplicity = 1

                         Standard orientation:
 ---------------------------------------------------------------------
 Center     Atomic      Atomic             Coordinates (Angstroms)
 Number     Number       Type             X           Y           Z
 ---------------------------------------------------------------------
      1          6           0        2.835828    0.105949   -0.064718
      2          6           0        2.237864   -0.825326   -0.909924
      3          6           0        0.889537   -1.124362   -0.744407
      4          6           0        2.116664    0.739494    0.947803
      5          6           0        0.771052    0.438082    1.116429
      6          6           0        0.168286   -0.486120    0.262687
      7          1           0        2.820724   -1.312477   -1.680276
      8          1           0        0.405574   -1.857791   -1.375805
      9          1           0        2.607140    1.452972    1.596513
     10          1           0        0.193558    0.910135    1.900249
     11         16           0       -1.553096   -0.879827    0.484885
     12          8           0       -1.856639   -2.063617   -0.275383
     13          8           0       -1.881972   -0.728672    1.871184
     14          7           0       -2.372889    0.387628   -0.357536
     15          7           0       -2.351811    1.596040    0.273092
     16          8           0       -2.859390    2.487307   -0.365990
     17          6           0       -2.894233    0.246253   -1.719522
     18          1           0       -2.861149   -0.805300   -1.986908
     19          1           0       -2.300177    0.845637   -2.413435
     20          1           0       -3.922954    0.607416   -1.738551
     21         17           0        4.530220    0.483941   -0.272789
 ---------------------------------------------------------------------

 SCF Done:  E(RHF) =  -1462.77053805     A.U. after    2 cycles

 The electronic state is 1-A.
 Alpha  occ. eigenvalues --  -99.91972 -75.93564 -21.11752 -21.07828 -21.07580
 Alpha  occ. eigenvalues --  -15.91054 -15.80343 -13.57522 -13.47214 -13.44258
 Alpha  occ. eigenvalues --  -11.56459 -11.49854 -11.48919 -11.47898 -11.45823
 Alpha  occ. eigenvalues --  -11.42903 -11.41885 -10.49332  -9.69360  -9.68452
 Alpha  occ. eigenvalues --   -9.68277  -8.28725  -1.89690  -1.87019  -1.68853
 Alpha  occ. eigenvalues --   -1.47083  -1.43325  -1.31804  -1.15130  -1.14528
 Alpha  occ. eigenvalues --   -1.10770  -1.03169  -0.92692  -0.90476  -0.82809
 Alpha  occ. eigenvalues --   -0.76105  -0.73191  -0.69136  -0.67968  -0.66088
 Alpha  occ. eigenvalues --   -0.65103  -0.63104  -0.62782  -0.60242  -0.57005
 Alpha  occ. eigenvalues --   -0.55933  -0.55141  -0.54169  -0.52629  -0.52023
 Alpha  occ. eigenvalues --   -0.49140  -0.46520  -0.43974  -0.42561  -0.40813
 Alpha  occ. eigenvalues --   -0.38797  -0.38158  -0.37532  -0.35272  -0.30333
 Alpha virt. eigenvalues --    0.02368   0.04333   0.04965   0.05744   0.05981
 Alpha virt. eigenvalues --    0.06405   0.06409   0.07332   0.07926   0.08359
 Alpha virt. eigenvalues --    0.08509   0.10008   0.10769   0.11235   0.11741

 Mulliken charges:
               1
     1  C   -2.705854
     2  C   -0.519708
     3  C   -3.097280
     4  C   -0.750895
     5  C   -2.038995
     6  C    1.915322
     7  H    1.822363
     8  H    2.097873
     9  H    1.810095
    10  H    2.106343
    11  S    7.526564
    12  O   -3.045540
    13  O   -2.931572
    14  N   -1.221529
    15  N    0.747758
    16  O   -2.003932
    17  C   -3.370115
    18  H    1.568561
    19  H    1.509551
    20  H    1.412887
    21  Cl  -0.831897
 Sum of Mulliken charges =   0.00000

 Dipole moment (field-independent basis, Debye):
    X=              0.2643    Y=             -0.1962    Z=             -1.9472  Tot=              1.9748

 Test job not archived.
 1\1\GINC-SE080\SP\RHF\Aug-CC-pVDZ\C7H7Cl1N2O3S1\OHZDE\08-Apr-2025\0\\#
 t hf aug-cc-pvdz iop(5/13=1,5/36=2,99/5=2) pseudo=read geom=check gues
 s=(read,tcheck) scf=(maxcycle=1)\\title\\0,1\C,0,2.835828,0.105949,-0.
 064718\C,0,2.237864,-0.825326,-0.909924\C,0,0.889537,-1.124362,-0.7444
 07\C,0,2.116664,0.739494,0.947803\C,0,0.771052,0.438082,1.116429\C,0,0
 .168286,-0.48612,0.262687\H,0,2.820724,-1.312477,-1.680276\H,0,0.40557
 4,-1.857791,-1.375805\H,0,2.60714,1.452972,1.596513\H,0,0.193558,0.910
 135,1.900249\S,0,-1.553096,-0.879827,0.484885\O,0,-1.856639,-2.063617,

 Normal termination of Gaussian 16 at Tue Apr  8 22:58:11 2025.
