 Gaussian 16, Revision C.01,

 ----------------------------------------------------------------------
 #t hf aug-cc-pvdz symm=none int=(grid=ultrafine) guess=(read,tcheck) s
 table=(opt,rrhf)
 ----------------------------------------------------------------------
 -----
 title
 -----
 Symbolic Z-matrix:
 Charge =  0 Multiplicity = 1

 SCF Done:  E(RHF) =  -585.123158300     A.U. after   15 cycles
 Normal termination of Gaussian 16 at Wed Apr  9 00:49:19 2025.
 Gaussian 16:  ES64L-G16RevC.01  3-Jul-2019

 ----------------------------------------------------------------------
 #t hf aug-cc-pvdz iop(5/13=1,5/36=2,99/5=2) pseudo=read geom=check gue
 ss=(read,tcheck) scf=(maxcycle=1)
 ----------------------------------------------------------------------
 -----
 title
 -----
 Structure from the checkpoint file:  "BDE49_nonexpt_848_mol1.chk"
 Charge =  0 Multiplicity = 1

                         Standard orientation:
 ---------------------------------------------------------------------
 Center     Atomic      Atomic             Coordinates (Angstroms)
 Number     Number       Type             X           Y           Z
 ---------------------------------------------------------------------
      1         14           0       -2.531659   -0.343637   -0.410555
      2          5           0       -0.879742    0.817298   -0.271869
      3          6           0        0.582747    0.363638   -0.108637
      4          6           0        1.622098    1.320993   -0.064585
      5          6           0        0.951351   -0.996111   -0.000720
      6          6           0        2.279696   -1.378703    0.141726
      7          6           0        3.280427   -0.407073    0.180524
      8          6           0        2.952150    0.945326    0.077317
      9          1           0        4.317760   -0.704234    0.291765
     10          1           0        3.733197    1.696809    0.108165
     11          1           0        1.366364    2.372042   -0.145041
     12          1           0        0.178572   -1.756005   -0.028722
     13          1           0        2.540139   -2.428105    0.222696
     14          6           0       -3.895678    0.235675    0.767010
     15          1           0       -3.584495    0.134176    1.810371
     16          1           0       -4.805915   -0.353640    0.629268
     17          1           0       -4.141132    1.286272    0.590272
     18          1           0       -1.073148    1.998979   -0.341806
     19          1           0       -2.290315   -1.794800   -0.175553
     20          1           0       -3.035834   -0.229528   -1.810114
 ---------------------------------------------------------------------

 SCF Done:  E(RHF) =  -586.715217842     A.U. after    2 cycles

 The electronic state is 1-A.
 Alpha  occ. eigenvalues --  -76.18640 -11.51735 -11.43734 -11.43238 -11.41063
 Alpha  occ. eigenvalues --  -11.40716 -11.36147 -11.34264  -7.62842  -5.52302
 Alpha  occ. eigenvalues --   -2.15953  -2.14986  -2.14347  -1.34534  -1.11118
 Alpha  occ. eigenvalues --   -1.09511  -1.03124  -0.90037  -0.86478  -0.79799
 Alpha  occ. eigenvalues --   -0.71143  -0.68007  -0.63083  -0.58912  -0.57164
 Alpha  occ. eigenvalues --   -0.55361  -0.55036  -0.52316  -0.50471  -0.45524
 Alpha  occ. eigenvalues --   -0.44608  -0.41974  -0.40656  -0.34433  -0.33539
 Alpha  occ. eigenvalues --   -0.33349
 Alpha virt. eigenvalues --    0.02964   0.03198   0.04526   0.04935   0.05331
 Alpha virt. eigenvalues --    0.05517   0.05835   0.06555   0.07430   0.07610
 Alpha virt. eigenvalues --    0.07985   0.08565   0.08967   0.09137   0.09977

 Mulliken charges:
               1
     1  Si   6.609156
     2  B    1.326460
     3  C   -2.408563
     4  C   -0.748983
     5  C   -0.113686
     6  C   -1.755811
     7  C   -2.139915
     8  C   -1.184337
     9  H    1.506077
    10  H    1.561387
    11  H    1.931101
    12  H    2.177949
    13  H    1.555944
    14  C   -4.939793
    15  H    1.301804
    16  H    1.283210
    17  H    1.327454
    18  H   -3.350349
    19  H   -1.808460
    20  H   -2.130643
 Sum of Mulliken charges =   0.00000

 Dipole moment (field-independent basis, Debye):
    X=              1.8351    Y=              0.0982    Z=              0.8366  Tot=              2.0192

 Test job not archived.
 1\1\GINC-SE343\SP\RHF\Aug-CC-pVDZ\C7H11B1Si1\OHZDE\09-Apr-2025\0\\#t h
 f aug-cc-pvdz iop(5/13=1,5/36=2,99/5=2) pseudo=read geom=check guess=(
 read,tcheck) scf=(maxcycle=1)\\title\\0,1\Si,0,-2.531659,-0.343637,-0.
 410555\B,0,-0.879742,0.817298,-0.271869\C,0,0.582747,0.363638,-0.10863
 7\C,0,1.622098,1.320993,-0.064585\C,0,0.951351,-0.996111,-0.00072\C,0,
 2.279696,-1.378703,0.141726\C,0,3.280427,-0.407073,0.180524\C,0,2.9521
 5,0.945326,0.077317\H,0,4.31776,-0.704234,0.291765\H,0,3.733197,1.6968
 09,0.108165\H,0,1.366364,2.372042,-0.145041\H,0,0.178572,-1.756005,-0.

 Normal termination of Gaussian 16 at Wed Apr  9 00:49:29 2025.
