 Gaussian 16, Revision C.01,

 ----------------------------------------------------------------------
 #t hf aug-cc-pvdz symm=none int=(grid=ultrafine) guess=(read,tcheck) s
 table=opt
 ----------------------------------------------------------------------
 -----
 title
 -----
 Symbolic Z-matrix:
 Charge =  0 Multiplicity = 2

 SCF Done:  E(UHF) =  -680.646574080     A.U. after   21 cycles
 Normal termination of Gaussian 16 at Tue Apr  8 23:26:28 2025.
 Gaussian 16:  ES64L-G16RevC.01  3-Jul-2019

 ----------------------------------------------------------------------
 #t hf aug-cc-pvdz iop(5/13=1,5/36=2,99/5=2) pseudo=read geom=check gue
 ss=(read,tcheck) scf=(maxcycle=1)
 ----------------------------------------------------------------------
 -----
 title
 -----
 Structure from the checkpoint file:  "BDE49_nonexpt_1238_mol2.chk"
 Charge =  0 Multiplicity = 2

                         Standard orientation:
 ---------------------------------------------------------------------
 Center     Atomic      Atomic             Coordinates (Angstroms)
 Number     Number       Type             X           Y           Z
 ---------------------------------------------------------------------
      1          8           0       -2.800482   -0.825813   -0.178736
      2         15           0        2.101222   -1.080740   -0.240656
      3          7           0       -0.610198   -1.009654    0.524230
      4          7           0        0.244117    0.963763   -0.233793
      5          6           0        0.604831   -0.222912    0.552587
      6          6           0       -1.692840   -0.369119   -0.014669
      7          6           0       -1.211244    1.045104   -0.324198
      8          6           0        0.921488    2.188651    0.151740
      9          1           0       -0.655741   -1.977421    0.803230
     10          1           0       -1.551184    1.359945   -1.313323
     11          1           0       -1.653106    1.726915    0.423357
     12          1           0        0.705223    2.970826   -0.578888
     13          1           0        0.615103    2.550927    1.149343
     14          1           0        2.002248    2.032160    0.156115
     15          1           0        1.374858   -1.412750   -1.416153
     16          1           0        0.877284    0.037895    1.590241
 ---------------------------------------------------------------------

 SCF Done:  E(UHF) =  -682.359415723     A.U. after    2 cycles

 The electronic state is 2-A.
 Alpha  occ. eigenvalues -- -105.19213 -21.03202 -15.77185 -15.73158 -11.51299
 Alpha  occ. eigenvalues --  -11.45456 -11.41986 -11.40463  -2.76737  -1.71127
 Alpha  occ. eigenvalues --   -1.54333  -1.47574  -1.46670  -1.45256  -1.32857
 Alpha  occ. eigenvalues --   -1.09638  -1.01640  -0.86174  -0.83333  -0.73223
 Alpha  occ. eigenvalues --   -0.69886  -0.64761  -0.62130  -0.59691  -0.57570
 Alpha  occ. eigenvalues --   -0.55206  -0.52864  -0.49816  -0.48237  -0.36858
 Alpha  occ. eigenvalues --   -0.32982  -0.28858  -0.22426  -0.07597   0.00711
 Alpha virt. eigenvalues --    0.03858   0.05397   0.05627   0.05956   0.06099
 Alpha virt. eigenvalues --    0.06971   0.07482   0.07656   0.09437   0.09952
 Alpha virt. eigenvalues --    0.11014   0.12119   0.12416   0.13705   0.14025

  Beta  occ. eigenvalues -- -105.18580 -21.03194 -15.77118 -15.73024 -11.51297
  Beta  occ. eigenvalues --  -11.45607 -11.41986 -11.40459  -2.74805  -1.71105
  Beta  occ. eigenvalues --   -1.53685  -1.45562  -1.43433  -1.32847  -1.23364
  Beta  occ. eigenvalues --   -1.09576  -1.01566  -0.85897  -0.83250  -0.70988
  Beta  occ. eigenvalues --   -0.69454  -0.63307  -0.62066  -0.59672  -0.57499
  Beta  occ. eigenvalues --   -0.54968  -0.52507  -0.49687  -0.48204  -0.36599
  Beta  occ. eigenvalues --   -0.32817  -0.28853  -0.23071  -0.05476
  Beta virt. eigenvalues --    0.03880   0.05013   0.05555   0.05666   0.06210
  Beta virt. eigenvalues --    0.06547   0.07254   0.07681   0.09002   0.09779
  Beta virt. eigenvalues --    0.10844   0.11276   0.12408   0.12623   0.13734

 Mulliken charges and spin densities:
               1          2
     1  O   -3.530359  -0.003364
     2  P    2.623239   1.408752
     3  N   -2.568778  -0.027588
     4  N   -2.476070  -0.279623
     5  C   -0.651968  -0.117426
     6  C    5.184197  -0.097852
     7  C   -2.921667  -0.180189
     8  C   -3.553602   0.034434
     9  H    0.579296   0.204471
    10  H    1.418424  -0.000905
    11  H    1.535038  -0.003674
    12  H    1.406322   0.002569
    13  H    1.360601   0.017749
    14  H    1.179756   0.234099
    15  H   -1.276100  -0.179842
    16  H    1.691672  -0.011610
 Sum of Mulliken charges =  -0.00000   1.00000

 Dipole moment (field-independent basis, Debye):
    X=              4.1186    Y=              1.6597    Z=              0.4252  Tot=              4.4608
                          Isotropic Fermi Contact Couplings
        Atom                 a.u.       MegaHertz       Gauss      10(-4) cm-1
     1  O(17)              0.00066      -0.40056      -0.14293      -0.13361
     2  P(31)              0.27265     493.78766     176.19572     164.70983
     3  N(14)              0.02978       9.62185       3.43332       3.20950
     4  N(14)              0.03790      12.24640       4.36982       4.08496
     5  C(13)             -0.00694      -7.80526      -2.78511      -2.60355
     6  C(13)              0.00004       0.04372       0.01560       0.01458
     7  C(13)              0.00323       3.62932       1.29503       1.21061
     8  C(13)              0.00728       8.18792       2.92165       2.73120

 Normal termination of Gaussian 16 at Tue Apr  8 23:26:35 2025.
