 Gaussian 16, Revision C.01,

 ----------------------------------------------------------------------
 #t hf aug-cc-pvdz symm=none int=(grid=ultrafine) guess=(read,tcheck) s
 table=(opt,rrhf)
 ----------------------------------------------------------------------
 -----
 title
 -----
 Symbolic Z-matrix:
 Charge =  0 Multiplicity = 1

 SCF Done:  E(RHF) =  -440.337047293     A.U. after   12 cycles
 Normal termination of Gaussian 16 at Wed Apr  9 00:00:57 2025.
 Gaussian 16:  ES64L-G16RevC.01  3-Jul-2019

 ----------------------------------------------------------------------
 #t hf aug-cc-pvdz iop(5/13=1,5/36=2,99/5=2) pseudo=read geom=check gue
 ss=(read,tcheck) scf=(maxcycle=1)
 ----------------------------------------------------------------------
 -----
 title
 -----
 Structure from the checkpoint file:  "BDE49_nonexpt_2111_mol1.chk"
 Charge =  0 Multiplicity = 1

                         Standard orientation:
 ---------------------------------------------------------------------
 Center     Atomic      Atomic             Coordinates (Angstroms)
 Number     Number       Type             X           Y           Z
 ---------------------------------------------------------------------
      1          7           0        0.374808   -0.002791   -0.102468
      2          7           0        0.855388    1.328276    0.016129
      3         14           0       -1.345630   -0.094361    0.007896
      4          6           0        1.350429   -1.068408    0.020204
      5          1           0        2.116828   -0.991437   -0.763419
      6          1           0        0.856672   -2.036581   -0.088004
      7          1           0        1.862704   -1.054247    0.995188
      8          1           0        1.486777    1.535634   -0.755610
      9          1           0        1.376413    1.439651    0.886094
     10          1           0       -1.989626    0.705908   -1.058157
     11          1           0       -1.883632    0.379657    1.310628
     12          1           0       -1.701263   -1.525481   -0.154113
 ---------------------------------------------------------------------

 SCF Done:  E(RHF) =  -441.237904737     A.U. after    2 cycles

 The electronic state is 1-A.
 Alpha  occ. eigenvalues --  -76.21466 -15.75766 -15.71025 -11.39055  -5.55105
 Alpha  occ. eigenvalues --   -2.20531  -2.17341  -2.16712  -1.46313  -1.14450
 Alpha  occ. eigenvalues --   -0.94447  -0.73943  -0.67888  -0.62116  -0.59070
 Alpha  occ. eigenvalues --   -0.57287  -0.47297  -0.46553  -0.46301  -0.37052
 Alpha  occ. eigenvalues --   -0.33368
 Alpha virt. eigenvalues --    0.03463   0.05360   0.05664   0.05699   0.07112
 Alpha virt. eigenvalues --    0.07392   0.07542   0.07979   0.08330   0.10894
 Alpha virt. eigenvalues --    0.10940   0.12420   0.14448   0.15518   0.17362

 Mulliken charges:
               1
     1  N   -1.630724
     2  N   -1.618654
     3  Si   5.740437
     4  C   -3.060234
     5  H    1.343388
     6  H    1.483073
     7  H    1.301612
     8  H    0.740444
     9  H    0.727190
    10  H   -1.672244
    11  H   -1.752083
    12  H   -1.602205
 Sum of Mulliken charges =  -0.00000

 Dipole moment (field-independent basis, Debye):
    X=              2.0645    Y=             -0.2197    Z=              0.0973  Tot=              2.0784

 Test job not archived.
 1\1\GINC-SE105\SP\RHF\Aug-CC-pVDZ\C1H8N2Si1\OHZDE\09-Apr-2025\0\\#t hf
  aug-cc-pvdz iop(5/13=1,5/36=2,99/5=2) pseudo=read geom=check guess=(r
 ead,tcheck) scf=(maxcycle=1)\\title\\0,1\N,0,0.374808,-0.002791,-0.102
 468\N,0,0.855388,1.328276,0.016129\Si,0,-1.34563,-0.094361,0.007896\C,
 0,1.350429,-1.068408,0.020204\H,0,2.116828,-0.991437,-0.763419\H,0,0.8
 56672,-2.036581,-0.088004\H,0,1.862704,-1.054247,0.995188\H,0,1.486777
 ,1.535634,-0.75561\H,0,1.376413,1.439651,0.886094\H,0,-1.989626,0.7059
 08,-1.058157\H,0,-1.883632,0.379657,1.310628\H,0,-1.701263,-1.525481,-

 Normal termination of Gaussian 16 at Wed Apr  9 00:01:00 2025.
