 Gaussian 16, Revision C.01,

 ----------------------------------------------------------------------
 #t hf aug-cc-pvdz symm=none int=(grid=ultrafine) guess=(read,tcheck) s
 table=(opt,rrhf)
 ----------------------------------------------------------------------
 -----
 title
 -----
 Symbolic Z-matrix:
 Charge =  0 Multiplicity = 1

 SCF Done:  E(RHF) =  -1158.19062624     A.U. after   17 cycles
 Normal termination of Gaussian 16 at Tue Apr  8 23:35:45 2025.
 Gaussian 16:  ES64L-G16RevC.01  3-Jul-2019

 ----------------------------------------------------------------------
 #t hf aug-cc-pvdz iop(5/13=1,5/36=2,99/5=2) pseudo=read geom=check gue
 ss=(read,tcheck) scf=(maxcycle=1)
 ----------------------------------------------------------------------
 -----
 title
 -----
 Structure from the checkpoint file:  "BDE49_nonexpt_1193_mol1.chk"
 Charge =  0 Multiplicity = 1

                         Standard orientation:
 ---------------------------------------------------------------------
 Center     Atomic      Atomic             Coordinates (Angstroms)
 Number     Number       Type             X           Y           Z
 ---------------------------------------------------------------------
      1          6           0       -3.448357    0.471621   -1.017675
      2          6           0       -4.754111    0.947102   -1.078391
      3          6           0       -5.617055    0.764174    0.001089
      4          6           0       -5.173858    0.106136    1.148357
      5          6           0       -3.870170   -0.369188    1.216015
      6          6           0       -3.003103   -0.190930    0.131757
      7          1           0       -2.770275    0.614922   -1.847665
      8          1           0       -5.098323    1.462506   -1.967543
      9          1           0       -6.634173    1.136389   -0.050447
     10          1           0       -5.844183   -0.033720    1.988485
     11          1           0       -3.503230   -0.879256    2.097768
     12          6           0       -1.620978   -0.721446    0.268126
     13          8           0       -1.161743   -1.241411    1.244108
     14          8           0       -0.911878   -0.551040   -0.912967
     15         16           0        0.694142   -1.060673   -0.960769
     16          6           0        1.447233    0.363590   -0.109934
     17          8           0        0.769849    1.287282    0.253707
     18          6           0        2.926947    0.279141    0.028517
     19          6           0        3.630325    1.470050    0.247156
     20          6           0        3.619921   -0.934948   -0.039012
     21          6           0        5.004938   -0.953503    0.091736
     22          6           0        5.013242    1.446848    0.374339
     23          6           0        5.702043    0.235998    0.294715
     24          1           0        6.781108    0.219019    0.397762
     25          1           0        5.537878   -1.895917    0.046504
     26          1           0        3.081526   -1.868130   -0.161711
     27          1           0        3.075501    2.397780    0.311598
     28          1           0        5.555966    2.370641    0.537996
 ---------------------------------------------------------------------

 SCF Done:  E(RHF) =  -1161.84934661     A.U. after    2 cycles

 The electronic state is 1-A.
 Alpha  occ. eigenvalues --  -75.75226 -21.10811 -21.07168 -21.05728 -13.25883
 Alpha  occ. eigenvalues --  -13.16978 -13.11104 -11.55007 -11.53781 -11.52627
 Alpha  occ. eigenvalues --  -11.52573 -11.45657 -11.45111 -11.44495 -11.44226
 Alpha  occ. eigenvalues --  -11.43484 -11.42647 -11.42323 -11.41651 -11.38677
 Alpha  occ. eigenvalues --  -11.37596  -8.08986  -1.84716  -1.73187  -1.67664
 Alpha  occ. eigenvalues --   -1.36495  -1.34968  -1.17107  -1.12877  -1.11279
 Alpha  occ. eigenvalues --   -1.10331  -1.08721  -0.93454  -0.90723  -0.88499
 Alpha  occ. eigenvalues --   -0.87193  -0.80479  -0.76662  -0.72415  -0.71583
 Alpha  occ. eigenvalues --   -0.66851  -0.64612  -0.62668  -0.62012  -0.60421
 Alpha  occ. eigenvalues --   -0.59787  -0.59158  -0.58736  -0.56939  -0.55595
 Alpha  occ. eigenvalues --   -0.53373  -0.51375  -0.49369  -0.48473  -0.48028
 Alpha  occ. eigenvalues --   -0.47139  -0.45704  -0.45031  -0.41339  -0.36697
 Alpha  occ. eigenvalues --   -0.34937  -0.33866  -0.33818  -0.32570  -0.30544
 Alpha  occ. eigenvalues --   -0.27342  -0.25623
 Alpha virt. eigenvalues --    0.02847   0.04004   0.04909   0.05049   0.05302
 Alpha virt. eigenvalues --    0.05445   0.06654   0.06871   0.07364   0.07538
 Alpha virt. eigenvalues --    0.07933   0.08392   0.09012   0.09616   0.10165

 Mulliken charges:
               1
     1  C   -0.773899
     2  C   -1.347829
     3  C   -2.937557
     4  C   -1.473612
     5  C   -3.013449
     6  C    3.413369
     7  H    1.989091
     8  H    1.512753
     9  H    1.439118
    10  H    1.473272
    11  H    1.730460
    12  C    3.624138
    13  O   -3.591549
    14  O   -3.075409
    15  S    1.249849
    16  C    0.177312
    17  O   -3.743594
    18  C    4.885926
    19  C   -3.498283
    20  C   -0.019058
    21  C   -2.358808
    22  C   -1.182269
    23  C   -2.814719
    24  H    1.496452
    25  H    1.484659
    26  H    2.126330
    27  H    1.746099
    28  H    1.481208
 Sum of Mulliken charges =   0.00000

 Dipole moment (field-independent basis, Debye):
    X=              0.8784    Y=             -0.3367    Z=             -0.7635  Tot=              1.2116

 Test job not archived.
 1\1\GINC-SE116\SP\RHF\Aug-CC-pVDZ\C14H10O3S1\OHZDE\08-Apr-2025\0\\#t h
 f aug-cc-pvdz iop(5/13=1,5/36=2,99/5=2) pseudo=read geom=check guess=(
 read,tcheck) scf=(maxcycle=1)\\title\\0,1\C,0,-3.448357,0.471621,-1.01
 7675\C,0,-4.754111,0.947102,-1.078391\C,0,-5.617055,0.764174,0.001089\
 C,0,-5.173858,0.106136,1.148357\C,0,-3.87017,-0.369188,1.216015\C,0,-3
 .003103,-0.19093,0.131757\H,0,-2.770275,0.614922,-1.847665\H,0,-5.0983
 23,1.462506,-1.967543\H,0,-6.634173,1.136389,-0.050447\H,0,-5.844183,-
 0.03372,1.988485\H,0,-3.50323,-0.879256,2.097768\C,0,-1.620978,-0.7214

 Normal termination of Gaussian 16 at Tue Apr  8 23:36:22 2025.
