 Gaussian 16, Revision C.01,

 ----------------------------------------------------------------------
 #t hf aug-cc-pvdz symm=none int=(grid=ultrafine) guess=(read,tcheck) s
 table=(opt,rrhf)
 ----------------------------------------------------------------------
 -----
 title
 -----
 Symbolic Z-matrix:
 Charge =  0 Multiplicity = 1

 SCF Done:  E(RHF) =  -514.637408070     A.U. after   13 cycles
 Normal termination of Gaussian 16 at Tue Apr  8 23:36:20 2025.
 Gaussian 16:  ES64L-G16RevC.01  3-Jul-2019

 ----------------------------------------------------------------------
 #t hf aug-cc-pvdz iop(5/13=1,5/36=2,99/5=2) pseudo=read geom=check gue
 ss=(read,tcheck) scf=(maxcycle=1)
 ----------------------------------------------------------------------
 -----
 title
 -----
 Structure from the checkpoint file:  "BDE49_nonexpt_1494_mol1.chk"
 Charge =  0 Multiplicity = 1

                         Standard orientation:
 ---------------------------------------------------------------------
 Center     Atomic      Atomic             Coordinates (Angstroms)
 Number     Number       Type             X           Y           Z
 ---------------------------------------------------------------------
      1          7           0        1.897952    1.055033   -0.107141
      2         15           0        1.437090   -0.583586    0.075855
      3          6           0       -2.783147    0.185006   -0.083408
      4          6           0       -0.386093   -0.683382   -0.322540
      5          6           0       -1.313116    0.355297    0.317670
      6          1           0       -0.687657   -1.696331   -0.023263
      7          1           0       -0.477707   -0.652461   -1.415098
      8          1           0       -0.983110    1.361872    0.034179
      9          1           0       -1.221906    0.297302    1.408451
     10          1           0       -3.161875   -0.797186    0.215161
     11          1           0       -2.909493    0.272585   -1.166849
     12          1           0       -3.414766    0.943232    0.388227
     13          1           0        1.267009   -0.577433    1.485632
     14          1           0        1.284039    1.800531    0.193490
     15          1           0        2.357592    1.274930   -0.978104
 ---------------------------------------------------------------------

 SCF Done:  E(RHF) =  -515.724734316     A.U. after    2 cycles

 The electronic state is 1-A.
 Alpha  occ. eigenvalues -- -105.17722 -15.73658 -11.41234 -11.37956 -11.34894
 Alpha  occ. eigenvalues --   -2.75650  -1.54347  -1.46255  -1.43484  -1.20297
 Alpha  occ. eigenvalues --   -1.15925  -0.97626  -0.84555  -0.69192  -0.64889
 Alpha  occ. eigenvalues --   -0.63452  -0.57054  -0.53989  -0.50803  -0.46824
 Alpha  occ. eigenvalues --   -0.46388  -0.40021  -0.27743  -0.21477  -0.00928
 Alpha virt. eigenvalues --    0.04265   0.05385   0.05881   0.06126   0.06288
 Alpha virt. eigenvalues --    0.06471   0.07009   0.07647   0.08478   0.09738
 Alpha virt. eigenvalues --    0.11064   0.11835   0.12687   0.13960   0.14848

 Mulliken charges:
               1
     1  N   -2.265211
     2  P    4.144531
     3  C   -3.973542
     4  C   -4.138664
     5  C   -2.901748
     6  H    1.271466
     7  H    1.230950
     8  H    1.494395
     9  H    1.546338
    10  H    1.239580
    11  H    1.252866
    12  H    1.091428
    13  H   -1.011179
    14  H    0.557627
    15  H    0.461163
 Sum of Mulliken charges =  -0.00000

 Dipole moment (field-independent basis, Debye):
    X=             -0.8368    Y=              1.3200    Z=              0.2298  Tot=              1.5797

 Test job not archived.
 1\1\GINC-SE365\SP\RHF\Aug-CC-pVDZ\C3H10N1P1\OHZDE\08-Apr-2025\0\\#t hf
  aug-cc-pvdz iop(5/13=1,5/36=2,99/5=2) pseudo=read geom=check guess=(r
 ead,tcheck) scf=(maxcycle=1)\\title\\0,1\N,0,1.897952,1.055033,-0.1071
 41\P,0,1.43709,-0.583586,0.075855\C,0,-2.783147,0.185006,-0.083408\C,0
 ,-0.386093,-0.683382,-0.32254\C,0,-1.313116,0.355297,0.31767\H,0,-0.68
 7657,-1.696331,-0.023263\H,0,-0.477707,-0.652461,-1.415098\H,0,-0.9831
 1,1.361872,0.034179\H,0,-1.221906,0.297302,1.408451\H,0,-3.161875,-0.7
 97186,0.215161\H,0,-2.909493,0.272585,-1.166849\H,0,-3.414766,0.943232

 Normal termination of Gaussian 16 at Tue Apr  8 23:36:24 2025.
