 Gaussian 16, Revision C.01,

 ----------------------------------------------------------------------
 #t hf aug-cc-pvdz symm=none int=(grid=ultrafine) guess=(read,tcheck) s
 table=opt
 ----------------------------------------------------------------------
 -----
 title
 -----
 Symbolic Z-matrix:
 Charge =  0 Multiplicity = 2

 SCF Done:  E(UHF) =  -845.890515825     A.U. after   18 cycles
 Normal termination of Gaussian 16 at Tue Apr  8 22:53:39 2025.
 Gaussian 16:  ES64L-G16RevC.01  3-Jul-2019

 ----------------------------------------------------------------------
 #t hf aug-cc-pvdz iop(5/13=1,5/36=2,99/5=2) pseudo=read geom=check gue
 ss=(read,tcheck) scf=(maxcycle=1)
 ----------------------------------------------------------------------
 -----
 title
 -----
 Structure from the checkpoint file:  "BDE49_expt_1796_mol2.chk"
 Charge =  0 Multiplicity = 2

                         Standard orientation:
 ---------------------------------------------------------------------
 Center     Atomic      Atomic             Coordinates (Angstroms)
 Number     Number       Type             X           Y           Z
 ---------------------------------------------------------------------
      1          8           0        2.130676   -0.536566   -0.000009
      2          8           0        0.859941   -0.920418   -0.000010
      3          6           0       -0.003074    0.225251    0.000002
      4         17           0       -1.646668   -0.412599   -0.000000
      5          9           0        0.227046    0.962151   -1.079790
      6          9           0        0.227050    0.962133    1.079806
 ---------------------------------------------------------------------

 SCF Done:  E(UHF) =  -847.525848242     A.U. after    2 cycles

 The electronic state is 2-A.
 Alpha  occ. eigenvalues --  -99.94098 -29.34703 -29.34659 -21.20072 -21.18407
 Alpha  occ. eigenvalues --  -11.62550 -10.51637  -9.71422  -9.70526  -9.70503
 Alpha  occ. eigenvalues --   -2.11151  -1.53026  -1.36235  -1.20684  -0.93422
 Alpha  occ. eigenvalues --   -0.80709  -0.75452  -0.63778  -0.58291  -0.56205
 Alpha  occ. eigenvalues --   -0.52406  -0.49457  -0.45065  -0.43998  -0.37313
 Alpha  occ. eigenvalues --   -0.36098  -0.32611  -0.31996  -0.26276
 Alpha virt. eigenvalues --    0.05516   0.07742   0.10417   0.12306   0.12568
 Alpha virt. eigenvalues --    0.14433   0.14559   0.15865   0.18889   0.19903
 Alpha virt. eigenvalues --    0.21167   0.21367   0.23958   0.24663   0.25204

  Beta  occ. eigenvalues --  -99.94105 -29.34700 -29.34656 -21.17931 -21.16089
  Beta  occ. eigenvalues --  -11.62590 -10.51645  -9.71446  -9.70538  -9.70502
  Beta  occ. eigenvalues --   -2.06290  -1.48913  -1.32140  -1.19342  -0.93063
  Beta  occ. eigenvalues --   -0.80445  -0.74616  -0.57965  -0.57262  -0.51077
  Beta  occ. eigenvalues --   -0.50543  -0.49372  -0.42961  -0.42533  -0.36642
  Beta  occ. eigenvalues --   -0.32113  -0.31916  -0.26595
  Beta virt. eigenvalues --    0.05566   0.07740   0.10461   0.10653   0.12335
  Beta virt. eigenvalues --    0.12776   0.14466   0.15064   0.16079   0.18978
  Beta virt. eigenvalues --    0.20003   0.21356   0.21909   0.24038   0.25287

 Mulliken charges and spin densities:
               1          2
     1  O   -0.224752   0.935785
     2  O   -1.342640   0.073204
     3  C    0.150016  -0.014351
     4  Cl  -0.439525  -0.006928
     5  F    0.928451   0.006145
     6  F    0.928450   0.006145
 Sum of Mulliken charges =  -0.00000   1.00000

 Dipole moment (field-independent basis, Debye):
    X=              2.3444    Y=              3.4488    Z=              0.0000  Tot=              4.1702
                          Isotropic Fermi Contact Couplings
        Atom                 a.u.       MegaHertz       Gauss      10(-4) cm-1
     1  O(17)              0.19757    -119.76767     -42.73608     -39.95019
     2  O(17)              0.04456     -27.01036      -9.63797      -9.00969
     3  C(13)             -0.00631      -7.09585      -2.53197      -2.36692
     4  Cl(35)            -0.00546      -2.39463      -0.85446      -0.79876
     5  F(19)             -0.00116      -4.90099      -1.74879      -1.63479
     6  F(19)             -0.00116      -4.90099      -1.74879      -1.63479
 --------------------------------------------------------
       Center         ----  Spin Dipole Couplings  ----

 Normal termination of Gaussian 16 at Tue Apr  8 22:53:41 2025.
