 Gaussian 16, Revision C.01,

 ----------------------------------------------------------------------
 #t hf aug-cc-pvdz symm=none int=(grid=ultrafine) guess=(read,tcheck) s
 table=(opt,rrhf)
 ----------------------------------------------------------------------
 -----
 title
 -----
 Symbolic Z-matrix:
 Charge =  0 Multiplicity = 1

 SCF Done:  E(RHF) =  -682.729857754     A.U. after   15 cycles
 Normal termination of Gaussian 16 at Tue Apr  8 23:19:52 2025.
 Gaussian 16:  ES64L-G16RevC.01  3-Jul-2019

 ----------------------------------------------------------------------
 #t hf aug-cc-pvdz iop(5/13=1,5/36=2,99/5=2) pseudo=read geom=check gue
 ss=(read,tcheck) scf=(maxcycle=1)
 ----------------------------------------------------------------------
 -----
 title
 -----
 Structure from the checkpoint file:  "BDE49_nonexpt_1082_mol1.chk"
 Charge =  0 Multiplicity = 1

                         Standard orientation:
 ---------------------------------------------------------------------
 Center     Atomic      Atomic             Coordinates (Angstroms)
 Number     Number       Type             X           Y           Z
 ---------------------------------------------------------------------
      1         17           0        1.810855   -0.464322   -0.000062
      2          8           0        0.631767    1.048232    0.000028
      3          7           0       -0.621757    0.802719   -0.000070
      4          7           0       -1.077838   -0.327297    0.000495
      5          6           0       -2.540525   -0.407857   -0.000192
      6          1           0       -2.842374   -0.973723    0.882982
      7          1           0       -2.841506   -0.975057   -0.882809
      8          1           0       -3.014468    0.575577   -0.001168
 ---------------------------------------------------------------------

 SCF Done:  E(RHF) =  -683.980891799     A.U. after    2 cycles

 The electronic state is 1-A.
 Alpha  occ. eigenvalues --  -99.93877 -21.18720 -15.88215 -15.80878 -11.41715
 Alpha  occ. eigenvalues --  -10.50323  -9.70054  -9.69561  -9.69404  -1.91262
 Alpha  occ. eigenvalues --   -1.49362  -1.26627  -1.08553  -0.84902  -0.69635
 Alpha  occ. eigenvalues --   -0.67996  -0.66691  -0.58791  -0.57002  -0.53092
 Alpha  occ. eigenvalues --   -0.51176  -0.48076  -0.38739  -0.35991
 Alpha virt. eigenvalues --    0.02092   0.04313   0.05997   0.06083   0.09252
 Alpha virt. eigenvalues --    0.11204   0.12527   0.13234   0.13866   0.13883
 Alpha virt. eigenvalues --    0.15087   0.16700   0.16811   0.17007   0.21310

 Mulliken charges:
               1
     1  Cl   0.131975
     2  O   -1.844660
     3  N    1.138415
     4  N   -0.543388
     5  C   -2.930368
     6  H    1.341263
     7  H    1.341136
     8  H    1.365626
 Sum of Mulliken charges =  -0.00000

 Dipole moment (field-independent basis, Debye):
    X=             -3.5918    Y=              1.3759    Z=             -0.0005  Tot=              3.8463

 Test job not archived.
 1\1\GINC-SE048\SP\RHF\Aug-CC-pVDZ\C1H3Cl1N2O1\OHZDE\08-Apr-2025\0\\#t
 hf aug-cc-pvdz iop(5/13=1,5/36=2,99/5=2) pseudo=read geom=check guess=
 (read,tcheck) scf=(maxcycle=1)\\title\\0,1\Cl,0,1.810855,-0.464322,-0.
 000062\O,0,0.631767,1.048232,0.000028\N,0,-0.621757,0.802719,-0.00007\
 N,0,-1.077838,-0.327297,0.000495\C,0,-2.540525,-0.407857,-0.000192\H,0
 ,-2.842374,-0.973723,0.882982\H,0,-2.841506,-0.975057,-0.882809\H,0,-3
 .014468,0.575577,-0.001168\\Version=ES64L-G16RevC.01\State=1-A\HF=-683
 .9808918\RMSD=8.652e-02\Dipole=-1.4131215,0.5413186,-0.0001844\Quadrup

 Normal termination of Gaussian 16 at Tue Apr  8 23:19:54 2025.
