 Gaussian 16, Revision C.01,

 ----------------------------------------------------------------------
 #t hf aug-cc-pvdz symm=none int=(grid=ultrafine) guess=(read,tcheck) s
 table=(opt,rrhf)
 ----------------------------------------------------------------------
 -----
 title
 -----
 Symbolic Z-matrix:
 Charge =  0 Multiplicity = 1

 SCF Done:  E(RHF) =  -543.271702504     A.U. after   13 cycles
 Normal termination of Gaussian 16 at Wed Apr  9 00:48:13 2025.
 Gaussian 16:  ES64L-G16RevC.01  3-Jul-2019

 ----------------------------------------------------------------------
 #t hf aug-cc-pvdz iop(5/13=1,5/36=2,99/5=2) pseudo=read geom=check gue
 ss=(read,tcheck) scf=(maxcycle=1)
 ----------------------------------------------------------------------
 -----
 title
 -----
 Structure from the checkpoint file:  "BDE49_nonexpt_837_mol1.chk"
 Charge =  0 Multiplicity = 1

                         Standard orientation:
 ---------------------------------------------------------------------
 Center     Atomic      Atomic             Coordinates (Angstroms)
 Number     Number       Type             X           Y           Z
 ---------------------------------------------------------------------
      1          6           0       -1.794708    0.072847   -0.513990
      2          5           0        1.338400    0.166191    0.016953
      3          8           0        1.272263    1.534201    0.017050
      4          8           0        2.564415   -0.421890    0.023790
      5          6           0       -2.740337    0.555078    0.298342
      6          1           0       -3.544726    1.193120   -0.059395
      7          1           0       -2.757939    0.321080    1.359612
      8          1           0        3.280419    0.226999    0.035311
      9          1           0        0.369644    1.867523    0.009796
     10         14           0       -0.344211   -0.986816    0.038438
     11          1           0       -1.852762    0.344315   -1.569290
     12          1           0       -0.220064   -2.170388   -0.848783
     13          1           0       -0.630764   -1.464212    1.417021
 ---------------------------------------------------------------------

 SCF Done:  E(RHF) =  -544.532194136     A.U. after    2 cycles

 The electronic state is 1-A.
 Alpha  occ. eigenvalues --  -76.19891 -21.06580 -21.05769 -11.41669 -11.36954
 Alpha  occ. eigenvalues --   -7.63686  -5.53658  -2.17884  -2.16335  -2.15952
 Alpha  occ. eigenvalues --   -1.80906  -1.65498  -1.14418  -0.84666  -0.77634
 Alpha  occ. eigenvalues --   -0.70960  -0.63432  -0.61682  -0.54903  -0.54479
 Alpha  occ. eigenvalues --   -0.49036  -0.45714  -0.43610  -0.41374  -0.38237
 Alpha  occ. eigenvalues --   -0.36578  -0.33075
 Alpha virt. eigenvalues --    0.03206   0.04401   0.04863   0.05184   0.05957
 Alpha virt. eigenvalues --    0.07198   0.07537   0.08345   0.08576   0.08847
 Alpha virt. eigenvalues --    0.09269   0.10038   0.10635   0.11248   0.12187

 Mulliken charges:
               1
     1  C   -2.392606
     2  B    5.452345
     3  O   -4.386295
     4  O   -3.914800
     5  C   -2.649713
     6  H    1.353635
     7  H    1.391647
     8  H    1.331229
     9  H    1.553111
    10  Si   4.693883
    11  H    1.247811
    12  H   -1.927733
    13  H   -1.752515
 Sum of Mulliken charges =  -0.00000

 Dipole moment (field-independent basis, Debye):
    X=             -0.7957    Y=              1.4827    Z=             -0.1149  Tot=              1.6866

 Test job not archived.
 1\1\GINC-SE090\SP\RHF\Aug-CC-pVDZ\C2H7B1O2Si1\OHZDE\09-Apr-2025\0\\#t
 hf aug-cc-pvdz iop(5/13=1,5/36=2,99/5=2) pseudo=read geom=check guess=
 (read,tcheck) scf=(maxcycle=1)\\title\\0,1\C,0,-1.794708,0.072847,-0.5
 1399\B,0,1.3384,0.166191,0.016953\O,0,1.272263,1.534201,0.01705\O,0,2.
 564415,-0.42189,0.02379\C,0,-2.740337,0.555078,0.298342\H,0,-3.544726,
 1.19312,-0.059395\H,0,-2.757939,0.32108,1.359612\H,0,3.280419,0.227,0.
 035311\H,0,0.369644,1.867523,0.009796\Si,0,-0.344211,-0.986816,0.03843
 8\H,0,-1.852762,0.344315,-1.56929\H,0,-0.220064,-2.170388,-0.848783\H,

 Normal termination of Gaussian 16 at Wed Apr  9 00:48:17 2025.
