 Gaussian 16, Revision C.01,

 ----------------------------------------------------------------------
 #t hf aug-cc-pvdz symm=none int=(grid=ultrafine) guess=(read,tcheck) s
 table=(opt,rrhf)
 ----------------------------------------------------------------------
 -----
 title
 -----
 Symbolic Z-matrix:
 Charge =  0 Multiplicity = 1

 SCF Done:  E(RHF) =  -628.540944350     A.U. after   14 cycles
 Normal termination of Gaussian 16 at Tue Apr  8 23:06:04 2025.
 Gaussian 16:  ES64L-G16RevC.01  3-Jul-2019

 ----------------------------------------------------------------------
 #t hf aug-cc-pvdz iop(5/13=1,5/36=2,99/5=2) pseudo=read geom=check gue
 ss=(read,tcheck) scf=(maxcycle=1)
 ----------------------------------------------------------------------
 -----
 title
 -----
 Structure from the checkpoint file:  "BDE49_expt_385_mol1.chk"
 Charge =  0 Multiplicity = 1

                         Standard orientation:
 ---------------------------------------------------------------------
 Center     Atomic      Atomic             Coordinates (Angstroms)
 Number     Number       Type             X           Y           Z
 ---------------------------------------------------------------------
      1          8           0        0.220555    1.237990   -0.565418
      2          6           0       -0.870246    1.278813    0.347135
      3          6           0       -1.671023   -0.005447    0.145365
      4          1           0       -1.446031    2.173366    0.103705
      5          1           0       -0.519689    1.352086    1.384493
      6         16           0       -0.382198   -1.295786   -0.036443
      7          1           0       -2.284382    0.043615   -0.755145
      8          1           0       -2.297418   -0.240437    1.006496
      9          6           0        0.899043   -0.002601   -0.503339
     10          6           0        2.068879    0.009458    0.470011
     11          1           0        1.241509   -0.216404   -1.516750
     12          1           0        1.737083    0.240292    1.484032
     13          1           0        2.798479    0.760924    0.154312
     14          1           0        2.561260   -0.966128    0.490257
 ---------------------------------------------------------------------

 SCF Done:  E(RHF) =  -629.866810577     A.U. after    2 cycles

 The electronic state is 1-A.
 Alpha  occ. eigenvalues --  -75.67029 -21.05543 -13.11407 -13.09973 -13.01871
 Alpha  occ. eigenvalues --  -11.46733 -11.44897 -11.39329 -11.37271  -8.01086
 Alpha  occ. eigenvalues --   -1.77634  -1.20807  -1.14809  -1.01334  -0.86474
 Alpha  occ. eigenvalues --   -0.82070  -0.68784  -0.65442  -0.60590  -0.57813
 Alpha  occ. eigenvalues --   -0.54948  -0.53853  -0.48800  -0.44188  -0.40667
 Alpha  occ. eigenvalues --   -0.34006  -0.30058  -0.22676
 Alpha virt. eigenvalues --    0.03570   0.04549   0.05537   0.05721   0.05888
 Alpha virt. eigenvalues --    0.06393   0.06621   0.08259   0.08890   0.11675
 Alpha virt. eigenvalues --    0.12331   0.13226   0.13397   0.14178   0.14841

 Mulliken charges:
               1
     1  O   -3.077481
     2  C   -1.664910
     3  C   -3.645156
     4  H    1.282842
     5  H    1.607706
     6  S    0.927616
     7  H    1.466285
     8  H    1.368717
     9  C    0.121407
    10  C   -3.972871
    11  H    1.705149
    12  H    1.429816
    13  H    1.213958
    14  H    1.236923
 Sum of Mulliken charges =   0.00000

 Dipole moment (field-independent basis, Debye):
    X=             -0.4453    Y=             -0.3927    Z=              0.1458  Tot=              0.6113

 Test job not archived.
 1\1\GINC-SE082\SP\RHF\Aug-CC-pVDZ\C4H8O1S1\OHZDE\08-Apr-2025\0\\#t hf
 aug-cc-pvdz iop(5/13=1,5/36=2,99/5=2) pseudo=read geom=check guess=(re
 ad,tcheck) scf=(maxcycle=1)\\title\\0,1\O,0,0.220555,1.23799,-0.565418
 \C,0,-0.870246,1.278813,0.347135\C,0,-1.671023,-0.005447,0.145365\H,0,
 -1.446031,2.173366,0.103705\H,0,-0.519689,1.352086,1.384493\S,0,-0.382
 198,-1.295786,-0.036443\H,0,-2.284382,0.043615,-0.755145\H,0,-2.297418
 ,-0.240437,1.006496\C,0,0.899043,-0.002601,-0.503339\C,0,2.068879,0.00
 9458,0.470011\H,0,1.241509,-0.216404,-1.51675\H,0,1.737083,0.240292,1.

 Normal termination of Gaussian 16 at Tue Apr  8 23:06:09 2025.
