 Gaussian 16, Revision C.01,

 ----------------------------------------------------------------------
 #t hf aug-cc-pvdz symm=none int=(grid=ultrafine) guess=(read,tcheck) s
 table=(opt,rrhf)
 ----------------------------------------------------------------------
 -----
 title
 -----
 Symbolic Z-matrix:
 Charge =  0 Multiplicity = 1

 SCF Done:  E(RHF) =  -634.711412442     A.U. after   15 cycles
 Normal termination of Gaussian 16 at Tue Apr  8 23:52:27 2025.
 Gaussian 16:  ES64L-G16RevC.01  3-Jul-2019

 ----------------------------------------------------------------------
 #t hf aug-cc-pvdz iop(5/13=1,5/36=2,99/5=2) pseudo=read geom=check gue
 ss=(read,tcheck) scf=(maxcycle=1)
 ----------------------------------------------------------------------
 -----
 title
 -----
 Structure from the checkpoint file:  "BDE49_nonexpt_1891_mol1.chk"
 Charge =  0 Multiplicity = 1

                         Standard orientation:
 ---------------------------------------------------------------------
 Center     Atomic      Atomic             Coordinates (Angstroms)
 Number     Number       Type             X           Y           Z
 ---------------------------------------------------------------------
      1          6           0       -1.747585    0.633763   -0.000001
      2         14           0       -3.485368   -0.124546    0.000001
      3          8           0       -0.816020   -0.450677    0.000001
      4          1           0       -4.467512    0.986430   -0.000001
      5          1           0       -3.680336   -0.953077    1.209704
      6          6           0        0.525611   -0.177216   -0.000000
      7          1           0       -3.680336   -0.953081   -1.209701
      8          6           0        1.070631    1.108205   -0.000001
      9          6           0        1.370697   -1.293396    0.000001
     10          6           0        2.458529    1.265161   -0.000002
     11          6           0        3.302444    0.161144   -0.000001
     12          6           0        2.747289   -1.120779    0.000001
     13          1           0        0.434085    1.982579   -0.000002
     14          1           0        2.874433    2.266694   -0.000003
     15          1           0        4.377879    0.292780   -0.000001
     16          1           0        3.392587   -1.992235    0.000002
     17          1           0        0.923087   -2.279889    0.000002
     18          1           0       -1.608138    1.268787    0.885129
     19          1           0       -1.608139    1.268785   -0.885131
 ---------------------------------------------------------------------

 SCF Done:  E(RHF) =  -636.490077543     A.U. after    2 cycles

 The electronic state is 1-A.
 Alpha  occ. eigenvalues --  -76.21729 -21.07586 -11.53037 -11.45707 -11.42585
 Alpha  occ. eigenvalues --  -11.40665 -11.40156 -11.39943 -11.36276  -5.55265
 Alpha  occ. eigenvalues --   -2.19515  -2.17624  -2.17475  -1.78631  -1.31705
 Alpha  occ. eigenvalues --   -1.09696  -1.08340  -0.98907  -0.86879  -0.83195
 Alpha  occ. eigenvalues --   -0.76018  -0.71277  -0.65630  -0.63486  -0.59687
 Alpha  occ. eigenvalues --   -0.59175  -0.57885  -0.52187  -0.48193  -0.47251
 Alpha  occ. eigenvalues --   -0.47026  -0.46447  -0.42801  -0.40834  -0.37921
 Alpha  occ. eigenvalues --   -0.33190  -0.26387
 Alpha virt. eigenvalues --    0.03442   0.04511   0.04735   0.05551   0.05681
 Alpha virt. eigenvalues --    0.06067   0.06753   0.07631   0.07914   0.08820
 Alpha virt. eigenvalues --    0.09509   0.10132   0.10817   0.11179   0.11487

 Mulliken charges:
               1
     1  C   -4.220972
     2  Si   6.134391
     3  O   -4.860965
     4  H   -1.731113
     5  H   -1.705272
     6  C    7.278558
     7  H   -1.705270
     8  C   -3.245696
     9  C   -4.130915
    10  C   -0.554153
    11  C   -2.616312
    12  C   -0.190333
    13  H    1.852113
    14  H    1.476310
    15  H    1.543887
    16  H    1.506321
    17  H    1.847443
    18  H    1.660988
    19  H    1.660991
 Sum of Mulliken charges =   0.00000

 Dipole moment (field-independent basis, Debye):
    X=             -0.2414    Y=              0.4721    Z=              0.0000  Tot=              0.5302

 Test job not archived.
 1\1\GINC-SE455\SP\RHF\Aug-CC-pVDZ\C7H10O1Si1\OHZDE\08-Apr-2025\0\\#t h
 f aug-cc-pvdz iop(5/13=1,5/36=2,99/5=2) pseudo=read geom=check guess=(
 read,tcheck) scf=(maxcycle=1)\\title\\0,1\C,0,-1.747585,0.633763,-0.00
 0001\Si,0,-3.485368,-0.124546,0.000001\O,0,-0.81602,-0.450677,0.000001
 \H,0,-4.467512,0.98643,-0.000001\H,0,-3.680336,-0.953077,1.209704\C,0,
 0.525611,-0.177216,0.\H,0,-3.680336,-0.953081,-1.209701\C,0,1.070631,1
 .108205,-0.000001\C,0,1.370697,-1.293396,0.000001\C,0,2.458529,1.26516
 1,-0.000002\C,0,3.302444,0.161144,-0.000001\C,0,2.747289,-1.120779,0.0

 Normal termination of Gaussian 16 at Tue Apr  8 23:52:35 2025.
