 Gaussian 16, Revision C.01,

 ----------------------------------------------------------------------
 #t hf aug-cc-pvdz symm=none int=(grid=ultrafine) guess=(read,tcheck) s
 table=(opt,rrhf)
 ----------------------------------------------------------------------
 -----
 title
 -----
 Symbolic Z-matrix:
 Charge =  0 Multiplicity = 1

 SCF Done:  E(RHF) =  -906.392968325     A.U. after   12 cycles
 Normal termination of Gaussian 16 at Tue Apr  8 23:45:49 2025.
 Gaussian 16:  ES64L-G16RevC.01  3-Jul-2019

 ----------------------------------------------------------------------
 #t hf aug-cc-pvdz iop(5/13=1,5/36=2,99/5=2) pseudo=read geom=check gue
 ss=(read,tcheck) scf=(maxcycle=1)
 ----------------------------------------------------------------------
 -----
 title
 -----
 Structure from the checkpoint file:  "BDE49_nonexpt_1733_mol1.chk"
 Charge =  0 Multiplicity = 1

                         Standard orientation:
 ---------------------------------------------------------------------
 Center     Atomic      Atomic             Coordinates (Angstroms)
 Number     Number       Type             X           Y           Z
 ---------------------------------------------------------------------
      1          6           0        1.208742    0.033378    0.208907
      2          6           0        0.171193    0.990047   -0.405548
      3         14           0       -1.569308    0.838450    0.265885
      4          6           0        2.619495    0.221458   -0.364510
      5          1           0        0.475489    2.033481   -0.240338
      6         17           0       -2.343510   -1.063640   -0.139722
      7          1           0        0.128837    0.857672   -1.493441
      8          1           0        0.891480   -1.003000    0.047755
      9          1           0        1.242350    0.175352    1.296186
     10          6           0        3.648904   -0.732608    0.247318
     11          1           0        2.938060    1.258534   -0.203792
     12          1           0        2.585848    0.077986   -1.451108
     13          1           0        3.728615   -0.588533    1.329301
     14          1           0        4.641850   -0.575249   -0.182134
     15          1           0        3.373109   -1.777057    0.072529
     16          1           0       -2.479367    1.810960   -0.373638
     17          1           0       -1.606290    0.999777    1.734565
 ---------------------------------------------------------------------

 SCF Done:  E(RHF) =  -907.627410712     A.U. after    2 cycles

 The electronic state is 1-A.
 Alpha  occ. eigenvalues --  -99.87493 -76.25123 -11.42510 -11.39949 -11.37023
 Alpha  occ. eigenvalues --  -11.34748 -10.44879  -9.64795  -9.64221  -9.64130
 Alpha  occ. eigenvalues --   -5.58708  -2.22517  -2.20922  -2.20657  -1.28157
 Alpha  occ. eigenvalues --   -1.23998  -1.07936  -0.92811  -0.83614  -0.75586
 Alpha  occ. eigenvalues --   -0.65769  -0.59126  -0.58816  -0.55085  -0.54684
 Alpha  occ. eigenvalues --   -0.54125  -0.51868  -0.50183  -0.48907  -0.46553
 Alpha  occ. eigenvalues --   -0.46079  -0.45125  -0.38311
 Alpha virt. eigenvalues --    0.03875   0.04733   0.05197   0.05512   0.05710
 Alpha virt. eigenvalues --    0.05839   0.06157   0.06393   0.08194   0.08472
 Alpha virt. eigenvalues --    0.09434   0.09516   0.10104   0.11211   0.11896

 Mulliken charges:
               1
     1  C   -2.436495
     2  C   -4.144500
     3  Si   5.336642
     4  C   -2.759376
     5  H    1.519032
     6  Cl  -0.886131
     7  H    1.453811
     8  H    1.516877
     9  H    1.641067
    10  C   -3.943517
    11  H    1.407125
    12  H    1.411252
    13  H    1.280951
    14  H    1.110525
    15  H    1.313456
    16  H   -1.900474
    17  H   -1.920245
 Sum of Mulliken charges =  -0.00000

 Dipole moment (field-independent basis, Debye):
    X=              1.8689    Y=              1.4240    Z=             -0.1057  Tot=              2.3519

 Test job not archived.
 1\1\GINC-SE106\SP\RHF\Aug-CC-pVDZ\C4H11Cl1Si1\OHZDE\08-Apr-2025\0\\#t
 hf aug-cc-pvdz iop(5/13=1,5/36=2,99/5=2) pseudo=read geom=check guess=
 (read,tcheck) scf=(maxcycle=1)\\title\\0,1\C,0,1.208742,0.033378,0.208
 907\C,0,0.171193,0.990047,-0.405548\Si,0,-1.569308,0.83845,0.265885\C,
 0,2.619495,0.221458,-0.36451\H,0,0.475489,2.033481,-0.240338\Cl,0,-2.3
 4351,-1.06364,-0.139722\H,0,0.128837,0.857672,-1.493441\H,0,0.89148,-1
 .003,0.047755\H,0,1.24235,0.175352,1.296186\C,0,3.648904,-0.732608,0.2
 47318\H,0,2.93806,1.258534,-0.203792\H,0,2.585848,0.077986,-1.451108\H

 Normal termination of Gaussian 16 at Tue Apr  8 23:45:56 2025.
