 Gaussian 16, Revision C.01,

 ----------------------------------------------------------------------
 #t hf aug-cc-pvdz symm=none int=(grid=ultrafine) guess=(read,tcheck) s
 table=(opt,rrhf)
 ----------------------------------------------------------------------
 -----
 title
 -----
 Symbolic Z-matrix:
 Charge =  0 Multiplicity = 1

 SCF Done:  E(RHF) =  -235.163553949     A.U. after   13 cycles
 Normal termination of Gaussian 16 at Wed Apr  9 00:50:00 2025.
 Gaussian 16:  ES64L-G16RevC.01  3-Jul-2019

 ----------------------------------------------------------------------
 #t hf aug-cc-pvdz iop(5/13=1,5/36=2,99/5=2) pseudo=read geom=check gue
 ss=(read,tcheck) scf=(maxcycle=1)
 ----------------------------------------------------------------------
 -----
 title
 -----
 Structure from the checkpoint file:  "BDE49_nonexpt_89_mol1.chk"
 Charge =  0 Multiplicity = 1

                         Standard orientation:
 ---------------------------------------------------------------------
 Center     Atomic      Atomic             Coordinates (Angstroms)
 Number     Number       Type             X           Y           Z
 ---------------------------------------------------------------------
      1          5           0       -0.700575    0.815264    0.444412
      2          5           0        0.700574    0.815263   -0.444415
      3          6           0        1.888039   -0.068293   -0.093898
      4          7           0        2.782236   -0.745829    0.192398
      5          6           0       -1.888040   -0.068292    0.093896
      6          7           0       -2.782238   -0.745825   -0.192400
      7          1           0        0.821412    1.554254   -1.371640
      8          1           0       -0.821387    1.554201    1.371685
 ---------------------------------------------------------------------

 SCF Done:  E(RHF) =  -236.164331485     A.U. after    2 cycles

 The electronic state is 1-A.
 Alpha  occ. eigenvalues --  -15.80007 -15.80000 -11.42015 -11.41729  -7.68474
 Alpha  occ. eigenvalues --   -7.67964  -1.33261  -1.32951  -1.06022  -0.90479
 Alpha  occ. eigenvalues --   -0.65310  -0.62764  -0.55825  -0.54180  -0.52237
 Alpha  occ. eigenvalues --   -0.48239  -0.48210  -0.47215  -0.40720
 Alpha virt. eigenvalues --    0.01455   0.01526   0.02404   0.02991   0.04341
 Alpha virt. eigenvalues --    0.04949   0.07810   0.08209   0.08447   0.09806
 Alpha virt. eigenvalues --    0.11327   0.11781   0.13579   0.14057   0.15015

 Mulliken charges:
               1
     1  B    4.549333
     2  B    4.549320
     3  C   -0.117579
     4  N   -2.127850
     5  C   -0.117567
     6  N   -2.127857
     7  H   -2.303900
     8  H   -2.303901
 Sum of Mulliken charges =  -0.00000

 Dipole moment (field-independent basis, Debye):
    X=             -0.0000    Y=              2.4566    Z=             -0.0000  Tot=              2.4566

 Test job not archived.
 1\1\GINC-SE457\SP\RHF\Aug-CC-pVDZ\C2H2B2N2\OHZDE\09-Apr-2025\0\\#t hf
 aug-cc-pvdz iop(5/13=1,5/36=2,99/5=2) pseudo=read geom=check guess=(re
 ad,tcheck) scf=(maxcycle=1)\\title\\0,1\B,0,0.700575,0.815264,-0.44441
 2\B,0,-0.700574,0.815263,0.444415\C,0,-1.888039,-0.068293,0.093898\N,0
 ,-2.782236,-0.745829,-0.192398\C,0,1.88804,-0.068292,-0.093896\N,0,2.7
 82238,-0.745825,0.1924\H,0,-0.821412,1.554254,1.37164\H,0,0.821387,1.5
 54201,-1.371685\\Version=ES64L-G16RevC.01\State=1-A\HF=-236.1643315\RM
 SD=1.538e-01\Dipole=0.0000055,0.9664884,0.0000089\Quadrupole=-7.151249

 Normal termination of Gaussian 16 at Wed Apr  9 00:50:02 2025.
