 Gaussian 16, Revision C.01,

 ----------------------------------------------------------------------
 #t hf aug-cc-pvdz symm=none int=(grid=ultrafine) guess=(read,tcheck) s
 table=(opt,rrhf)
 ----------------------------------------------------------------------
 -----
 title
 -----
 Symbolic Z-matrix:
 Charge =  0 Multiplicity = 1

 SCF Done:  E(RHF) =  -386.008981705     A.U. after   15 cycles
 Normal termination of Gaussian 16 at Wed Apr  9 00:39:44 2025.
 Gaussian 16:  ES64L-G16RevC.01  3-Jul-2019

 ----------------------------------------------------------------------
 #t hf aug-cc-pvdz iop(5/13=1,5/36=2,99/5=2) pseudo=read geom=check gue
 ss=(read,tcheck) scf=(maxcycle=1)
 ----------------------------------------------------------------------
 -----
 title
 -----
 Structure from the checkpoint file:  "BDE49_nonexpt_602_mol1.chk"
 Charge =  0 Multiplicity = 1

                         Standard orientation:
 ---------------------------------------------------------------------
 Center     Atomic      Atomic             Coordinates (Angstroms)
 Number     Number       Type             X           Y           Z
 ---------------------------------------------------------------------
      1          6           0        2.564834    0.586323    0.000002
      2          6           0        1.464523    1.441172    0.000000
      3          6           0        0.165010    0.943562   -0.000001
      4          6           0        2.350324   -0.789948    0.000003
      5          6           0        1.056815   -1.299021    0.000002
      6          6           0       -0.053254   -0.441868    0.000001
      7          1           0        3.572232    0.985563    0.000002
      8          1           0        1.614911    2.515348   -0.000001
      9          1           0       -0.679832    1.616326   -0.000002
     10          1           0        3.191990   -1.473759    0.000004
     11          1           0        0.900021   -2.373924    0.000003
     12          5           0       -2.640314   -0.436388   -0.000002
     13          8           0       -2.828380    0.920476   -0.000004
     14          1           0       -3.757957    1.157238   -0.000005
     15          7           0       -1.344261   -1.006170    0.000000
     16          1           0       -3.568420   -1.191122   -0.000002
     17          1           0       -1.324019   -2.015674    0.000001
 ---------------------------------------------------------------------

 SCF Done:  E(RHF) =  -387.783472943     A.U. after    2 cycles

 The electronic state is 1-A.
 Alpha  occ. eigenvalues --  -21.06052 -15.72571 -11.51774 -11.44536 -11.42247
 Alpha  occ. eigenvalues --  -11.39925 -11.39517 -11.35412  -7.64068  -1.75149
 Alpha  occ. eigenvalues --   -1.41730  -1.27534  -1.08475  -1.06261  -0.87417
 Alpha  occ. eigenvalues --   -0.86118  -0.77864  -0.71161  -0.67107  -0.63626
 Alpha  occ. eigenvalues --   -0.58434  -0.57211  -0.56307  -0.53860  -0.51217
 Alpha  occ. eigenvalues --   -0.46555  -0.46309  -0.43545  -0.39364  -0.38299
 Alpha  occ. eigenvalues --   -0.32431  -0.27486
 Alpha virt. eigenvalues --    0.03111   0.03517   0.03956   0.04945   0.05745
 Alpha virt. eigenvalues --    0.06011   0.06890   0.07844   0.09495   0.09987
 Alpha virt. eigenvalues --    0.10633   0.11965   0.12090   0.12974   0.13547

 Mulliken charges:
               1
     1  C   -2.948250
     2  C   -0.618449
     3  C   -2.139156
     4  C   -0.553466
     5  C   -3.594082
     6  C    6.373333
     7  H    1.567572
     8  H    1.513030
     9  H    1.914035
    10  H    1.527040
    11  H    1.783732
    12  B    7.055478
    13  O   -3.400368
    14  H    1.262208
    15  N   -6.661695
    16  H   -4.326723
    17  H    1.245761
 Sum of Mulliken charges =   0.00000

 Dipole moment (field-independent basis, Debye):
    X=             -1.0735    Y=             -0.1463    Z=             -0.0000  Tot=              1.0834

 Test job not archived.
 1\1\GINC-SE461\SP\RHF\Aug-CC-pVDZ\C6H8B1N1O1\OHZDE\09-Apr-2025\0\\#t h
 f aug-cc-pvdz iop(5/13=1,5/36=2,99/5=2) pseudo=read geom=check guess=(
 read,tcheck) scf=(maxcycle=1)\\title\\0,1\C,0,2.564834,0.586323,0.0000
 02\C,0,1.464523,1.441172,0.\C,0,0.16501,0.943562,-0.000001\C,0,2.35032
 4,-0.789948,0.000003\C,0,1.056815,-1.299021,0.000002\C,0,-0.053254,-0.
 441868,0.000001\H,0,3.572232,0.985563,0.000002\H,0,1.614911,2.515348,-
 0.000001\H,0,-0.679832,1.616326,-0.000002\H,0,3.19199,-1.473759,0.0000
 04\H,0,0.900021,-2.373924,0.000003\B,0,-2.640314,-0.436388,-0.000002\O

 Normal termination of Gaussian 16 at Wed Apr  9 00:39:52 2025.
