 Gaussian 16, Revision C.01,

 ----------------------------------------------------------------------
 #t hf aug-cc-pvdz symm=none int=(grid=ultrafine) guess=(read,tcheck) s
 table=(opt,rrhf)
 ----------------------------------------------------------------------
 -----
 title
 -----
 Symbolic Z-matrix:
 Charge =  0 Multiplicity = 1

 SCF Done:  E(RHF) =  -606.580582636     A.U. after   12 cycles

 1\1\GINC-SE455\Stability\RHF\Aug-CC-pVDZ\B1H7Si2\OHZDE\09-Apr-2025\0\\
 #t hf aug-cc-pvdz symm=none int=(grid=ultrafine) guess=(read,tcheck) s
 table=(opt,rrhf)\\title\\0,1\Si,0,-1.467404,0.238764,0.000003\Si,0,0.7
 35266,-0.65217,-0.000008\H,0,-1.693015,1.074829,1.203525\H,0,-2.45398,
 -0.868456,-0.00001\H,0,-1.693016,1.074858,-1.203498\B,0,1.95679,0.9293
 3,0.000011\H,0,0.855565,-1.510591,-1.206287\H,0,0.855565,-1.51062,1.20
 625\H,0,2.297437,1.440518,-1.020918\H,0,2.297438,1.440494,1.020952\\Ve
 rsion=ES64L-G16RevC.01\HF=-606.5805826\RMSD=3.474e-09\Dipole=0.1835065

 Normal termination of Gaussian 16 at Wed Apr  9 00:13:33 2025.
 Gaussian 16:  ES64L-G16RevC.01  3-Jul-2019

 ----------------------------------------------------------------------
 #t hf aug-cc-pvdz iop(5/13=1,5/36=2,99/5=2) pseudo=read geom=check gue
 ss=(read,tcheck) scf=(maxcycle=1)
 ----------------------------------------------------------------------
 -----
 title
 -----
 Structure from the checkpoint file:  "BDE49_nonexpt_2451_mol1.chk"
 Charge =  0 Multiplicity = 1

                         Standard orientation:
 ---------------------------------------------------------------------
 Center     Atomic      Atomic             Coordinates (Angstroms)
 Number     Number       Type             X           Y           Z
 ---------------------------------------------------------------------
      1         14           0       -1.467404    0.238764    0.000003
      2         14           0        0.735266   -0.652170   -0.000008
      3          1           0       -1.693015    1.074829    1.203525
      4          1           0       -2.453980   -0.868456   -0.000010
      5          1           0       -1.693016    1.074858   -1.203498
      6          5           0        1.956790    0.929330    0.000011
      7          1           0        0.855565   -1.510591   -1.206287
      8          1           0        0.855565   -1.510620    1.206250
      9          1           0        2.297437    1.440518   -1.020918
     10          1           0        2.297438    1.440494    1.020952
 ---------------------------------------------------------------------

 SCF Done:  E(RHF) =  -607.035077587     A.U. after    2 cycles

 The electronic state is 1-A.
 Alpha  occ. eigenvalues --  -76.21748 -76.20161  -7.62557  -5.55113  -5.53878
 Alpha  occ. eigenvalues --   -2.17168  -2.17157  -2.16716  -2.16408  -2.15833
 Alpha  occ. eigenvalues --   -2.14674  -0.88360  -0.78025  -0.68610  -0.50836
 Alpha  occ. eigenvalues --   -0.47427  -0.47392  -0.45271  -0.39686  -0.32533
 Alpha virt. eigenvalues --    0.01968   0.03605   0.03770   0.04498   0.05257
 Alpha virt. eigenvalues --    0.07792   0.07983   0.08392   0.08665   0.09608
 Alpha virt. eigenvalues --    0.09896   0.10283   0.10575   0.11002   0.11045

 Mulliken charges:
               1
     1  Si   4.878319
     2  Si   4.222423
     3  H   -1.471281
     4  H   -1.547252
     5  H   -1.471282
     6  B    2.885646
     7  H   -1.681513
     8  H   -1.681514
     9  H   -2.066773
    10  H   -2.066774
 Sum of Mulliken charges =   0.00000

 Dipole moment (field-independent basis, Debye):
    X=              0.5413    Y=              0.1487    Z=              0.0000  Tot=              0.5614

 Test job not archived.
 1\1\GINC-SE455\SP\RHF\Aug-CC-pVDZ\B1H7Si2\OHZDE\09-Apr-2025\0\\#t hf a
 ug-cc-pvdz iop(5/13=1,5/36=2,99/5=2) pseudo=read geom=check guess=(rea
 d,tcheck) scf=(maxcycle=1)\\title\\0,1\Si,0,-1.467404,0.238764,0.00000
 3\Si,0,0.735266,-0.65217,-0.000008\H,0,-1.693015,1.074829,1.203525\H,0
 ,-2.45398,-0.868456,-0.00001\H,0,-1.693016,1.074858,-1.203498\B,0,1.95
 679,0.92933,0.000011\H,0,0.855565,-1.510591,-1.206287\H,0,0.855565,-1.
 51062,1.20625\H,0,2.297437,1.440518,-1.020918\H,0,2.297438,1.440494,1.
 020952\\Version=ES64L-G16RevC.01\State=1-A\HF=-607.0350776\RMSD=1.052e

 Normal termination of Gaussian 16 at Wed Apr  9 00:13:35 2025.
