 Gaussian 16, Revision C.01,

 ----------------------------------------------------------------------
 #t hf aug-cc-pvdz symm=none int=(grid=ultrafine) guess=(read,tcheck) s
 table=(opt,rrhf)
 ----------------------------------------------------------------------
 -----
 title
 -----
 Symbolic Z-matrix:
 Charge =  0 Multiplicity = 1

 SCF Done:  E(RHF) =  -660.889371103     A.U. after   13 cycles
 Normal termination of Gaussian 16 at Wed Apr  9 00:30:44 2025.
 Gaussian 16:  ES64L-G16RevC.01  3-Jul-2019

 ----------------------------------------------------------------------
 #t hf aug-cc-pvdz iop(5/13=1,5/36=2,99/5=2) pseudo=read geom=check gue
 ss=(read,tcheck) scf=(maxcycle=1)
 ----------------------------------------------------------------------
 -----
 title
 -----
 Structure from the checkpoint file:  "BDE49_nonexpt_349_mol1.chk"
 Charge =  0 Multiplicity = 1

                         Standard orientation:
 ---------------------------------------------------------------------
 Center     Atomic      Atomic             Coordinates (Angstroms)
 Number     Number       Type             X           Y           Z
 ---------------------------------------------------------------------
      1          9           0        0.873823    1.407498    0.000008
      2          9           0        1.978346   -0.584167   -0.000001
      3         16           0       -0.721140   -0.835280   -0.000005
      4          5           0        0.830088    0.078955    0.000002
      5          6           0       -1.946559    0.533682   -0.000001
      6          1           0       -2.929440    0.064564   -0.000003
      7          1           0       -1.836463    1.146537   -0.892250
      8          1           0       -1.836464    1.146531    0.892253
 ---------------------------------------------------------------------

 SCF Done:  E(RHF) =  -662.095316358     A.U. after    2 cycles

 The electronic state is 1-A.
 Alpha  occ. eigenvalues --  -75.69432 -29.26722 -29.26290 -13.14906 -13.09671
 Alpha  occ. eigenvalues --  -13.02867 -11.41319  -8.03620  -7.72383  -1.26285
 Alpha  occ. eigenvalues --   -1.08663  -0.93783  -0.76783  -0.61763  -0.60581
 Alpha  occ. eigenvalues --   -0.52812  -0.51765  -0.45825  -0.44971  -0.42311
 Alpha  occ. eigenvalues --   -0.34501  -0.33052  -0.26507  -0.24972
 Alpha virt. eigenvalues --    0.02061   0.03527   0.03705   0.06469   0.06902
 Alpha virt. eigenvalues --    0.08408   0.09209   0.11107   0.12151   0.14354
 Alpha virt. eigenvalues --    0.14882   0.16024   0.18050   0.18181   0.19502

 Mulliken charges:
               1
     1  F   -0.794526
     2  F    0.488419
     3  S   -1.149116
     4  B    1.861614
     5  C   -4.582395
     6  H    1.401183
     7  H    1.387411
     8  H    1.387410
 Sum of Mulliken charges =   0.00000

 Dipole moment (field-independent basis, Debye):
    X=              1.0159    Y=              0.9627    Z=              0.0000  Tot=              1.3996

 Test job not archived.
 1\1\GINC-SE097\SP\RHF\Aug-CC-pVDZ\C1H3B1F2S1\OHZDE\09-Apr-2025\0\\#t h
 f aug-cc-pvdz iop(5/13=1,5/36=2,99/5=2) pseudo=read geom=check guess=(
 read,tcheck) scf=(maxcycle=1)\\title\\0,1\F,0,0.873823,1.407498,0.0000
 08\F,0,1.978346,-0.584167,-0.000001\S,0,-0.72114,-0.83528,-0.000005\B,
 0,0.830088,0.078955,0.000002\C,0,-1.946559,0.533682,-0.000001\H,0,-2.9
 2944,0.064564,-0.000003\H,0,-1.836463,1.146537,-0.89225\H,0,-1.836464,
 1.146531,0.892253\\Version=ES64L-G16RevC.01\State=1-A\HF=-662.0953164\
 RMSD=1.767e-01\Dipole=0.3996963,0.3787466,0.0000009\Quadrupole=2.58952

 Normal termination of Gaussian 16 at Wed Apr  9 00:30:46 2025.
