 Gaussian 16, Revision C.01,

 ----------------------------------------------------------------------
 #t hf aug-cc-pvdz symm=none int=(grid=ultrafine) guess=(read,tcheck) s
 table=(opt,rrhf)
 ----------------------------------------------------------------------
 -----
 title
 -----
 Symbolic Z-matrix:
 Charge =  0 Multiplicity = 1

 SCF Done:  E(RHF) =  -611.081514582     A.U. after   15 cycles
 Normal termination of Gaussian 16 at Tue Apr  8 23:30:47 2025.
 Gaussian 16:  ES64L-G16RevC.01  3-Jul-2019

 ----------------------------------------------------------------------
 #t hf aug-cc-pvdz iop(5/13=1,5/36=2,99/5=2) pseudo=read geom=check gue
 ss=(read,tcheck) scf=(maxcycle=1)
 ----------------------------------------------------------------------
 -----
 title
 -----
 Structure from the checkpoint file:  "BDE49_nonexpt_1337_mol1.chk"
 Charge =  0 Multiplicity = 1

                         Standard orientation:
 ---------------------------------------------------------------------
 Center     Atomic      Atomic             Coordinates (Angstroms)
 Number     Number       Type             X           Y           Z
 ---------------------------------------------------------------------
      1          6           0       -2.621115    0.232957    1.063006
      2         15           0       -1.915560   -0.253191   -0.595448
      3          1           0       -2.438494   -0.575626    1.773790
      4          1           0       -3.702578    0.355272    0.961794
      5          1           0       -2.188911    1.154209    1.457157
      6          6           0       -0.106729   -0.070362   -0.273104
      7          6           0        0.546387    1.169756   -0.236192
      8          6           0        0.649955   -1.229947   -0.060293
      9          6           0        2.016655   -1.153763    0.201314
     10          6           0        2.651814    0.085071    0.235836
     11          6           0        1.914344    1.246825    0.011774
     12          1           0        3.716781    0.145937    0.430110
     13          1           0        2.405217    2.213758    0.030718
     14          1           0       -0.017200    2.080940   -0.406020
     15          1           0        0.166076   -2.200168   -0.107745
     16          1           0        2.585669   -2.061803    0.367533
     17          1           0       -2.101015    1.002125   -1.229659
 ---------------------------------------------------------------------

 SCF Done:  E(RHF) =  -612.600568548     A.U. after    2 cycles

 The electronic state is 1-A.
 Alpha  occ. eigenvalues -- -105.17239 -11.51500 -11.43036 -11.42839 -11.40817
 Alpha  occ. eigenvalues --  -11.40529 -11.36888 -11.36323  -2.74796  -1.50144
 Alpha  occ. eigenvalues --   -1.45611  -1.44712  -1.32594  -1.09204  -1.07952
 Alpha  occ. eigenvalues --   -0.99953  -0.86315  -0.84273  -0.72847  -0.67380
 Alpha  occ. eigenvalues --   -0.62259  -0.58372  -0.56769  -0.56037  -0.55837
 Alpha  occ. eigenvalues --   -0.50413  -0.49406  -0.44783  -0.33928  -0.33144
 Alpha  occ. eigenvalues --   -0.24600  -0.20598  -0.01389
 Alpha virt. eigenvalues --    0.03740   0.05027   0.05391   0.05667   0.06641
 Alpha virt. eigenvalues --    0.06923   0.07063   0.07568   0.08492   0.09741
 Alpha virt. eigenvalues --    0.10768   0.10862   0.11505   0.12454   0.12798

 Mulliken charges:
               1
     1  C   -5.671202
     2  P    3.179289
     3  H    1.289042
     4  H    1.145616
     5  H    1.267328
     6  C    2.711995
     7  C   -3.421498
     8  C   -4.308761
     9  C   -0.754014
    10  C   -2.366317
    11  C   -0.514748
    12  H    1.399932
    13  H    1.453392
    14  H    1.955514
    15  H    1.813849
    16  H    1.557643
    17  H   -0.737058
 Sum of Mulliken charges =   0.00000

 Dipole moment (field-independent basis, Debye):
    X=              1.0377    Y=             -0.2660    Z=             -0.6419  Tot=              1.2489

 Test job not archived.
 1\1\GINC-SE083\SP\RHF\Aug-CC-pVDZ\C7H9P1\OHZDE\08-Apr-2025\0\\#t hf au
 g-cc-pvdz iop(5/13=1,5/36=2,99/5=2) pseudo=read geom=check guess=(read
 ,tcheck) scf=(maxcycle=1)\\title\\0,1\C,0,-2.621115,0.232957,1.063006\
 P,0,-1.91556,-0.253191,-0.595448\H,0,-2.438494,-0.575626,1.77379\H,0,-
 3.702578,0.355272,0.961794\H,0,-2.188911,1.154209,1.457157\C,0,-0.1067
 29,-0.070362,-0.273104\C,0,0.546387,1.169756,-0.236192\C,0,0.649955,-1
 .229947,-0.060293\C,0,2.016655,-1.153763,0.201314\C,0,2.651814,0.08507
 1,0.235836\C,0,1.914344,1.246825,0.011774\H,0,3.716781,0.145937,0.4301

 Normal termination of Gaussian 16 at Tue Apr  8 23:30:57 2025.
