 Gaussian 16, Revision C.01,

 ----------------------------------------------------------------------
 #t hf aug-cc-pvdz symm=none int=(grid=ultrafine) guess=(read,tcheck) s
 table=(opt,rrhf)
 ----------------------------------------------------------------------
 -----
 title
 -----
 Symbolic Z-matrix:
 Charge =  0 Multiplicity = 1

 SCF Done:  E(RHF) =  -675.433661620     A.U. after   11 cycles
 Normal termination of Gaussian 16 at Wed Apr  9 00:11:40 2025.
 Gaussian 16:  ES64L-G16RevC.01  3-Jul-2019

 ----------------------------------------------------------------------
 #t hf aug-cc-pvdz iop(5/13=1,5/36=2,99/5=2) pseudo=read geom=check gue
 ss=(read,tcheck) scf=(maxcycle=1)
 ----------------------------------------------------------------------
 -----
 title
 -----
 Structure from the checkpoint file:  "BDE49_nonexpt_2375_mol1.chk"
 Charge =  0 Multiplicity = 1

                         Standard orientation:
 ---------------------------------------------------------------------
 Center     Atomic      Atomic             Coordinates (Angstroms)
 Number     Number       Type             X           Y           Z
 ---------------------------------------------------------------------
      1         14           0       -2.067116   -0.302697    0.042565
      2         14           0        0.059819    0.712089   -0.041320
      3          1           0       -2.224947   -1.276613   -1.068604
      4          1           0       -3.129815    0.724446   -0.092102
      5          1           0       -2.269499   -1.027227    1.320767
      6          7           0        1.264826   -0.524471   -0.082601
      7          1           0        0.298674    1.529020    1.175899
      8          1           0        0.084857    1.667268   -1.190426
      9          6           0        2.696003   -0.281043    0.093948
     10          1           0        1.070445   -1.350686   -0.630588
     11          1           0        2.841623    0.507494    0.836815
     12          1           0        3.206905    0.030875   -0.827583
     13          1           0        3.194113   -1.178516    0.472914
 ---------------------------------------------------------------------

 SCF Done:  E(RHF) =  -676.233137208     A.U. after    2 cycles

 The electronic state is 1-A.
 Alpha  occ. eigenvalues --  -76.21731 -76.21018 -15.71388 -11.38921  -5.55475
 Alpha  occ. eigenvalues --   -5.54463  -2.20582  -2.17130  -2.16678  -2.16513
 Alpha  occ. eigenvalues --   -2.16458  -2.15517  -1.31724  -0.96200  -0.79567
 Alpha  occ. eigenvalues --   -0.72104  -0.62135  -0.58969  -0.54660  -0.48541
 Alpha  occ. eigenvalues --   -0.47571  -0.46085  -0.45683  -0.35934  -0.33349
 Alpha virt. eigenvalues --    0.03702   0.04503   0.05438   0.06119   0.06612
 Alpha virt. eigenvalues --    0.07222   0.07362   0.07879   0.08601   0.09113
 Alpha virt. eigenvalues --    0.09322   0.09865   0.10089   0.10609   0.11612

 Mulliken charges:
               1
     1  Si   4.704241
     2  Si   3.956361
     3  H   -1.522790
     4  H   -1.560260
     5  H   -1.547310
     6  N   -2.296817
     7  H   -1.692229
     8  H   -1.840786
     9  C   -3.088589
    10  H    0.782672
    11  H    1.445310
    12  H    1.355233
    13  H    1.304963
 Sum of Mulliken charges =   0.00000

 Dipole moment (field-independent basis, Debye):
    X=              1.1910    Y=             -0.7936    Z=             -0.3402  Tot=              1.4711

 Test job not archived.
 1\1\GINC-SE419\SP\RHF\Aug-CC-pVDZ\C1H9N1Si2\OHZDE\09-Apr-2025\0\\#t hf
  aug-cc-pvdz iop(5/13=1,5/36=2,99/5=2) pseudo=read geom=check guess=(r
 ead,tcheck) scf=(maxcycle=1)\\title\\0,1\Si,0,-2.067116,-0.302697,0.04
 2565\Si,0,0.059819,0.712089,-0.04132\H,0,-2.224947,-1.276613,-1.068604
 \H,0,-3.129815,0.724446,-0.092102\H,0,-2.269499,-1.027227,1.320767\N,0
 ,1.264826,-0.524471,-0.082601\H,0,0.298674,1.52902,1.175899\H,0,0.0848
 57,1.667268,-1.190426\C,0,2.696003,-0.281043,0.093948\H,0,1.070445,-1.
 350686,-0.630588\H,0,2.841623,0.507494,0.836815\H,0,3.206905,0.030875,

 Normal termination of Gaussian 16 at Wed Apr  9 00:11:44 2025.
