 Gaussian 16, Revision C.01,

 ----------------------------------------------------------------------
 #t hf aug-cc-pvdz symm=none int=(grid=ultrafine) guess=(read,tcheck) s
 table=(opt,rrhf)
 ----------------------------------------------------------------------
 -----
 title
 -----
 Symbolic Z-matrix:
 Charge =  0 Multiplicity = 1

 SCF Done:  E(RHF) =  -653.683752165     A.U. after   14 cycles
 Normal termination of Gaussian 16 at Wed Apr  9 00:22:03 2025.
 Gaussian 16:  ES64L-G16RevC.01  3-Jul-2019

 ----------------------------------------------------------------------
 #t hf aug-cc-pvdz iop(5/13=1,5/36=2,99/5=2) pseudo=read geom=check gue
 ss=(read,tcheck) scf=(maxcycle=1)
 ----------------------------------------------------------------------
 -----
 title
 -----
 Structure from the checkpoint file:  "BDE49_nonexpt_2638_mol1.chk"
 Charge =  0 Multiplicity = 1

                         Standard orientation:
 ---------------------------------------------------------------------
 Center     Atomic      Atomic             Coordinates (Angstroms)
 Number     Number       Type             X           Y           Z
 ---------------------------------------------------------------------
      1          9           0       -1.522083   -0.790303    0.981628
      2         16           0       -0.972163   -0.721699   -0.607663
      3          6           0        0.195658    0.663006   -0.414073
      4          6           0        1.381438    0.315600    0.503295
      5          6           0       -0.529412    1.944229    0.009628
      6          1           0       -0.987550    1.811004    0.991678
      7          1           0       -1.316413    2.205325   -0.699551
      8          1           0        0.177227    2.777044    0.071503
      9          1           0        0.550673    0.763514   -1.451312
     10          6           0        2.320143   -0.762487   -0.039371
     11          1           0        0.982101    0.014615    1.476637
     12          1           0        1.946195    1.239589    0.673492
     13          1           0        1.792704   -1.705221   -0.198958
     14          1           0        3.138011   -0.949753    0.660745
     15          1           0        2.763440   -0.458287   -0.993147
 ---------------------------------------------------------------------

 SCF Done:  E(RHF) =  -655.068560640     A.U. after    2 cycles

 The electronic state is 1-A.
 Alpha  occ. eigenvalues --  -75.74482 -29.25648 -13.18313 -13.16263 -13.10739
 Alpha  occ. eigenvalues --  -11.44941 -11.40835 -11.38220 -11.36041  -8.08400
 Alpha  occ. eigenvalues --   -1.30893  -1.14577  -1.07335  -0.92977  -0.84369
 Alpha  occ. eigenvalues --   -0.65346  -0.64701  -0.60416  -0.58981  -0.57548
 Alpha  occ. eigenvalues --   -0.52305  -0.50350  -0.47768  -0.45617  -0.42542
 Alpha  occ. eigenvalues --   -0.38410  -0.32431  -0.26558  -0.16803
 Alpha virt. eigenvalues --    0.03660   0.04707   0.05192   0.05861   0.06173
 Alpha virt. eigenvalues --    0.06557   0.06965   0.07414   0.08739   0.09761
 Alpha virt. eigenvalues --    0.11382   0.12772   0.13870   0.14169   0.14863

 Mulliken charges:
               1
     1  F   -0.487097
     2  S    0.624522
     3  C   -1.786956
     4  C   -2.727782
     5  C   -3.926017
     6  H    1.303199
     7  H    1.144578
     8  H    1.254832
     9  H    1.988481
    10  C   -4.020884
    11  H    1.408033
    12  H    1.459846
    13  H    1.452407
    14  H    1.099925
    15  H    1.212913
 Sum of Mulliken charges =  -0.00000

 Dipole moment (field-independent basis, Debye):
    X=             -0.6445    Y=             -0.2301    Z=              1.8039  Tot=              1.9293

 Test job not archived.
 1\1\GINC-SE072\SP\RHF\Aug-CC-pVDZ\C4H9F1S1\OHZDE\09-Apr-2025\0\\#t hf
 aug-cc-pvdz iop(5/13=1,5/36=2,99/5=2) pseudo=read geom=check guess=(re
 ad,tcheck) scf=(maxcycle=1)\\title\\0,1\F,0,-1.522083,-0.790302,0.9816
 28\S,0,-0.972163,-0.721699,-0.607663\C,0,0.195658,0.663006,-0.414073\C
 ,0,1.381438,0.3156,0.503295\C,0,-0.529411,1.944229,0.009628\H,0,-0.987
 549,1.811004,0.991678\H,0,-1.316412,2.205326,-0.699551\H,0,0.177228,2.
 777044,0.071503\H,0,0.550673,0.763514,-1.451312\C,0,2.320143,-0.762488
 ,-0.039371\H,0,0.982101,0.014615,1.476637\H,0,1.946195,1.239588,0.6734

 Normal termination of Gaussian 16 at Wed Apr  9 00:22:08 2025.
