 Gaussian 16, Revision C.01,

 ----------------------------------------------------------------------
 #t hf aug-cc-pvdz symm=none int=(grid=ultrafine) guess=(read,tcheck) s
 table=(opt,rrhf)
 ----------------------------------------------------------------------
 -----
 title
 -----
 Symbolic Z-matrix:
 Charge =  0 Multiplicity = 1

 SCF Done:  E(RHF) =  -800.265033505     A.U. after   12 cycles
 Normal termination of Gaussian 16 at Tue Apr  8 23:31:23 2025.
 Gaussian 16:  ES64L-G16RevC.01  3-Jul-2019

 ----------------------------------------------------------------------
 #t hf aug-cc-pvdz iop(5/13=1,5/36=2,99/5=2) pseudo=read geom=check gue
 ss=(read,tcheck) scf=(maxcycle=1)
 ----------------------------------------------------------------------
 -----
 title
 -----
 Structure from the checkpoint file:  "BDE49_nonexpt_1333_mol1.chk"
 Charge =  0 Multiplicity = 1

                         Standard orientation:
 ---------------------------------------------------------------------
 Center     Atomic      Atomic             Coordinates (Angstroms)
 Number     Number       Type             X           Y           Z
 ---------------------------------------------------------------------
      1          6           0       -2.373536    1.267116   -0.219555
      2          6           0       -0.881202    1.275306    0.142502
      3          6           0       -3.075335    0.000023    0.287220
      4          1           0       -2.480712    1.329786   -1.310123
      5          1           0       -2.855504    2.159360    0.192214
      6          6           0       -2.373557   -1.267106   -0.219494
      7          1           0       -4.125399    0.000025   -0.021677
      8          1           0       -3.071844    0.000049    1.384687
      9          6           0       -0.881223   -1.275304    0.142561
     10          1           0       -2.480736   -1.329827   -1.310059
     11          1           0       -2.855540   -2.159322    0.192318
     12          6           0       -0.176305   -0.000016   -0.367309
     13          1           0       -0.393642   -2.160181   -0.273658
     14          1           0       -0.768421   -1.330637    1.231501
     15          1           0       -0.768404    1.330687    1.231440
     16          1           0       -0.393608    2.160157   -0.273759
     17         15           0        1.571373   -0.000014    0.095356
     18          1           0       -0.189048   -0.000040   -1.465396
     19          8           0        1.935991   -0.000006    1.523139
     20          8           0        2.141198    1.276639   -0.711868
     21          8           0        2.141100   -1.276662   -0.711921
     22          1           0        2.816625   -1.736703   -0.199280
     23          1           0        2.816262    1.736980   -0.198891
 ---------------------------------------------------------------------

 SCF Done:  E(RHF) =  -802.602649469     A.U. after    2 cycles

 The electronic state is 1-A.
 Alpha  occ. eigenvalues -- -105.28976 -21.10571 -21.10508 -21.01313 -11.44814
 Alpha  occ. eigenvalues --  -11.44485 -11.42720 -11.38248 -11.38147 -11.34775
 Alpha  occ. eigenvalues --   -2.91398  -1.95296  -1.89450  -1.80342  -1.54668
 Alpha  occ. eigenvalues --   -1.39188  -1.30791  -1.25411  -1.10944  -1.09044
 Alpha  occ. eigenvalues --   -0.89242  -0.87240  -0.78877  -0.69970  -0.65604
 Alpha  occ. eigenvalues --   -0.61978  -0.61775  -0.60078  -0.59350  -0.53357
 Alpha  occ. eigenvalues --   -0.53283  -0.49700  -0.48590  -0.47594  -0.45539
 Alpha  occ. eigenvalues --   -0.44968  -0.43487  -0.39976  -0.38334  -0.34010
 Alpha  occ. eigenvalues --   -0.33088  -0.29030  -0.23252  -0.14086
 Alpha virt. eigenvalues --    0.03947   0.05088   0.05138   0.05619   0.05625
 Alpha virt. eigenvalues --    0.05780   0.06124   0.06280   0.07573   0.07960
 Alpha virt. eigenvalues --    0.08529   0.09013   0.09056   0.11061   0.12248

 Mulliken charges:
               1
     1  C   -3.250669
     2  C   -2.344622
     3  C   -2.778079
     4  H    1.365674
     5  H    1.273076
     6  C   -3.250750
     7  H    1.349814
     8  H    1.395785
     9  C   -2.344737
    10  H    1.365673
    11  H    1.273083
    12  C   -4.577596
    13  H    1.420936
    14  H    1.324427
    15  H    1.324498
    16  H    1.420847
    17  P   10.646130
    18  H    1.689540
    19  O   -2.961085
    20  O   -3.005039
    21  O   -3.005094
    22  H    0.834178
    23  H    0.834008
 Sum of Mulliken charges =  -0.00000

 Dipole moment (field-independent basis, Debye):
    X=             -0.7065    Y=              0.0000    Z=             -2.4935  Tot=              2.5917

 Test job not archived.
 1\1\GINC-SE435\SP\RHF\Aug-CC-pVDZ\C6H13O3P1\OHZDE\08-Apr-2025\0\\#t hf
  aug-cc-pvdz iop(5/13=1,5/36=2,99/5=2) pseudo=read geom=check guess=(r
 ead,tcheck) scf=(maxcycle=1)\\title\\0,1\C,0,-2.373536,1.267116,-0.219
 555\C,0,-0.881202,1.275306,0.142502\C,0,-3.075335,0.000023,0.28722\H,0
 ,-2.480712,1.329786,-1.310123\H,0,-2.855504,2.15936,0.192214\C,0,-2.37
 3557,-1.267106,-0.219494\H,0,-4.125399,0.000025,-0.021677\H,0,-3.07184
 4,0.000049,1.384687\C,0,-0.881223,-1.275304,0.142561\H,0,-2.480736,-1.
 329827,-1.310059\H,0,-2.85554,-2.159322,0.192318\C,0,-0.176305,-0.0000

 Normal termination of Gaussian 16 at Tue Apr  8 23:31:37 2025.
