 Gaussian 16, Revision C.01,

 ----------------------------------------------------------------------
 #t hf aug-cc-pvdz symm=none int=(grid=ultrafine) guess=(read,tcheck) s
 table=opt
 ----------------------------------------------------------------------
 -----
 title
 -----
 Symbolic Z-matrix:
 Charge =  0 Multiplicity = 2

 SCF Done:  E(UHF) =  -457.260804848     A.U. after   19 cycles
 Normal termination of Gaussian 16 at Tue Apr  8 23:52:19 2025.
 Gaussian 16:  ES64L-G16RevC.01  3-Jul-2019

 ----------------------------------------------------------------------
 #t hf aug-cc-pvdz iop(5/13=1,5/36=2,99/5=2) pseudo=read geom=check gue
 ss=(read,tcheck) scf=(maxcycle=1)
 ----------------------------------------------------------------------
 -----
 title
 -----
 Structure from the checkpoint file:  "BDE49_nonexpt_1914_mol2.chk"
 Charge =  0 Multiplicity = 2

                         Standard orientation:
 ---------------------------------------------------------------------
 Center     Atomic      Atomic             Coordinates (Angstroms)
 Number     Number       Type             X           Y           Z
 ---------------------------------------------------------------------
      1         14           0       -1.446913    0.194384   -0.111424
      2          8           0        0.054935   -0.607891    0.067720
      3          1           0       -2.403493   -0.812166    0.397627
      4          1           0       -1.396431    1.423222    0.719546
      5          6           0        1.236116   -0.107825    0.015030
      6          7           0        2.314360    0.311092   -0.027026
 ---------------------------------------------------------------------

 SCF Done:  E(UHF) =  -458.082339917     A.U. after    2 cycles

 The electronic state is 2-A.
 Alpha  occ. eigenvalues --  -76.30706 -21.15665 -15.75364 -11.48681  -5.63861
 Alpha  occ. eigenvalues --   -2.28844  -2.25491  -2.24393  -1.81927  -1.28585
 Alpha  occ. eigenvalues --   -0.85056  -0.68711  -0.60144  -0.59045  -0.53038
 Alpha  occ. eigenvalues --   -0.51308  -0.41027  -0.38033  -0.30793
 Alpha virt. eigenvalues --    0.03284   0.03925   0.05396   0.06360   0.07973
 Alpha virt. eigenvalues --    0.10223   0.11521   0.11895   0.12251   0.12940
 Alpha virt. eigenvalues --    0.14542   0.14864   0.17740   0.19822   0.20360

  Beta  occ. eigenvalues --  -76.30135 -21.15395 -15.75323 -11.48723  -5.62938
  Beta  occ. eigenvalues --   -2.28184  -2.24901  -2.20881  -1.81345  -1.28502
  Beta  occ. eigenvalues --   -0.82419  -0.66713  -0.59237  -0.58210  -0.52594
  Beta  occ. eigenvalues --   -0.50206  -0.38489  -0.37682
  Beta virt. eigenvalues --    0.01059   0.03687   0.04310   0.05703   0.07868
  Beta virt. eigenvalues --    0.08397   0.10857   0.12142   0.12388   0.12673
  Beta virt. eigenvalues --    0.13491   0.15712   0.17027   0.18849   0.20044

 Mulliken charges and spin densities:
               1          2
     1  Si   4.173767   0.888245
     2  O   -2.680962  -0.015109
     3  H   -1.415837   0.035015
     4  H   -1.376082   0.049629
     5  C    3.707810   0.019076
     6  N   -2.408696   0.023145
 Sum of Mulliken charges =   0.00000   1.00000

 Dipole moment (field-independent basis, Debye):
    X=             -4.2252    Y=             -0.7331    Z=             -0.3521  Tot=              4.3027
                          Isotropic Fermi Contact Couplings
        Atom                 a.u.       MegaHertz       Gauss      10(-4) cm-1
     1  Si(29)             0.60808    -540.41308    -192.83282    -180.26240
     2  O(17)              0.03197     -19.38284      -6.91628      -6.46542
     3  H(1)               0.01505      67.27023      24.00369      22.43893
     4  H(1)               0.01643      73.45810      26.21168      24.50298
     5  C(13)             -0.00377      -4.23366      -1.51068      -1.41220
     6  N(14)              0.00265       0.85717       0.30586       0.28592
 --------------------------------------------------------
       Center         ----  Spin Dipole Couplings  ----

 1\1\GINC-SE435\SP\UHF\Aug-CC-pVDZ\C1H2N1O1Si1(2)\OHZDE\08-Apr-2025\0\\
 #t hf aug-cc-pvdz iop(5/13=1,5/36=2,99/5=2) pseudo=read geom=check gue
 ss=(read,tcheck) scf=(maxcycle=1)\\title\\0,2\Si,0,-1.446913,0.194384,
 -0.111424\O,0,0.054935,-0.607891,0.06772\H,0,-2.403493,-0.812166,0.397
 627\H,0,-1.396431,1.423222,0.719546\C,0,1.236116,-0.107825,0.01503\N,0
 ,2.31436,0.311092,-0.027026\\Version=ES64L-G16RevC.01\State=2-A\HF=-45
 8.0823399\S2=0.754135\S2-1=0.\S2A=0.750007\RMSD=8.061e-02\Dipole=-1.66
 23126,-0.2884148,-0.1385283\Quadrupole=-3.0445192,1.4013053,1.6432138,

 Normal termination of Gaussian 16 at Tue Apr  8 23:52:22 2025.
