 Gaussian 16, Revision C.01,

 ----------------------------------------------------------------------
 #t hf aug-cc-pvdz symm=none int=(grid=ultrafine) guess=(read,tcheck) s
 table=(opt,rrhf)
 ----------------------------------------------------------------------
 -----
 title
 -----
 Symbolic Z-matrix:
 Charge =  0 Multiplicity = 1

 SCF Done:  E(RHF) =  -1454.78264227     A.U. after   14 cycles
 Normal termination of Gaussian 16 at Tue Apr  8 23:48:44 2025.
 Gaussian 16:  ES64L-G16RevC.01  3-Jul-2019

 ----------------------------------------------------------------------
 #t hf aug-cc-pvdz iop(5/13=1,5/36=2,99/5=2) pseudo=read geom=check gue
 ss=(read,tcheck) scf=(maxcycle=1)
 ----------------------------------------------------------------------
 -----
 title
 -----
 Structure from the checkpoint file:  "BDE49_nonexpt_1792_mol1.chk"
 Charge =  0 Multiplicity = 1

                         Standard orientation:
 ---------------------------------------------------------------------
 Center     Atomic      Atomic             Coordinates (Angstroms)
 Number     Number       Type             X           Y           Z
 ---------------------------------------------------------------------
      1          6           0        2.946277   -0.723188    0.644435
      2          6           0        1.582982   -0.834475    0.911393
      3          7           0        3.455231    0.120350   -0.256643
      4          6           0        2.594562    0.892135   -0.927732
      5          6           0        1.215729    0.859729   -0.735413
      6          6           0        0.681467   -0.026626    0.207037
      7          1           0        3.661530   -1.339518    1.181980
      8          1           0        1.242722   -1.540745    1.661545
      9          1           0        3.029556    1.572858   -1.654070
     10          1           0        0.578009    1.521874   -1.309628
     11         14           0       -1.143914   -0.188725    0.539674
     12         17           0       -1.995363   -1.559784   -0.757029
     13         17           0       -2.087307    1.632718    0.278019
     14          1           0       -1.404331   -0.660101    1.906080
 ---------------------------------------------------------------------

 SCF Done:  E(RHF) =  -1456.57181740     A.U. after    2 cycles

 The electronic state is 1-A.
 Alpha  occ. eigenvalues --  -99.90272 -99.89950 -76.31236 -15.75601 -11.49589
 Alpha  occ. eigenvalues --  -11.46304 -11.44514 -11.43200 -11.39302 -10.47715
 Alpha  occ. eigenvalues --  -10.47374  -9.67627  -9.67285  -9.67012  -9.66957
 Alpha  occ. eigenvalues --   -9.66653  -9.66615  -5.64933  -2.28908  -2.27649
 Alpha  occ. eigenvalues --   -2.26822  -1.46032  -1.32046  -1.29360  -1.20415
 Alpha  occ. eigenvalues --   -1.12858  -0.90899  -0.90592  -0.80304  -0.70953
 Alpha  occ. eigenvalues --   -0.66707  -0.62813  -0.60860  -0.60172  -0.59133
 Alpha  occ. eigenvalues --   -0.57583  -0.55695  -0.54182  -0.52397  -0.52304
 Alpha  occ. eigenvalues --   -0.48778  -0.47177  -0.39355  -0.36486  -0.35470
 Alpha virt. eigenvalues --    0.02824   0.04768   0.05228   0.05684   0.05766
 Alpha virt. eigenvalues --    0.06701   0.07308   0.07924   0.08589   0.08829
 Alpha virt. eigenvalues --    0.09733   0.10475   0.11506   0.11562   0.12353

 Mulliken charges:
               1
     1  C   -0.752846
     2  C   -1.513578
     3  N   -3.529288
     4  C   -0.644654
     5  C   -1.217378
     6  C    0.868974
     7  H    1.521098
     8  H    1.698924
     9  H    1.546976
    10  H    1.637596
    11  Si   4.031496
    12  Cl  -0.900569
    13  Cl  -0.857588
    14  H   -1.889163
 Sum of Mulliken charges =   0.00000

 Dipole moment (field-independent basis, Debye):
    X=              0.8223    Y=             -0.1271    Z=              0.8260  Tot=              1.1724

 Test job not archived.
 1\1\GINC-SE095\SP\RHF\Aug-CC-pVDZ\C5H5Cl2N1Si1\OHZDE\08-Apr-2025\0\\#t
  hf aug-cc-pvdz iop(5/13=1,5/36=2,99/5=2) pseudo=read geom=check guess
 =(read,tcheck) scf=(maxcycle=1)\\title\\0,1\C,0,2.946277,-0.723188,0.6
 44435\C,0,1.582982,-0.834475,0.911393\N,0,3.455231,0.12035,-0.256643\C
 ,0,2.594562,0.892135,-0.927732\C,0,1.215729,0.859729,-0.735413\C,0,0.6
 81467,-0.026626,0.207037\H,0,3.66153,-1.339518,1.18198\H,0,1.242722,-1
 .540745,1.661545\H,0,3.029556,1.572858,-1.65407\H,0,0.578009,1.521874,
 -1.309628\Si,0,-1.143914,-0.188725,0.539674\Cl,0,-1.995363,-1.559784,-

 Normal termination of Gaussian 16 at Tue Apr  8 23:48:51 2025.
