 Gaussian 16, Revision C.01,

 ----------------------------------------------------------------------
 #t hf aug-cc-pvdz symm=none int=(grid=ultrafine) guess=(read,tcheck) s
 table=opt
 ----------------------------------------------------------------------
 -----
 title
 -----
 Symbolic Z-matrix:
 Charge =  0 Multiplicity = 2

 SCF Done:  E(UHF) =  -100.702601124     A.U. after   14 cycles
 Normal termination of Gaussian 16 at Wed Apr  9 00:29:39 2025.
 Gaussian 16:  ES64L-G16RevC.01  3-Jul-2019

 ----------------------------------------------------------------------
 #t hf aug-cc-pvdz iop(5/13=1,5/36=2,99/5=2) pseudo=read geom=check gue
 ss=(read,tcheck) scf=(maxcycle=1)
 ----------------------------------------------------------------------
 -----
 title
 -----
 Structure from the checkpoint file:  "BDE49_nonexpt_328_mol3.chk"
 Charge =  0 Multiplicity = 2

                         Standard orientation:
 ---------------------------------------------------------------------
 Center     Atomic      Atomic             Coordinates (Angstroms)
 Number     Number       Type             X           Y           Z
 ---------------------------------------------------------------------
      1          5           0       -0.748367    0.245212    0.000001
      2          8           0        0.526400   -0.154112   -0.000001
      3          1           0       -1.640923   -0.554147    0.000001
      4          1           0        1.171560    0.560985   -0.000001
 ---------------------------------------------------------------------

 SCF Done:  E(UHF) =  -101.106807340     A.U. after    2 cycles

 The electronic state is 2-A.
 Alpha  occ. eigenvalues --  -21.08272  -7.65192  -1.75403  -0.78487  -0.57782
 Alpha  occ. eigenvalues --   -0.51678  -0.44620  -0.29790
 Alpha virt. eigenvalues --    0.03250   0.04221   0.05059   0.05597   0.10152
 Alpha virt. eigenvalues --    0.12224   0.13999   0.18604   0.23013   0.23383
 Alpha virt. eigenvalues --    0.24102   0.24945   0.25885   0.30074   0.31334

  Beta  occ. eigenvalues --  -21.08145  -7.63445  -1.74699  -0.75572  -0.53253
  Beta  occ. eigenvalues --   -0.48753  -0.44586
  Beta virt. eigenvalues --    0.02785   0.04410   0.04581   0.05515   0.08456
  Beta virt. eigenvalues --    0.10454   0.16357   0.16363   0.19311   0.23473
  Beta virt. eigenvalues --    0.23858   0.25231   0.25331   0.26846   0.31016

 Mulliken charges and spin densities:
               1          2
     1  B    2.780821   1.044714
     2  O   -2.557385  -0.116708
     3  H   -1.582370   0.064560
     4  H    1.358934   0.007434
 Sum of Mulliken charges =  -0.00000   1.00000

 Dipole moment (field-independent basis, Debye):
    X=              1.2688    Y=              0.1642    Z=             -0.0000  Tot=              1.2794
                          Isotropic Fermi Contact Couplings
        Atom                 a.u.       MegaHertz       Gauss      10(-4) cm-1
     1  B(11)              0.20814     298.54969     106.52995      99.58546
     2  O(17)             -0.00186       1.12523       0.40151       0.37533
     3  H(1)               0.02943     131.55531      46.94220      43.88213
     4  H(1)               0.00777      34.75075      12.39993      11.59160
 --------------------------------------------------------
       Center         ----  Spin Dipole Couplings  ----
                      3XX-RR        3YY-RR        3ZZ-RR
 --------------------------------------------------------

 Normal termination of Gaussian 16 at Wed Apr  9 00:29:40 2025.
