 Gaussian 16, Revision C.01,

 ----------------------------------------------------------------------
 #t hf aug-cc-pvdz symm=none int=(grid=ultrafine) guess=(read,tcheck) s
 table=(opt,rrhf)
 ----------------------------------------------------------------------
 -----
 title
 -----
 Symbolic Z-matrix:
 Charge =  0 Multiplicity = 1

 SCF Done:  E(RHF) =  -683.257278595     A.U. after   11 cycles

 1\1\GINC-SE333\Stability\RHF\Aug-CC-pVDZ\B1Cl1F2\OHZDE\09-Apr-2025\0\\
 #t hf aug-cc-pvdz symm=none int=(grid=ultrafine) guess=(read,tcheck) s
 table=(opt,rrhf)\\title\\0,1\F,0,-0.000133,-1.111043,1.134279\B,0,-0.0
 00133,-0.44566,0.\Cl,0,0.00018,1.307475,0.\F,0,-0.000133,-1.111043,-1.
 134279\\Version=ES64L-G16RevC.01\HF=-683.2572786\RMSD=4.719e-09\Dipole
 =-0.0001258,0.0858477,0.\Quadrupole=1.7756335,-0.4262135,-1.34942,-0.0
 000098,0.,0.\PG=Unknown\\@
 The archive entry for this job was punched.

 Normal termination of Gaussian 16 at Wed Apr  9 00:09:27 2025.
 Gaussian 16:  ES64L-G16RevC.01  3-Jul-2019

 ----------------------------------------------------------------------
 #t hf aug-cc-pvdz iop(5/13=1,5/36=2,99/5=2) pseudo=read geom=check gue
 ss=(read,tcheck) scf=(maxcycle=1)
 ----------------------------------------------------------------------
 -----
 title
 -----
 Structure from the checkpoint file:  "BDE49_nonexpt_232_mol1.chk"
 Charge =  0 Multiplicity = 1

                         Standard orientation:
 ---------------------------------------------------------------------
 Center     Atomic      Atomic             Coordinates (Angstroms)
 Number     Number       Type             X           Y           Z
 ---------------------------------------------------------------------
      1          9           0       -0.000133   -1.111043    1.134279
      2          5           0       -0.000133   -0.445660    0.000000
      3         17           0        0.000180    1.307475   -0.000000
      4          9           0       -0.000133   -1.111043   -1.134279
 ---------------------------------------------------------------------

 SCF Done:  E(RHF) =  -684.278364353     A.U. after    2 cycles

 The electronic state is 1-A'.
 Alpha  occ. eigenvalues --  -99.91838 -29.28537 -29.28441 -10.49184  -9.69168
 Alpha  occ. eigenvalues --   -9.68539  -9.68362  -7.76878  -1.40185  -1.09791
 Alpha  occ. eigenvalues --   -0.80762  -0.70244  -0.61254  -0.56341  -0.48901
 Alpha  occ. eigenvalues --   -0.48659  -0.47178  -0.36757  -0.35141  -0.32654
 Alpha virt. eigenvalues --    0.02736   0.03570   0.05523   0.06552   0.08546
 Alpha virt. eigenvalues --    0.14057   0.14935   0.15337   0.17317   0.17861
 Alpha virt. eigenvalues --    0.19137   0.19359   0.21812   0.22446   0.25622

 Mulliken charges:
               1
     1  F    0.131092
     2  B    0.845196
     3  Cl  -1.107380
     4  F    0.131092
 Sum of Mulliken charges =  -0.00000

 Dipole moment (field-independent basis, Debye):
    X=             -0.0004    Y=             -4.0032    Z=              0.0000  Tot=              4.0032

 Test job not archived.
 1\1\GINC-SE333\SP\RHF\Aug-CC-pVDZ\B1Cl1F2\OHZDE\09-Apr-2025\0\\#t hf a
 ug-cc-pvdz iop(5/13=1,5/36=2,99/5=2) pseudo=read geom=check guess=(rea
 d,tcheck) scf=(maxcycle=1)\\title\\0,1\F,0,-0.000133,-1.111043,1.13427
 9\B,0,-0.000133,-0.44566,0.\Cl,0,0.00018,1.307475,0.\F,0,-0.000133,-1.
 111043,-1.134279\\Version=ES64L-G16RevC.01\State=1-A'\HF=-684.2783644\
 RMSD=2.140e-01\Dipole=-0.0001616,-1.5749619,0.\Quadrupole=-2.4960016,-
 0.5576153,3.0536168,0.0001746,0.,0.\PG=CS [SG(B1Cl1),X(F2)]\\@

 Normal termination of Gaussian 16 at Wed Apr  9 00:09:29 2025.
