 Gaussian 16, Revision C.01,

 ----------------------------------------------------------------------
 #t hf aug-cc-pvdz symm=none int=(grid=ultrafine) guess=(read,tcheck) s
 table=opt
 ----------------------------------------------------------------------
 -----
 title
 -----
 Symbolic Z-matrix:
 Charge =  0 Multiplicity = 2

 SCF Done:  E(UHF) =  -823.315602271     A.U. after   20 cycles
 Normal termination of Gaussian 16 at Tue Apr  8 23:56:18 2025.
 Gaussian 16:  ES64L-G16RevC.01  3-Jul-2019

 ----------------------------------------------------------------------
 #t hf aug-cc-pvdz iop(5/13=1,5/36=2,99/5=2) pseudo=read geom=check gue
 ss=(read,tcheck) scf=(maxcycle=1)
 ----------------------------------------------------------------------
 -----
 title
 -----
 Structure from the checkpoint file:  "BDE49_nonexpt_1982_mol2.chk"
 Charge =  0 Multiplicity = 2

                         Standard orientation:
 ---------------------------------------------------------------------
 Center     Atomic      Atomic             Coordinates (Angstroms)
 Number     Number       Type             X           Y           Z
 ---------------------------------------------------------------------
      1         14           0        0.000000    0.770830    0.000000
      2          8           0        1.466588    1.194606    0.000000
      3         17           0       -0.690159   -1.196969    0.000000
 ---------------------------------------------------------------------

 SCF Done:  E(UHF) =  -823.980647054     A.U. after    2 cycles

 The electronic state is 2-A'.
 Alpha  occ. eigenvalues --  -99.93507 -76.32444 -21.06622 -10.50844  -9.71019
 Alpha  occ. eigenvalues --   -9.69938  -9.69847  -5.66850  -2.34326  -2.25845
 Alpha  occ. eigenvalues --   -2.23518  -1.56516  -1.33822  -0.73253  -0.58141
 Alpha  occ. eigenvalues --   -0.57791  -0.51346  -0.38837  -0.38288  -0.33258
 Alpha virt. eigenvalues --    0.03294   0.04900   0.05504   0.07113   0.08326
 Alpha virt. eigenvalues --    0.11508   0.13183   0.14615   0.15052   0.15949
 Alpha virt. eigenvalues --    0.17982   0.20756   0.21650   0.25679   0.26054

  Beta  occ. eigenvalues --  -99.93251 -76.31954 -21.05630 -10.50560  -9.70098
  Beta  occ. eigenvalues --   -9.69718  -9.69643  -5.65987  -2.33454  -2.23946
  Beta  occ. eigenvalues --   -2.22643  -1.53676  -1.31591  -0.68566  -0.57417
  Beta  occ. eigenvalues --   -0.57130  -0.42560  -0.38192  -0.37055
  Beta virt. eigenvalues --   -0.02208   0.04844   0.05747   0.06672   0.08184
  Beta virt. eigenvalues --    0.09757   0.11737   0.14189   0.14747   0.15951
  Beta virt. eigenvalues --    0.18589   0.18739   0.21090   0.22063   0.25942

 Mulliken charges and spin densities:
               1          2
     1  Si   2.537690   0.689297
     2  O   -1.799687   0.202575
     3  Cl  -0.738004   0.108128
 Sum of Mulliken charges =   0.00000   1.00000

 Dipole moment (field-independent basis, Debye):
    X=             -1.5955    Y=              0.7668    Z=              0.0000  Tot=              1.7702
                          Isotropic Fermi Contact Couplings
        Atom                 a.u.       MegaHertz       Gauss      10(-4) cm-1
     1  Si(29)             0.61724    -548.55447    -195.73788    -182.97808
     2  O(17)              0.05655     -34.28141     -12.23246     -11.43505
     3  Cl(35)             0.17995      78.90333      28.15467      26.31932
 --------------------------------------------------------
       Center         ----  Spin Dipole Couplings  ----
                      3XX-RR        3YY-RR        3ZZ-RR
 --------------------------------------------------------
     1   Atom        1.479898     -0.792131     -0.687767

 Normal termination of Gaussian 16 at Tue Apr  8 23:56:19 2025.
