 Gaussian 16, Revision C.01,

 ----------------------------------------------------------------------
 #t hf aug-cc-pvdz symm=none int=(grid=ultrafine) guess=(read,tcheck) s
 table=(opt,rrhf)
 ----------------------------------------------------------------------
 -----
 title
 -----
 Symbolic Z-matrix:
 Charge =  0 Multiplicity = 1

 SCF Done:  E(RHF) =  -175.574134638     A.U. after   12 cycles
 Normal termination of Gaussian 16 at Wed Apr  9 00:38:52 2025.
 Gaussian 16:  ES64L-G16RevC.01  3-Jul-2019

 ----------------------------------------------------------------------
 #t hf aug-cc-pvdz iop(5/13=1,5/36=2,99/5=2) pseudo=read geom=check gue
 ss=(read,tcheck) scf=(maxcycle=1)
 ----------------------------------------------------------------------
 -----
 title
 -----
 Structure from the checkpoint file:  "BDE49_nonexpt_582_mol1.chk"
 Charge =  0 Multiplicity = 1

                         Standard orientation:
 ---------------------------------------------------------------------
 Center     Atomic      Atomic             Coordinates (Angstroms)
 Number     Number       Type             X           Y           Z
 ---------------------------------------------------------------------
      1          7           0       -0.693384   -0.259212   -0.320471
      2          6           0        0.536897    0.511571   -0.237236
      3          5           0       -1.908186    0.026227    0.285950
      4          7           0        1.626209   -0.343788    0.222165
      5          1           0        0.323395    1.379609    0.399267
      6          1           0        0.815487    0.886305   -1.229074
      7          1           0        1.532181   -0.536680    1.214670
      8          1           0        2.523332    0.107251    0.077705
      9          1           0       -2.006493    1.012028    0.952936
     10          1           0       -2.824043   -0.720693    0.126740
     11          1           0       -0.574082   -1.107377   -0.860441
 ---------------------------------------------------------------------

 SCF Done:  E(RHF) =  -176.426920571     A.U. after    2 cycles

 The electronic state is 1-A.
 Alpha  occ. eigenvalues --  -15.73606 -15.70843 -11.41466  -7.59066  -1.41900
 Alpha  occ. eigenvalues --   -1.26292  -0.94810  -0.80999  -0.69163  -0.61887
 Alpha  occ. eigenvalues --   -0.58248  -0.55690  -0.49245  -0.44325  -0.38390
 Alpha  occ. eigenvalues --   -0.36342
 Alpha virt. eigenvalues --    0.03535   0.03823   0.04109   0.04972   0.06282
 Alpha virt. eigenvalues --    0.07214   0.07704   0.08931   0.10916   0.12270
 Alpha virt. eigenvalues --    0.12830   0.13209   0.14953   0.16393   0.17586

 Mulliken charges:
               1
     1  N   -2.634728
     2  C   -0.919421
     3  B    7.071891
     4  N   -2.200734
     5  H    1.554036
     6  H    1.434814
     7  H    0.558401
     8  H    0.631823
     9  H   -3.030122
    10  H   -3.513565
    11  H    1.047605
 Sum of Mulliken charges =  -0.00000

 Dipole moment (field-independent basis, Debye):
    X=              1.8343    Y=              0.3868    Z=             -0.1591  Tot=              1.8814

 Test job not archived.
 1\1\GINC-SE059\SP\RHF\Aug-CC-pVDZ\C1H7B1N2\OHZDE\09-Apr-2025\0\\#t hf
 aug-cc-pvdz iop(5/13=1,5/36=2,99/5=2) pseudo=read geom=check guess=(re
 ad,tcheck) scf=(maxcycle=1)\\title\\0,1\N,0,-0.693384,-0.259212,-0.320
 471\C,0,0.536897,0.511571,-0.237236\B,0,-1.908186,0.026227,0.28595\N,0
 ,1.626209,-0.343788,0.222165\H,0,0.323395,1.379609,0.399267\H,0,0.8154
 87,0.886305,-1.229074\H,0,1.532181,-0.53668,1.21467\H,0,2.523332,0.107
 251,0.077705\H,0,-2.006493,1.012028,0.952936\H,0,-2.824043,-0.720693,0
 .12674\H,0,-0.574082,-1.107377,-0.860441\\Version=ES64L-G16RevC.01\Sta

 Normal termination of Gaussian 16 at Wed Apr  9 00:38:55 2025.
