 Gaussian 16, Revision C.01,

 ----------------------------------------------------------------------
 #t hf aug-cc-pvdz symm=none int=(grid=ultrafine) guess=(read,tcheck) s
 table=opt
 ----------------------------------------------------------------------
 -----
 title
 -----
 Symbolic Z-matrix:
 Charge =  0 Multiplicity = 2

 SCF Done:  E(UHF) =  -592.223807732     A.U. after   17 cycles
 Normal termination of Gaussian 16 at Tue Apr  8 23:59:41 2025.
 Gaussian 16:  ES64L-G16RevC.01  3-Jul-2019

 ----------------------------------------------------------------------
 #t hf aug-cc-pvdz iop(5/13=1,5/36=2,99/5=2) pseudo=read geom=check gue
 ss=(read,tcheck) scf=(maxcycle=1)
 ----------------------------------------------------------------------
 -----
 title
 -----
 Structure from the checkpoint file:  "BDE49_nonexpt_2073_mol2.chk"
 Charge =  0 Multiplicity = 2

                         Standard orientation:
 ---------------------------------------------------------------------
 Center     Atomic      Atomic             Coordinates (Angstroms)
 Number     Number       Type             X           Y           Z
 ---------------------------------------------------------------------
      1         14           0        2.280645   -0.089292    0.000148
      2          8           0        0.706605   -0.710176   -0.000065
      3          6           0       -0.388385    0.069783   -0.000274
      4          8           0       -0.375090    1.274732   -0.000093
      5          8           0       -1.474080   -0.703977   -0.000064
      6          6           0       -2.726907    0.006426    0.000106
      7          1           0       -2.810586    0.631997    0.889671
      8          1           0       -3.492902   -0.765241    0.000261
      9          1           0       -2.810864    0.631918   -0.889489
     10          1           0        2.508613    0.704841    1.231357
     11          1           0        2.508989    0.704690   -1.231090
 ---------------------------------------------------------------------

 SCF Done:  E(UHF) =  -593.619191737     A.U. after    2 cycles

 The electronic state is 2-A.
 Alpha  occ. eigenvalues --  -76.27018 -21.10539 -21.09554 -21.05571 -11.54694
 Alpha  occ. eigenvalues --  -11.42475  -5.60260  -2.26131  -2.21676  -2.21191
 Alpha  occ. eigenvalues --   -1.90076  -1.72340  -1.66389  -1.03452  -0.82901
 Alpha  occ. eigenvalues --   -0.72392  -0.68214  -0.65643  -0.61109  -0.58187
 Alpha  occ. eigenvalues --   -0.55721  -0.49978  -0.45481  -0.41097  -0.37926
 Alpha  occ. eigenvalues --   -0.33574  -0.31825  -0.29568
 Alpha virt. eigenvalues --    0.03373   0.04990   0.05357   0.05603   0.06868
 Alpha virt. eigenvalues --    0.07070   0.07679   0.09276   0.11013   0.13422
 Alpha virt. eigenvalues --    0.14043   0.14221   0.14672   0.14975   0.15591

  Beta  occ. eigenvalues --  -76.26440 -21.10538 -21.09443 -21.05584 -11.54612
  Beta  occ. eigenvalues --  -11.42473  -5.59330  -2.25447  -2.21055  -2.17610
  Beta  occ. eigenvalues --   -1.89961  -1.72171  -1.66314  -1.03344  -0.81097
  Beta  occ. eigenvalues --   -0.70639  -0.66809  -0.65603  -0.60694  -0.58069
  Beta  occ. eigenvalues --   -0.55449  -0.48753  -0.45296  -0.40820  -0.37698
  Beta  occ. eigenvalues --   -0.33606  -0.31140
  Beta virt. eigenvalues --    0.02806   0.03704   0.05227   0.05752   0.05832
  Beta virt. eigenvalues --    0.06963   0.07140   0.09398   0.09720   0.11120
  Beta virt. eigenvalues --    0.13607   0.14318   0.14829   0.14880   0.15182

 Mulliken charges and spin densities:
               1          2
     1  Si   3.859921   1.305758
     2  O   -2.561015  -0.377725
     3  C    6.076980   0.048065
     4  O   -2.410327  -0.013987
     5  O   -2.966341  -0.003082
     6  C   -2.950177  -0.001334
     7  H    1.288720  -0.000196
     8  H    1.344513   0.000921
     9  H    1.288659  -0.000198
    10  H   -1.485439   0.020897
    11  H   -1.485493   0.020879
 Sum of Mulliken charges =  -0.00000   1.00000

 Dipole moment (field-independent basis, Debye):
    X=             -0.8121    Y=             -1.1707    Z=              0.0005  Tot=              1.4248
                          Isotropic Fermi Contact Couplings
        Atom                 a.u.       MegaHertz       Gauss      10(-4) cm-1
     1  Si(29)             0.58750    -522.12964    -186.30884    -174.16370
     2  O(17)              0.07057     -42.77772     -15.26416     -14.26911
     3  C(13)              0.02415      27.14539       9.68615       9.05473
     4  O(17)              0.00008      -0.05140      -0.01834      -0.01715
     5  O(17)              0.00146      -0.88695      -0.31648      -0.29585
     6  C(13)              0.00111       1.24517       0.44431       0.41534
     7  H(1)              -0.00002      -0.07610      -0.02715      -0.02538
     8  H(1)               0.00017       0.75166       0.26821       0.25073

 Normal termination of Gaussian 16 at Tue Apr  8 23:59:45 2025.
