 Gaussian 16, Revision C.01,

 ----------------------------------------------------------------------
 #t hf aug-cc-pvdz symm=none int=(grid=ultrafine) guess=(read,tcheck) s
 table=opt
 ----------------------------------------------------------------------
 -----
 title
 -----
 Symbolic Z-matrix:
 Charge =  0 Multiplicity = 2

 SCF Done:  E(UHF) =  -706.000989570     A.U. after   18 cycles
 Normal termination of Gaussian 16 at Tue Apr  8 23:08:45 2025.
 Gaussian 16:  ES64L-G16RevC.01  3-Jul-2019

 ----------------------------------------------------------------------
 #t hf aug-cc-pvdz iop(5/13=1,5/36=2,99/5=2) pseudo=read geom=check gue
 ss=(read,tcheck) scf=(maxcycle=1)
 ----------------------------------------------------------------------
 -----
 title
 -----
 Structure from the checkpoint file:  "BDE49_expt_387_mol2.chk"
 Charge =  0 Multiplicity = 2

                         Standard orientation:
 ---------------------------------------------------------------------
 Center     Atomic      Atomic             Coordinates (Angstroms)
 Number     Number       Type             X           Y           Z
 ---------------------------------------------------------------------
      1          8           0       -0.626423    1.280720   -0.201772
      2          6           0       -2.032608    1.206341    0.031289
      3          6           0       -2.306057   -0.128118    0.727513
      4          1           0       -2.566237    1.256661   -0.924580
      5          1           0       -2.300119    2.064989    0.647916
      6         16           0       -1.159678   -1.290037   -0.111522
      7          1           0       -3.335410   -0.459395    0.594032
      8          1           0       -2.066695   -0.085642    1.791012
      9          6           0       -0.160899    0.083411   -0.699248
     10          6           0        1.326019   -0.018655   -0.808105
     11          6           0        2.082220    0.089398    0.535125
     12          1           0        1.669787    0.779269   -1.477826
     13          1           0        1.576017   -0.965991   -1.297489
     14          6           0        3.600956    0.016449    0.363145
     15          1           0        1.741578   -0.712912    1.197711
     16          1           0        1.804228    1.032325    1.015238
     17          1           0        3.904436   -0.930813   -0.093968
     18          1           0        4.113612    0.098432    1.325517
     19          1           0        3.967252    0.824963   -0.277365
 ---------------------------------------------------------------------

 SCF Done:  E(UHF) =  -707.700941754     A.U. after    2 cycles

 The electronic state is 2-A.
 Alpha  occ. eigenvalues --  -75.68064 -21.07136 -13.12793 -13.11598 -13.02656
 Alpha  occ. eigenvalues --  -11.46215 -11.44242 -11.40829 -11.39929 -11.38058
 Alpha  occ. eigenvalues --  -11.34830  -8.02240  -1.79696  -1.23867  -1.20560
 Alpha  occ. eigenvalues --   -1.10043  -1.00029  -0.87327  -0.86299  -0.77411
 Alpha  occ. eigenvalues --   -0.68112  -0.66200  -0.63430  -0.58783  -0.57053
 Alpha  occ. eigenvalues --   -0.55391  -0.54551  -0.50033  -0.47329  -0.45984
 Alpha  occ. eigenvalues --   -0.44559  -0.42360  -0.41140  -0.35198  -0.27943
 Alpha  occ. eigenvalues --   -0.17920
 Alpha virt. eigenvalues --    0.03705   0.04447   0.05063   0.05523   0.05810
 Alpha virt. eigenvalues --    0.06130   0.06507   0.06883   0.07407   0.07792
 Alpha virt. eigenvalues --    0.08706   0.09847   0.11657   0.11962   0.12958

  Beta  occ. eigenvalues --  -75.68010 -21.06740 -13.12940 -13.11639 -13.02141
  Beta  occ. eigenvalues --  -11.45902 -11.43197 -11.40181 -11.39922 -11.37714
  Beta  occ. eigenvalues --  -11.34693  -8.02171  -1.78369  -1.22766  -1.20244
  Beta  occ. eigenvalues --   -1.08160  -0.99789  -0.87156  -0.85176  -0.73707
  Beta  occ. eigenvalues --   -0.67403  -0.65847  -0.63292  -0.57146  -0.55453
  Beta  occ. eigenvalues --   -0.54786  -0.52167  -0.48142  -0.46252  -0.45737
  Beta  occ. eigenvalues --   -0.43743  -0.40882  -0.37748  -0.33607  -0.24239
  Beta virt. eigenvalues --    0.03668   0.04459   0.05066   0.05525   0.05811
  Beta virt. eigenvalues --    0.06101   0.06513   0.06881   0.07430   0.07811
  Beta virt. eigenvalues --    0.08658   0.09822   0.11395   0.11957   0.12582

 Mulliken charges and spin densities:
               1          2
     1  O   -3.237992   0.057898
     2  C   -1.761365  -0.002962
     3  C   -3.718969   0.017222
     4  H    1.595111  -0.019880
     5  H    1.412354   0.001294
     6  S    1.058537  -0.010149
     7  H    1.340944   0.001495
     8  H    1.480632  -0.002182
     9  C    1.490673   1.356358
    10  C   -2.284939  -0.410819
    11  C   -3.358325   0.058515
    12  H    1.534034  -0.009424
    13  H    1.501904  -0.013253
    14  C   -3.871492  -0.003739
    15  H    1.608115  -0.011681
    16  H    1.546037  -0.007290
    17  H    1.280909  -0.000419
    18  H    1.108239  -0.000361
    19  H    1.275592  -0.000622
 Sum of Mulliken charges =  -0.00000   1.00000

 Dipole moment (field-independent basis, Debye):
    X=             -0.5684    Y=             -0.3533    Z=              0.7190  Tot=              0.9823
                          Isotropic Fermi Contact Couplings
        Atom                 a.u.       MegaHertz       Gauss      10(-4) cm-1
     1  O(17)              0.03115     -18.88144      -6.73737      -6.29817
     2  C(13)             -0.00155      -1.74099      -0.62123      -0.58073
     3  C(13)              0.00040       0.45021       0.16065       0.15017
     4  H(1)               0.00053       2.38428       0.85077       0.79531
     5  H(1)              -0.00061      -2.72147      -0.97109      -0.90778
     6  S(33)              0.12831      44.07170      15.72588      14.70074
     7  H(1)              -0.00061      -2.73099      -0.97448      -0.91096
     8  H(1)               0.00197       8.81523       3.14549       2.94045

 Normal termination of Gaussian 16 at Tue Apr  8 23:08:56 2025.
