 Gaussian 16, Revision C.01,

 ----------------------------------------------------------------------
 #t hf aug-cc-pvdz symm=none int=(grid=ultrafine) guess=(read,tcheck) s
 table=(opt,rrhf)
 ----------------------------------------------------------------------
 -----
 title
 -----
 Symbolic Z-matrix:
 Charge =  0 Multiplicity = 1

 SCF Done:  E(RHF) =  -1913.70550534     A.U. after   11 cycles
 Normal termination of Gaussian 16 at Tue Apr  8 22:48:31 2025.
 Gaussian 16:  ES64L-G16RevC.01  3-Jul-2019

 ----------------------------------------------------------------------
 #t hf aug-cc-pvdz iop(5/13=1,5/36=2,99/5=2) pseudo=read geom=check gue
 ss=(read,tcheck) scf=(maxcycle=1)
 ----------------------------------------------------------------------
 -----
 title
 -----
 Structure from the checkpoint file:  "BDE49_expt_1627_mol1.chk"
 Charge =  0 Multiplicity = 1

                         Standard orientation:
 ---------------------------------------------------------------------
 Center     Atomic      Atomic             Coordinates (Angstroms)
 Number     Number       Type             X           Y           Z
 ---------------------------------------------------------------------
      1          6           0        0.362572    0.564965    0.000000
      2          6           0       -0.362572   -0.564965    0.000000
      3         17           0        2.089916    0.558826    0.000000
      4         17           0       -0.362572    2.132739    0.000000
      5         17           0        0.362572   -2.132739    0.000000
      6         17           0       -2.089916   -0.558826    0.000000
 ---------------------------------------------------------------------

 SCF Done:  E(RHF) =  -1915.03278605     A.U. after    2 cycles

 The electronic state is 1-AG.
 Alpha  occ. eigenvalues --  -99.93261 -99.93248 -99.93227 -99.93226 -11.53947
 Alpha  occ. eigenvalues --  -11.49863 -10.50821 -10.50808 -10.50558 -10.50504
 Alpha  occ. eigenvalues --   -9.70691  -9.70661  -9.70564  -9.70190  -9.69821
 Alpha  occ. eigenvalues --   -9.69768  -9.69573  -9.69570  -9.69545  -9.69529
 Alpha  occ. eigenvalues --   -9.69470  -9.69444  -1.48953  -1.38600  -1.32791
 Alpha  occ. eigenvalues --   -1.31812  -1.09728  -0.87044  -0.73979  -0.73602
 Alpha  occ. eigenvalues --   -0.66830  -0.62443  -0.59566  -0.56635  -0.55590
 Alpha  occ. eigenvalues --   -0.54909  -0.54764  -0.54290  -0.50230  -0.39089
 Alpha virt. eigenvalues --    0.03038   0.03670   0.04073   0.04637   0.05254
 Alpha virt. eigenvalues --    0.08545   0.08644   0.09845   0.12147   0.12401
 Alpha virt. eigenvalues --    0.14152   0.14198   0.15100   0.16268   0.17111

 Mulliken charges:
               1
     1  C   -0.012637
     2  C   -0.012637
     3  Cl   0.006316
     4  Cl   0.006321
     5  Cl   0.006321
     6  Cl   0.006316
 Sum of Mulliken charges =  -0.00000

 Dipole moment (field-independent basis, Debye):
    X=              0.0000    Y=             -0.0000    Z=             -0.0000  Tot=              0.0000

 Test job not archived.
 1\1\GINC-SE252\SP\RHF\Aug-CC-pVDZ\C2Cl4\OHZDE\08-Apr-2025\0\\#t hf aug
 -cc-pvdz iop(5/13=1,5/36=2,99/5=2) pseudo=read geom=check guess=(read,
 tcheck) scf=(maxcycle=1)\\title\\0,1\C,0,-0.000001,-0.6713,0.\C,0,0.00
 0001,0.6713,0.\Cl,0,1.457043,-1.599081,0.\Cl,0,-1.457043,-1.599081,0.\
 Cl,0,1.457043,1.599081,0.\Cl,0,-1.457043,1.599081,0.\\Version=ES64L-G1
 6RevC.01\State=1-AG\HF=-1915.032786\RMSD=5.120e-01\Dipole=0.,0.,0.\Qua
 drupole=2.7420767,0.1916695,-2.9337462,0.0000247,0.,0.\PG=C02H [SGH(C2
 Cl4)]\\@

 Normal termination of Gaussian 16 at Tue Apr  8 22:48:33 2025.
