 Gaussian 16, Revision C.01,

 ----------------------------------------------------------------------
 #t hf aug-cc-pvdz symm=none int=(grid=ultrafine) guess=(read,tcheck) s
 table=(opt,rrhf)
 ----------------------------------------------------------------------
 -----
 title
 -----
 Symbolic Z-matrix:
 Charge =  0 Multiplicity = 1

 SCF Done:  E(RHF) =  -685.042573713     A.U. after   14 cycles
 Normal termination of Gaussian 16 at Tue Apr  8 23:20:51 2025.
 Gaussian 16:  ES64L-G16RevC.01  3-Jul-2019

 ----------------------------------------------------------------------
 #t hf aug-cc-pvdz iop(5/13=1,5/36=2,99/5=2) pseudo=read geom=check gue
 ss=(read,tcheck) scf=(maxcycle=1)
 ----------------------------------------------------------------------
 -----
 title
 -----
 Structure from the checkpoint file:  "BDE49_nonexpt_1144_mol1.chk"
 Charge =  0 Multiplicity = 1

                         Standard orientation:
 ---------------------------------------------------------------------
 Center     Atomic      Atomic             Coordinates (Angstroms)
 Number     Number       Type             X           Y           Z
 ---------------------------------------------------------------------
      1          9           0        1.653864   -0.778890   -0.000023
      2          8           0        1.202465    0.590435   -0.000028
      3          6           0       -0.181003    0.638938   -0.000009
      4          8           0       -0.659536    1.728222   -0.000002
      5         16           0       -0.996441   -0.939597    0.000028
      6          1           0       -2.199145   -0.339327    0.000054
 ---------------------------------------------------------------------

 SCF Done:  E(RHF) =  -686.354102230     A.U. after    2 cycles

 The electronic state is 1-A.
 Alpha  occ. eigenvalues --  -75.75432 -29.34224 -21.21405 -21.10648 -13.19118
 Alpha  occ. eigenvalues --  -13.16940 -13.06719 -11.57159  -8.09511  -1.90856
 Alpha  occ. eigenvalues --   -1.71959  -1.20598  -0.87479  -0.74526  -0.63349
 Alpha  occ. eigenvalues --   -0.63008  -0.55370  -0.50261  -0.46478  -0.39404
 Alpha  occ. eigenvalues --   -0.35583  -0.30605  -0.28457  -0.25237
 Alpha virt. eigenvalues --    0.03219   0.07211   0.10225   0.10726   0.11087
 Alpha virt. eigenvalues --    0.12019   0.12780   0.14324   0.16287   0.18523
 Alpha virt. eigenvalues --    0.19182   0.22273   0.22652   0.23887   0.24790

 Mulliken charges:
               1
     1  F    0.055934
     2  O   -1.320865
     3  C    2.779142
     4  O   -2.414992
     5  S   -0.158599
     6  H    1.059381
 Sum of Mulliken charges =  -0.00000

 Dipole moment (field-independent basis, Debye):
    X=              1.1545    Y=             -4.1783    Z=              0.0000  Tot=              4.3349

 Test job not archived.
 1\1\GINC-SE368\SP\RHF\Aug-CC-pVDZ\C1H1F1O2S1\OHZDE\08-Apr-2025\0\\#t h
 f aug-cc-pvdz iop(5/13=1,5/36=2,99/5=2) pseudo=read geom=check guess=(
 read,tcheck) scf=(maxcycle=1)\\title\\0,1\F,0,1.653864,-0.77889,-0.000
 023\O,0,1.202465,0.590435,-0.000028\C,0,-0.181003,0.638938,-0.000009\O
 ,0,-0.659536,1.728222,-0.000002\S,0,-0.996441,-0.939597,0.000028\H,0,-
 2.199145,-0.339327,0.000054\\Version=ES64L-G16RevC.01\State=1-A\HF=-68
 6.3541022\RMSD=8.475e-02\Dipole=0.4542291,-1.6438793,0.0000135\Quadrup
 ole=2.0956445,-0.4884224,-1.607222,0.5969741,-0.0001051,-0.0000365\PG=

 Normal termination of Gaussian 16 at Tue Apr  8 23:20:53 2025.
