 Gaussian 16, Revision C.01,

 ----------------------------------------------------------------------
 #t hf aug-cc-pvdz symm=none int=(grid=ultrafine) guess=(read,tcheck) s
 table=(opt,rrhf)
 ----------------------------------------------------------------------
 -----
 title
 -----
 Symbolic Z-matrix:
 Charge =  0 Multiplicity = 1

 SCF Done:  E(RHF) =  -1046.23903574     A.U. after   16 cycles
 Normal termination of Gaussian 16 at Wed Apr  9 00:18:08 2025.
 Gaussian 16:  ES64L-G16RevC.01  3-Jul-2019

 ----------------------------------------------------------------------
 #t hf aug-cc-pvdz iop(5/13=1,5/36=2,99/5=2) pseudo=read geom=check gue
 ss=(read,tcheck) scf=(maxcycle=1)
 ----------------------------------------------------------------------
 -----
 title
 -----
 Structure from the checkpoint file:  "BDE49_nonexpt_2559_mol1.chk"
 Charge =  0 Multiplicity = 1

                         Standard orientation:
 ---------------------------------------------------------------------
 Center     Atomic      Atomic             Coordinates (Angstroms)
 Number     Number       Type             X           Y           Z
 ---------------------------------------------------------------------
      1         17           0        1.857580   -0.801612    0.009994
      2         16           0        0.722380    0.963203   -0.081238
      3          8           0       -0.692421    0.598245    0.512045
      4          8           0       -1.641630    0.018713   -0.583458
      5          6           0       -2.628335   -0.684313    0.139358
      6          1           0       -3.297070   -1.066013   -0.638685
      7          1           0       -3.193512   -0.023892    0.805130
      8          1           0       -2.203941   -1.523729    0.698630
 ---------------------------------------------------------------------

 SCF Done:  E(RHF) =  -1047.51536960     A.U. after    2 cycles

 The electronic state is 1-A.
 Alpha  occ. eigenvalues --  -99.90761 -75.79114 -21.15502 -21.13573 -13.29374
 Alpha  occ. eigenvalues --  -13.12791 -13.12201 -11.42548 -10.47891  -9.67612
 Alpha  occ. eigenvalues --   -9.66983  -9.66912  -8.12934  -1.93553  -1.57696
 Alpha  occ. eigenvalues --   -1.31583  -1.01929  -0.97629  -0.65688  -0.64083
 Alpha  occ. eigenvalues --   -0.59916  -0.58756  -0.56341  -0.54569  -0.48766
 Alpha  occ. eigenvalues --   -0.44826  -0.40475  -0.32979  -0.25722
 Alpha virt. eigenvalues --    0.03422   0.04606   0.05885   0.06283   0.07948
 Alpha virt. eigenvalues --    0.09628   0.11289   0.12190   0.13261   0.14586
 Alpha virt. eigenvalues --    0.14700   0.15258   0.16064   0.17494   0.18159

 Mulliken charges:
               1
     1  Cl  -0.482811
     2  S    1.663036
     3  O   -1.240732
     4  O   -1.421048
     5  C   -2.377082
     6  H    1.267776
     7  H    1.297169
     8  H    1.293691
 Sum of Mulliken charges =  -0.00000

 Dipole moment (field-independent basis, Debye):
    X=             -2.4573    Y=              2.2459    Z=             -0.3941  Tot=              3.3523

 Test job not archived.
 1\1\GINC-SE090\SP\RHF\Aug-CC-pVDZ\C1H3Cl1O2S1\OHZDE\09-Apr-2025\0\\#t
 hf aug-cc-pvdz iop(5/13=1,5/36=2,99/5=2) pseudo=read geom=check guess=
 (read,tcheck) scf=(maxcycle=1)\\title\\0,1\Cl,0,-1.85758,0.801611,0.00
 9994\S,0,-0.72238,-0.963203,-0.081238\O,0,0.692421,-0.598245,0.512045\
 O,0,1.64163,-0.018713,-0.583458\C,0,2.628335,0.684314,0.139358\H,0,3.2
 9707,1.066014,-0.638685\H,0,3.193512,0.023893,0.80513\H,0,2.203941,1.5
 23729,0.69863\\Version=ES64L-G16RevC.01\State=1-A\HF=-1047.5153696\RMS
 D=4.629e-02\Dipole=0.9667672,-0.8836179,-0.1550458\Quadrupole=0.562515

 Normal termination of Gaussian 16 at Wed Apr  9 00:18:10 2025.
