 Gaussian 16, Revision C.01,

 ----------------------------------------------------------------------
 #t hf aug-cc-pvdz symm=none int=(grid=ultrafine) guess=(read,tcheck) s
 table=opt
 ----------------------------------------------------------------------
 -----
 title
 -----
 Symbolic Z-matrix:
 Charge =  0 Multiplicity = 2

 SCF Done:  E(UHF) =  -576.576651731     A.U. after   17 cycles

 1\1\GINC-SE247\Stability\UHF\Aug-CC-pVDZ\C3H6Cl1\OHZDE\08-Apr-2025\0\\
 #t hf aug-cc-pvdz symm=none int=(grid=ultrafine) guess=(read,tcheck) s
 table=opt\\title\\0,2\C,0,-2.035068,-0.551174,0.133379\C,0,-1.114368,0
 .49143,-0.394153\H,0,-2.038496,-0.576536,1.226951\H,0,-1.731768,-1.552
 489,-0.208836\H,0,-3.059226,-0.39631,-0.217301\C,0,0.098551,0.886731,0
 .301457\H,0,-1.232827,0.813773,-1.423746\H,0,0.022852,0.847752,1.38579
 6\H,0,0.517421,1.83149,-0.032551\Cl,0,1.519256,-0.3488,-0.057318\\Vers
 ion=ES64L-G16RevC.01\HF=-576.5766517\S2=0.774457\S2-1=0.\S2A=0.750418\

 Normal termination of Gaussian 16 at Tue Apr  8 22:44:33 2025.
 Gaussian 16:  ES64L-G16RevC.01  3-Jul-2019

 ----------------------------------------------------------------------
 #t hf aug-cc-pvdz iop(5/13=1,5/36=2,99/5=2) pseudo=read geom=check gue
 ss=(read,tcheck) scf=(maxcycle=1)
 ----------------------------------------------------------------------
 -----
 title
 -----
 Structure from the checkpoint file:  "BDE49_expt_146_mol2.chk"
 Charge =  0 Multiplicity = 2

                         Standard orientation:
 ---------------------------------------------------------------------
 Center     Atomic      Atomic             Coordinates (Angstroms)
 Number     Number       Type             X           Y           Z
 ---------------------------------------------------------------------
      1          6           0       -2.035068   -0.551174    0.133379
      2          6           0       -1.114368    0.491430   -0.394153
      3          1           0       -2.038496   -0.576536    1.226951
      4          1           0       -1.731768   -1.552489   -0.208836
      5          1           0       -3.059226   -0.396310   -0.217301
      6          6           0        0.098551    0.886731    0.301457
      7          1           0       -1.232827    0.813773   -1.423746
      8          1           0        0.022852    0.847752    1.385796
      9          1           0        0.517421    1.831490   -0.032551
     10         17           0        1.519256   -0.348800   -0.057318
 ---------------------------------------------------------------------

 SCF Done:  E(UHF) =  -577.405233807     A.U. after    2 cycles

 The electronic state is 2-A.
 Alpha  occ. eigenvalues --  -99.86614 -11.45645 -11.41570 -11.37497 -10.43682
 Alpha  occ. eigenvalues --   -9.63928  -9.62875  -9.62856  -1.31855  -1.18858
 Alpha  occ. eigenvalues --   -1.01201  -0.84253  -0.67347  -0.62501  -0.60308
 Alpha  occ. eigenvalues --   -0.55863  -0.53156  -0.51359  -0.46998  -0.46592
 Alpha  occ. eigenvalues --   -0.33219
 Alpha virt. eigenvalues --    0.03071   0.05166   0.05837   0.06393   0.06582
 Alpha virt. eigenvalues --    0.07105   0.08483   0.11369   0.11952   0.12516
 Alpha virt. eigenvalues --    0.14106   0.15661   0.15765   0.16829   0.17307

  Beta  occ. eigenvalues --  -99.86356 -11.45742 -11.40631 -11.36842 -10.43401
  Beta  occ. eigenvalues --   -9.62886  -9.62717  -9.62680  -1.29684  -1.15066
  Beta  occ. eigenvalues --   -1.01005  -0.80365  -0.66667  -0.60257  -0.57398
  Beta  occ. eigenvalues --   -0.54174  -0.52404  -0.50672  -0.46464  -0.45830
  Beta virt. eigenvalues --    0.02864   0.04665   0.05443   0.05884   0.06410
  Beta virt. eigenvalues --    0.06598   0.07113   0.10324   0.11712   0.12175
  Beta virt. eigenvalues --    0.13374   0.14232   0.15833   0.16005   0.16976

 Mulliken charges and spin densities:
               1          2
     1  C   -3.843348  -0.332124
     2  C   -0.430408   1.580722
     3  H    1.237862   0.008415
     4  H    1.234608   0.029174
     5  H    1.297384   0.002906
     6  C   -3.889496  -0.448982
     7  H    1.296346  -0.012970
     8  H    1.544784   0.004484
     9  H    1.503598   0.001096
    10  Cl   0.048670   0.167278
 Sum of Mulliken charges =  -0.00000   1.00000

 Dipole moment (field-independent basis, Debye):
    X=             -2.6791    Y=              1.4535    Z=              0.2573  Tot=              3.0588
                          Isotropic Fermi Contact Couplings
        Atom                 a.u.       MegaHertz       Gauss      10(-4) cm-1
     1  C(13)             -0.03267     -36.73225     -13.10698     -12.25256
     2  C(13)              0.13049     146.69302      52.34372      48.93152
     3  H(1)               0.00436      19.50021       6.95816       6.50457
     4  H(1)               0.02018      90.19159      32.18260      30.08468
     5  H(1)               0.00671      29.99546      10.70312      10.00541
     6  C(13)             -0.01925     -21.64078      -7.72197      -7.21859
     7  H(1)              -0.01615     -72.20194     -25.76345     -24.08397
     8  H(1)               0.00431      19.24427       6.86684       6.41920

 Normal termination of Gaussian 16 at Tue Apr  8 22:44:36 2025.
