 Gaussian 16, Revision C.01,

 ----------------------------------------------------------------------
 #t hf aug-cc-pvdz symm=none int=(grid=ultrafine) guess=(read,tcheck) s
 table=opt
 ----------------------------------------------------------------------
 -----
 title
 -----
 Symbolic Z-matrix:
 Charge =  0 Multiplicity = 2

 SCF Done:  E(UHF) =  -230.398763913     A.U. after   21 cycles
 Normal termination of Gaussian 16 at Tue Apr  8 22:43:45 2025.
 Gaussian 16:  ES64L-G16RevC.01  3-Jul-2019

 ----------------------------------------------------------------------
 #t hf aug-cc-pvdz iop(5/13=1,5/36=2,99/5=2) pseudo=read geom=check gue
 ss=(read,tcheck) scf=(maxcycle=1)
 ----------------------------------------------------------------------
 -----
 title
 -----
 Structure from the checkpoint file:  "BDE49_expt_1445_mol2.chk"
 Charge =  0 Multiplicity = 2

                         Standard orientation:
 ---------------------------------------------------------------------
 Center     Atomic      Atomic             Coordinates (Angstroms)
 Number     Number       Type             X           Y           Z
 ---------------------------------------------------------------------
      1          6           0       -1.219210   -0.101172   -0.378018
      2          8           0       -2.249459   -0.473167    0.061190
      3          6           0       -0.180927    0.795771    0.285874
      4          6           0        1.240848    0.574744   -0.238049
      5          1           0       -0.249385    0.651341    1.371834
      6          1           0       -0.518003    1.817071    0.069010
      7          6           0        1.795516   -0.810478    0.103201
      8          1           0        1.890100    1.348952    0.182520
      9          1           0        1.242978    0.718521   -1.323163
     10          1           0        1.828961   -0.967844    1.185750
     11          1           0        2.809658   -0.935803   -0.283788
     12          1           0        1.174003   -1.600093   -0.329732
 ---------------------------------------------------------------------

 SCF Done:  E(UHF) =  -231.468103844     A.U. after    2 cycles

 The electronic state is 2-A.
 Alpha  occ. eigenvalues --  -21.10137 -11.48146 -11.43762 -11.40544 -11.36738
 Alpha  occ. eigenvalues --   -1.74087  -1.24227  -1.05085  -0.88516  -0.75606
 Alpha  occ. eigenvalues --   -0.64424  -0.62884  -0.60169  -0.55403  -0.52710
 Alpha  occ. eigenvalues --   -0.49222  -0.48505  -0.45985  -0.43517  -0.25812
 Alpha virt. eigenvalues --    0.03782   0.05207   0.05582   0.05744   0.06016
 Alpha virt. eigenvalues --    0.06916   0.07308   0.09699   0.10850   0.12923
 Alpha virt. eigenvalues --    0.13695   0.14036   0.14678   0.15158   0.15603

  Beta  occ. eigenvalues --  -21.09101 -11.46476 -11.43369 -11.40331 -11.36695
  Beta  occ. eigenvalues --   -1.71712  -1.23430  -1.03701  -0.87628  -0.70393
  Beta  occ. eigenvalues --   -0.64029  -0.62300  -0.57577  -0.53002  -0.49312
  Beta  occ. eigenvalues --   -0.48745  -0.47839  -0.43149  -0.39289
  Beta virt. eigenvalues --    0.02994   0.05088   0.05523   0.05651   0.06032
  Beta virt. eigenvalues --    0.06771   0.07325   0.09548   0.10251   0.11429
  Beta virt. eigenvalues --    0.13430   0.14062   0.14242   0.14756   0.15359

 Mulliken charges and spin densities:
               1          2
     1  C    2.023704   0.869174
     2  O   -2.337827   0.189665
     3  C   -2.628161   0.078168
     4  C   -3.019225  -0.073003
     5  H    1.385250   0.011802
     6  H    1.461301  -0.004544
     7  C   -3.492105  -0.031469
     8  H    1.314350  -0.002161
     9  H    1.491839  -0.025894
    10  H    1.260070  -0.003539
    11  H    1.155785  -0.000158
    12  H    1.385018  -0.008042
 Sum of Mulliken charges =  -0.00000   1.00000

 Dipole moment (field-independent basis, Debye):
    X=              1.0599    Y=              0.8259    Z=              0.8029  Tot=              1.5653
                          Isotropic Fermi Contact Couplings
        Atom                 a.u.       MegaHertz       Gauss      10(-4) cm-1
     1  C(13)              0.16194     182.04817      64.95931      60.72473
     2  O(17)              0.08379     -50.79069     -18.12338     -16.94195
     3  C(13)              0.11214     126.06468      44.98301      42.05065
     4  C(13)             -0.00207      -2.32332      -0.82902      -0.77498
     5  H(1)               0.00308      13.78740       4.91969       4.59898
     6  H(1)              -0.00181      -8.06900      -2.87922      -2.69153
     7  C(13)              0.00033       0.36618       0.13066       0.12215
     8  H(1)               0.00019       0.84558       0.30172       0.28205

 Normal termination of Gaussian 16 at Tue Apr  8 22:43:48 2025.
