 Gaussian 16, Revision C.01,

 ----------------------------------------------------------------------
 #t hf aug-cc-pvdz symm=none int=(grid=ultrafine) guess=(read,tcheck) s
 table=(opt,rrhf)
 ----------------------------------------------------------------------
 -----
 title
 -----
 Symbolic Z-matrix:
 Charge =  0 Multiplicity = 1

 SCF Done:  E(RHF) =  -496.867291820     A.U. after   13 cycles
 Normal termination of Gaussian 16 at Tue Apr  8 23:52:22 2025.
 Gaussian 16:  ES64L-G16RevC.01  3-Jul-2019

 ----------------------------------------------------------------------
 #t hf aug-cc-pvdz iop(5/13=1,5/36=2,99/5=2) pseudo=read geom=check gue
 ss=(read,tcheck) scf=(maxcycle=1)
 ----------------------------------------------------------------------
 -----
 title
 -----
 Structure from the checkpoint file:  "BDE49_nonexpt_1912_mol1.chk"
 Charge =  0 Multiplicity = 1

                         Standard orientation:
 ---------------------------------------------------------------------
 Center     Atomic      Atomic             Coordinates (Angstroms)
 Number     Number       Type             X           Y           Z
 ---------------------------------------------------------------------
      1         14           0       -2.044266   -0.096747    0.000004
      2          6           0       -0.290574    0.637306    0.000025
      3          1           0       -2.979470    1.050234    0.000033
      4          1           0       -2.237001   -0.915886    1.213912
      5          1           0       -2.237000   -0.915825   -1.213946
      6          8           0        0.663096   -0.487229    0.000014
      7          6           0        1.909397   -0.161365    0.000033
      8          7           0        3.037929    0.097310   -0.000085
      9          1           0       -0.105009    1.248453    0.887146
     10          1           0       -0.105010    1.248499   -0.887064
 ---------------------------------------------------------------------

 SCF Done:  E(RHF) =  -497.918995524     A.U. after    2 cycles

 The electronic state is 1-A.
 Alpha  occ. eigenvalues --  -76.24392 -21.15285 -15.75301 -11.48122 -11.44163
 Alpha  occ. eigenvalues --   -5.57941  -2.21649  -2.20264  -2.20159  -1.84589
 Alpha  occ. eigenvalues --   -1.28606  -1.04929  -0.78990  -0.74189  -0.67298
 Alpha  occ. eigenvalues --   -0.58917  -0.53910  -0.53453  -0.49694  -0.49348
 Alpha  occ. eigenvalues --   -0.44998  -0.40325  -0.34496
 Alpha virt. eigenvalues --    0.02983   0.03750   0.04884   0.05639   0.07338
 Alpha virt. eigenvalues --    0.07874   0.08263   0.09110   0.09147   0.12130
 Alpha virt. eigenvalues --    0.12566   0.12863   0.13028   0.14082   0.15110

 Mulliken charges:
               1
     1  Si   5.967193
     2  C   -3.018458
     3  H   -1.614886
     4  H   -1.660649
     5  H   -1.660643
     6  O   -2.442245
     7  C    4.082095
     8  N   -2.708731
     9  H    1.528157
    10  H    1.528167
 Sum of Mulliken charges =   0.00000

 Dipole moment (field-independent basis, Debye):
    X=             -4.2528    Y=              0.3707    Z=              0.0001  Tot=              4.2690

 Test job not archived.
 1\1\GINC-SE344\SP\RHF\Aug-CC-pVDZ\C2H5N1O1Si1\OHZDE\08-Apr-2025\0\\#t
 hf aug-cc-pvdz iop(5/13=1,5/36=2,99/5=2) pseudo=read geom=check guess=
 (read,tcheck) scf=(maxcycle=1)\\title\\0,1\Si,0,-2.044266,-0.096747,0.
 000004\C,0,-0.290574,0.637306,0.000025\H,0,-2.97947,1.050234,0.000033\
 H,0,-2.237001,-0.915886,1.213912\H,0,-2.237,-0.915825,-1.213946\O,0,0.
 663096,-0.487229,0.000014\C,0,1.909397,-0.161365,0.000033\N,0,3.037929
 ,0.09731,-0.000085\H,0,-0.105009,1.248453,0.887146\H,0,-0.10501,1.2484
 99,-0.887064\\Version=ES64L-G16RevC.01\State=1-A\HF=-497.9189955\RMSD=

 Normal termination of Gaussian 16 at Tue Apr  8 23:52:26 2025.
