 Gaussian 16, Revision C.01,

 ----------------------------------------------------------------------
 #t hf aug-cc-pvdz symm=none int=(grid=ultrafine) guess=(read,tcheck) s
 table=(opt,rrhf)
 ----------------------------------------------------------------------
 -----
 title
 -----
 Symbolic Z-matrix:
 Charge =  0 Multiplicity = 1

 SCF Done:  E(RHF) =  -281.549386811     A.U. after   15 cycles
 Normal termination of Gaussian 16 at Tue Apr  8 22:39:25 2025.
 Gaussian 16:  ES64L-G16RevC.01  3-Jul-2019

 ----------------------------------------------------------------------
 #t hf aug-cc-pvdz iop(5/13=1,5/36=2,99/5=2) pseudo=read geom=check gue
 ss=(read,tcheck) scf=(maxcycle=1)
 ----------------------------------------------------------------------
 -----
 title
 -----
 Structure from the checkpoint file:  "BDE49_expt_1239_mol1.chk"
 Charge =  0 Multiplicity = 1

                         Standard orientation:
 ---------------------------------------------------------------------
 Center     Atomic      Atomic             Coordinates (Angstroms)
 Number     Number       Type             X           Y           Z
 ---------------------------------------------------------------------
      1          6           0        0.745687   -0.645215    0.000108
      2          7           0       -0.562399    0.032539    0.000362
      3          8           0       -1.538593   -0.706824   -0.000212
      4          8           0       -0.594558    1.253943   -0.000180
      5          6           0        1.869460    0.051292    0.000001
      6          1           0        0.640450   -1.719814    0.000035
      7          1           0        1.844470    1.133439    0.000092
      8          1           0        2.826206   -0.454808   -0.000172
 ---------------------------------------------------------------------

 SCF Done:  E(RHF) =  -282.766118184     A.U. after    2 cycles

 The electronic state is 1-A.
 Alpha  occ. eigenvalues --  -21.10032 -21.09566 -16.00204 -11.48261 -11.44051
 Alpha  occ. eigenvalues --   -1.99957  -1.69395  -1.24533  -1.01869  -0.81243
 Alpha  occ. eigenvalues --   -0.72383  -0.67475  -0.66881  -0.59800  -0.56493
 Alpha  occ. eigenvalues --   -0.41259  -0.36327  -0.31717  -0.31710
 Alpha virt. eigenvalues --    0.02924   0.05140   0.05692   0.06919   0.10754
 Alpha virt. eigenvalues --    0.11264   0.11551   0.13499   0.13810   0.14741
 Alpha virt. eigenvalues --    0.16604   0.17400   0.18362   0.20311   0.20547

 Mulliken charges:
               1
     1  C   -0.254353
     2  N    3.864096
     3  O   -2.942580
     4  O   -2.649555
     5  C   -2.260638
     6  H    1.412619
     7  H    1.492807
     8  H    1.337605
 Sum of Mulliken charges =  -0.00000

 Dipole moment (field-independent basis, Debye):
    X=              2.8070    Y=             -0.6659    Z=             -0.0004  Tot=              2.8849

 Test job not archived.
 1\1\GINC-SE366\SP\RHF\Aug-CC-pVDZ\C2H3N1O2\OHZDE\08-Apr-2025\0\\#t hf
 aug-cc-pvdz iop(5/13=1,5/36=2,99/5=2) pseudo=read geom=check guess=(re
 ad,tcheck) scf=(maxcycle=1)\\title\\0,1\C,0,0.745687,-0.645215,0.00010
 8\N,0,-0.562399,0.032539,0.000362\O,0,-1.538593,-0.706824,-0.000212\O,
 0,-0.594558,1.253943,-0.00018\C,0,1.86946,0.051292,0.000001\H,0,0.6404
 5,-1.719814,0.000035\H,0,1.84447,1.133439,0.000092\H,0,2.826206,-0.454
 808,-0.000172\\Version=ES64L-G16RevC.01\State=1-A\HF=-282.7661182\RMSD
 =3.595e-01\Dipole=1.1043456,-0.2619878,-0.0001584\Quadrupole=1.1111946

 Normal termination of Gaussian 16 at Tue Apr  8 22:39:27 2025.
