 Gaussian 16, Revision C.01,

 ----------------------------------------------------------------------
 #t hf aug-cc-pvdz symm=none int=(grid=ultrafine) guess=(read,tcheck) s
 table=(opt,rrhf)
 ----------------------------------------------------------------------
 -----
 title
 -----
 Symbolic Z-matrix:
 Charge =  0 Multiplicity = 1

 SCF Done:  E(RHF) =  -611.926027001     A.U. after   17 cycles
 Normal termination of Gaussian 16 at Wed Apr  9 00:06:08 2025.
 Gaussian 16:  ES64L-G16RevC.01  3-Jul-2019

 ----------------------------------------------------------------------
 #t hf aug-cc-pvdz iop(5/13=1,5/36=2,99/5=2) pseudo=read geom=check gue
 ss=(read,tcheck) scf=(maxcycle=1)
 ----------------------------------------------------------------------
 -----
 title
 -----
 Structure from the checkpoint file:  "BDE49_nonexpt_2217_mol1.chk"
 Charge =  0 Multiplicity = 1

                         Standard orientation:
 ---------------------------------------------------------------------
 Center     Atomic      Atomic             Coordinates (Angstroms)
 Number     Number       Type             X           Y           Z
 ---------------------------------------------------------------------
      1         14           0        0.603954    1.174085    0.146613
      2          8           0        1.547187    0.150818   -0.879192
      3          7           0        2.158483   -1.007321   -0.405135
      4          8           0        1.949442   -1.232504    0.737150
      5          6           0       -1.010726    0.377258    0.658756
      6          6           0       -1.901443   -0.103244   -0.503597
      7          1           0       -1.548467    1.127969    1.255171
      8          1           0       -0.795657   -0.450930    1.342672
      9          6           0       -3.226546   -0.708189   -0.029203
     10          1           0       -1.357509   -0.843859   -1.099400
     11          1           0       -2.106503    0.735000   -1.179121
     12          1           0       -3.054816   -1.571860    0.620220
     13          1           0       -3.834881   -1.041598   -0.874439
     14          1           0       -3.812905    0.021582    0.537507
     15          1           0        0.382286    2.325567   -0.748956
     16          1           0        1.422972    1.570731    1.310310
 ---------------------------------------------------------------------

 SCF Done:  E(RHF) =  -613.537609607     A.U. after    2 cycles

 The electronic state is 1-A.
 Alpha  occ. eigenvalues --  -76.24525 -21.14888 -21.09120 -15.93908 -11.42079
 Alpha  occ. eigenvalues --  -11.38093 -11.35173  -5.58156  -2.24191  -2.21399
 Alpha  occ. eigenvalues --   -2.20262  -1.96584  -1.69000  -1.21387  -1.01027
 Alpha  occ. eigenvalues --   -0.96431  -0.85545  -0.72623  -0.66752  -0.64499
 Alpha  occ. eigenvalues --   -0.61659  -0.60909  -0.57741  -0.54766  -0.53834
 Alpha  occ. eigenvalues --   -0.48804  -0.47333  -0.46473  -0.42180  -0.38543
 Alpha  occ. eigenvalues --   -0.36033  -0.30903
 Alpha virt. eigenvalues --    0.03805   0.04868   0.05311   0.06027   0.06073
 Alpha virt. eigenvalues --    0.06436   0.07033   0.07059   0.08299   0.09380
 Alpha virt. eigenvalues --    0.09965   0.10241   0.11479   0.12680   0.13555

 Mulliken charges:
               1
     1  Si   6.197969
     2  O   -2.033990
     3  N    2.401607
     4  O   -1.734663
     5  C   -4.187189
     6  C   -2.525009
     7  H    1.405983
     8  H    1.588759
     9  C   -3.815741
    10  H    1.483706
    11  H    1.412317
    12  H    1.247130
    13  H    1.140610
    14  H    1.272999
    15  H   -1.867900
    16  H   -1.986587
 Sum of Mulliken charges =  -0.00000

 Dipole moment (field-independent basis, Debye):
    X=             -1.7158    Y=              0.3763    Z=              0.6891  Tot=              1.8869

 Test job not archived.
 1\1\GINC-SE082\SP\RHF\Aug-CC-pVDZ\C3H9N1O2Si1\OHZDE\09-Apr-2025\0\\#t
 hf aug-cc-pvdz iop(5/13=1,5/36=2,99/5=2) pseudo=read geom=check guess=
 (read,tcheck) scf=(maxcycle=1)\\title\\0,1\Si,0,0.603954,1.174085,0.14
 6613\O,0,1.547187,0.150818,-0.879192\N,0,2.158483,-1.007321,-0.405135\
 O,0,1.949442,-1.232504,0.73715\C,0,-1.010726,0.377258,0.658756\C,0,-1.
 901443,-0.103244,-0.503597\H,0,-1.548467,1.127969,1.255171\H,0,-0.7956
 57,-0.45093,1.342672\C,0,-3.226546,-0.708189,-0.029203\H,0,-1.357509,-
 0.843859,-1.0994\H,0,-2.106503,0.735,-1.179121\H,0,-3.054816,-1.57186,

 Normal termination of Gaussian 16 at Wed Apr  9 00:06:14 2025.
