 Gaussian 16, Revision C.01,

 ----------------------------------------------------------------------
 #t hf aug-cc-pvdz symm=none int=(grid=ultrafine) guess=(read,tcheck) s
 table=(opt,rrhf)
 ----------------------------------------------------------------------
 -----
 title
 -----
 Symbolic Z-matrix:
 Charge =  0 Multiplicity = 1

 SCF Done:  E(RHF) =  -934.138580824     A.U. after   13 cycles
 Normal termination of Gaussian 16 at Tue Apr  8 23:43:42 2025.
 Gaussian 16:  ES64L-G16RevC.01  3-Jul-2019

 ----------------------------------------------------------------------
 #t hf aug-cc-pvdz iop(5/13=1,5/36=2,99/5=2) pseudo=read geom=check gue
 ss=(read,tcheck) scf=(maxcycle=1)
 ----------------------------------------------------------------------
 -----
 title
 -----
 Structure from the checkpoint file:  "BDE49_nonexpt_1685_mol1.chk"
 Charge =  0 Multiplicity = 1

                         Standard orientation:
 ---------------------------------------------------------------------
 Center     Atomic      Atomic             Coordinates (Angstroms)
 Number     Number       Type             X           Y           Z
 ---------------------------------------------------------------------
      1         15           0       -0.990612   -0.097950   -0.130461
      2          8           0       -0.994796   -1.147500   -1.164455
      3          8           0       -1.683733    1.311733   -0.468784
      4         14           0        1.070102    0.533217    0.509532
      5          6           0        2.416080    0.304116   -0.748807
      6          6           0        2.369194   -0.787258    0.341958
      7          1           0        3.264220    0.981508   -0.727010
      8          1           0        2.137374   -0.003381   -1.751082
      9          1           0        2.069920   -1.778148    0.016934
     10          1           0        3.188317   -0.798843    1.054495
     11          1           0       -2.632099    1.247573   -0.647430
     12          8           0       -1.839081   -0.517443    1.192638
     13          1           0       -1.877237   -1.478182    1.281116
     14          1           0        1.156502    1.558214    1.562337
 ---------------------------------------------------------------------

 SCF Done:  E(RHF) =  -935.819002456     A.U. after    2 cycles

 The electronic state is 1-A.
 Alpha  occ. eigenvalues -- -105.29994 -76.22441 -21.11757 -21.11424 -21.02104
 Alpha  occ. eigenvalues --  -11.40293 -11.36322  -5.56706  -2.91827  -2.22297
 Alpha  occ. eigenvalues --   -2.18850  -2.17789  -1.96914  -1.87826  -1.78948
 Alpha  occ. eigenvalues --   -1.50334  -1.40022  -1.25540  -1.17262  -0.86073
 Alpha  occ. eigenvalues --   -0.73560  -0.67078  -0.63738  -0.61074  -0.56254
 Alpha  occ. eigenvalues --   -0.52757  -0.51203  -0.44984  -0.42358  -0.41282
 Alpha  occ. eigenvalues --   -0.34675  -0.34153  -0.31994  -0.29629  -0.22026
 Alpha  occ. eigenvalues --   -0.14416
 Alpha virt. eigenvalues --    0.03675   0.05061   0.05274   0.06040   0.06111
 Alpha virt. eigenvalues --    0.07277   0.07432   0.08140   0.08608   0.10713
 Alpha virt. eigenvalues --    0.11798   0.12281   0.12554   0.13494   0.14112

 Mulliken charges:
               1
     1  P    6.191453
     2  O   -2.879735
     3  O   -2.799138
     4  Si   4.334898
     5  C   -3.224129
     6  C   -3.174948
     7  H    1.138315
     8  H    1.114986
     9  H    1.122273
    10  H    1.141327
    11  H    0.873450
    12  O   -2.642046
    13  H    0.765598
    14  H   -1.962304
 Sum of Mulliken charges =  -0.00000

 Dipole moment (field-independent basis, Debye):
    X=             -1.9772    Y=              1.2303    Z=              1.5582  Tot=              2.8020

 Test job not archived.
 1\1\GINC-SE273\SP\RHF\Aug-CC-pVDZ\C2H7O3P1Si1\OHZDE\08-Apr-2025\0\\#t
 hf aug-cc-pvdz iop(5/13=1,5/36=2,99/5=2) pseudo=read geom=check guess=
 (read,tcheck) scf=(maxcycle=1)\\title\\0,1\P,0,0.990612,-0.09795,0.130
 461\O,0,0.994796,-1.1475,1.164455\O,0,1.683733,1.311733,0.468784\Si,0,
 -1.070102,0.533217,-0.509532\C,0,-2.41608,0.304116,0.748807\C,0,-2.369
 194,-0.787258,-0.341958\H,0,-3.26422,0.981508,0.72701\H,0,-2.137374,-0
 .003381,1.751082\H,0,-2.06992,-1.778148,-0.016934\H,0,-3.188317,-0.798
 843,-1.054495\H,0,2.632099,1.247573,0.64743\O,0,1.839081,-0.517443,-1.

 Normal termination of Gaussian 16 at Tue Apr  8 23:43:49 2025.
