 Gaussian 16, Revision C.01,

 ----------------------------------------------------------------------
 #t hf aug-cc-pvdz symm=none int=(grid=ultrafine) guess=(read,tcheck) s
 table=(opt,rrhf)
 ----------------------------------------------------------------------
 -----
 title
 -----
 Symbolic Z-matrix:
 Charge =  0 Multiplicity = 1

 SCF Done:  E(RHF) =  -1248.86895405     A.U. after   15 cycles
 Normal termination of Gaussian 16 at Wed Apr  9 00:51:17 2025.
 Gaussian 16:  ES64L-G16RevC.01  3-Jul-2019

 ----------------------------------------------------------------------
 #t hf aug-cc-pvdz iop(5/13=1,5/36=2,99/5=2) pseudo=read geom=check gue
 ss=(read,tcheck) scf=(maxcycle=1)
 ----------------------------------------------------------------------
 -----
 title
 -----
 Structure from the checkpoint file:  "BDE49_nonexpt_892_mol1.chk"
 Charge =  0 Multiplicity = 1

                         Standard orientation:
 ---------------------------------------------------------------------
 Center     Atomic      Atomic             Coordinates (Angstroms)
 Number     Number       Type             X           Y           Z
 ---------------------------------------------------------------------
      1          9           0        4.127852   -0.240787    0.076415
      2          9           0        0.162448    2.156133   -0.541593
      3         16           0       -2.680612    1.227067    0.473808
      4          6           0       -0.028865   -0.144670    0.039321
      5          6           0        2.144511    0.976302   -0.239545
      6          1           0        2.702563    1.873069   -0.471671
      7          6           0        0.759338    0.978797   -0.238942
      8          6           0        0.690565   -1.322820    0.333168
      9          1           0        0.138107   -2.224619    0.567551
     10          6           0        2.783114   -0.215094    0.064740
     11          6           0        2.077980   -1.373432    0.357318
     12          1           0        2.612346   -2.284071    0.594288
     13          5           0       -1.592162   -0.154718    0.035593
     14         16           0       -2.397648   -1.727071   -0.420103
     15          1           0       -1.741878    2.150663    0.732426
     16          1           0       -3.670727   -1.373984   -0.169593
 ---------------------------------------------------------------------

 SCF Done:  E(RHF) =  -1251.17824642     A.U. after    2 cycles

 The electronic state is 1-A.
 Alpha  occ. eigenvalues --  -75.69807 -75.69585 -29.30684 -29.30521 -13.17790
 Alpha  occ. eigenvalues --  -13.17311 -13.11492 -13.09777 -13.06020 -13.04226
 Alpha  occ. eigenvalues --  -11.56401 -11.52492 -11.47577 -11.43747 -11.43264
 Alpha  occ. eigenvalues --  -11.40261  -8.03946  -8.03382  -7.69854  -1.41953
 Alpha  occ. eigenvalues --   -1.23784  -1.19242  -1.14846  -1.10025  -0.96913
 Alpha  occ. eigenvalues --   -0.95362  -0.82731  -0.75548  -0.69059  -0.66914
 Alpha  occ. eigenvalues --   -0.63298  -0.60213  -0.59211  -0.54310  -0.51835
 Alpha  occ. eigenvalues --   -0.49680  -0.47427  -0.42672  -0.41153  -0.40560
 Alpha  occ. eigenvalues --   -0.37896  -0.34741  -0.34262  -0.30317  -0.27723
 Alpha  occ. eigenvalues --   -0.27182  -0.24409  -0.24315
 Alpha virt. eigenvalues --    0.02646   0.03103   0.03949   0.04335   0.05768
 Alpha virt. eigenvalues --    0.06309   0.07672   0.08731   0.08905   0.09769
 Alpha virt. eigenvalues --    0.10753   0.11129   0.11857   0.12202   0.12615

 Mulliken charges:
               1
     1  F    0.700036
     2  F    0.649181
     3  S   -3.088692
     4  C   -7.276371
     5  C   -6.618134
     6  H    1.831921
     7  C    7.071599
     8  C    1.979013
     9  H    1.787897
    10  C    4.397949
    11  C   -5.359473
    12  H    1.647705
    13  B    3.494390
    14  S   -2.990638
    15  H    0.968427
    16  H    0.805190
 Sum of Mulliken charges =  -0.00000

 Dipole moment (field-independent basis, Debye):
    X=              1.5139    Y=              0.8347    Z=             -1.1260  Tot=              2.0632

 Test job not archived.
 1\1\GINC-SE329\SP\RHF\Aug-CC-pVDZ\C6H5B1F2S2\OHZDE\09-Apr-2025\0\\#t h
 f aug-cc-pvdz iop(5/13=1,5/36=2,99/5=2) pseudo=read geom=check guess=(
 read,tcheck) scf=(maxcycle=1)\\title\\0,1\F,0,4.127852,-0.240787,0.076
 415\F,0,0.162448,2.156133,-0.541593\S,0,-2.680612,1.227067,0.473808\C,
 0,-0.028865,-0.14467,0.039321\C,0,2.144511,0.976302,-0.239545\H,0,2.70
 2563,1.873069,-0.471671\C,0,0.759338,0.978797,-0.238942\C,0,0.690565,-
 1.32282,0.333168\H,0,0.138107,-2.224619,0.567551\C,0,2.783114,-0.21509
 4,0.06474\C,0,2.07798,-1.373432,0.357318\H,0,2.612346,-2.284071,0.5942

 Normal termination of Gaussian 16 at Wed Apr  9 00:51:26 2025.
