 Gaussian 16, Revision C.01,

 ----------------------------------------------------------------------
 #t hf aug-cc-pvdz symm=none int=(grid=ultrafine) guess=(read,tcheck) s
 table=(opt,rrhf)
 ----------------------------------------------------------------------
 -----
 title
 -----
 Symbolic Z-matrix:
 Charge =  0 Multiplicity = 1

 SCF Done:  E(RHF) =  -456.376253509     A.U. after   12 cycles
 Normal termination of Gaussian 16 at Tue Apr  8 23:40:07 2025.
 Gaussian 16:  ES64L-G16RevC.01  3-Jul-2019

 ----------------------------------------------------------------------
 #t hf aug-cc-pvdz iop(5/13=1,5/36=2,99/5=2) pseudo=read geom=check gue
 ss=(read,tcheck) scf=(maxcycle=1)
 ----------------------------------------------------------------------
 -----
 title
 -----
 Structure from the checkpoint file:  "BDE49_nonexpt_1599_mol1.chk"
 Charge =  0 Multiplicity = 1

                         Standard orientation:
 ---------------------------------------------------------------------
 Center     Atomic      Atomic             Coordinates (Angstroms)
 Number     Number       Type             X           Y           Z
 ---------------------------------------------------------------------
      1          6           0        1.606122   -0.209834   -0.019991
      2          8           0        0.425139    0.585685    0.078126
      3          1           0        1.798089   -0.754165    0.912122
      4          1           0        2.435442    0.474098   -0.204288
      5          1           0        1.543588   -0.929697   -0.844699
      6         15           0       -1.037346   -0.195475   -0.088316
      7          1           0       -1.796888    0.979413   -0.320262
      8          1           0       -1.457885   -0.264004    1.276807
 ---------------------------------------------------------------------

 SCF Done:  E(RHF) =  -457.087320431     A.U. after    2 cycles

 The electronic state is 1-A.
 Alpha  occ. eigenvalues -- -105.21161 -21.05501 -11.40854  -2.78385  -1.80396
 Alpha  occ. eigenvalues --   -1.46259  -1.44871  -1.38278  -0.96967  -0.71745
 Alpha  occ. eigenvalues --   -0.60883  -0.59362  -0.47338  -0.35066  -0.26372
 Alpha  occ. eigenvalues --   -0.25481  -0.03094
 Alpha virt. eigenvalues --    0.04002   0.05865   0.06453   0.06898   0.08467
 Alpha virt. eigenvalues --    0.09593   0.10644   0.12791   0.14981   0.15593
 Alpha virt. eigenvalues --    0.16480   0.18472   0.19776   0.23014   0.24028

 Mulliken charges:
               1
     1  C   -2.593446
     2  O   -2.216532
     3  H    1.238990
     4  H    1.119134
     5  H    1.076342
     6  P    2.846432
     7  H   -0.698173
     8  H   -0.772748
 Sum of Mulliken charges =   0.00000

 Dipole moment (field-independent basis, Debye):
    X=              0.6635    Y=             -0.6437    Z=             -0.7776  Tot=              1.2080

 Test job not archived.
 1\1\GINC-SE048\SP\RHF\Aug-CC-pVDZ\C1H5O1P1\OHZDE\08-Apr-2025\0\\#t hf
 aug-cc-pvdz iop(5/13=1,5/36=2,99/5=2) pseudo=read geom=check guess=(re
 ad,tcheck) scf=(maxcycle=1)\\title\\0,1\C,0,1.606122,-0.209834,-0.0199
 91\O,0,0.425139,0.585685,0.078126\H,0,1.798089,-0.754165,0.912122\H,0,
 2.435442,0.474098,-0.204288\H,0,1.543588,-0.929697,-0.844699\P,0,-1.03
 7346,-0.195475,-0.088316\H,0,-1.796888,0.979413,-0.320262\H,0,-1.45788
 5,-0.264004,1.276807\\Version=ES64L-G16RevC.01\State=1-A\HF=-457.08732
 04\RMSD=2.312e-01\Dipole=0.2610484,-0.2532597,-0.3059486\Quadrupole=2.

 Normal termination of Gaussian 16 at Tue Apr  8 23:40:09 2025.
