 Gaussian 16, Revision C.01,

 ----------------------------------------------------------------------
 #t hf aug-cc-pvdz symm=none int=(grid=ultrafine) guess=(read,tcheck) s
 table=opt
 ----------------------------------------------------------------------
 -----
 title
 -----
 Symbolic Z-matrix:
 Charge =  0 Multiplicity = 2

 SCF Done:  E(UHF) =  -457.789125519     A.U. after   16 cycles
 Normal termination of Gaussian 16 at Tue Apr  8 23:37:56 2025.
 Gaussian 16:  ES64L-G16RevC.01  3-Jul-2019

 ----------------------------------------------------------------------
 #t hf aug-cc-pvdz iop(5/13=1,5/36=2,99/5=2) pseudo=read geom=check gue
 ss=(read,tcheck) scf=(maxcycle=1)
 ----------------------------------------------------------------------
 -----
 title
 -----
 Structure from the checkpoint file:  "BDE49_nonexpt_1531_mol2.chk"
 Charge =  0 Multiplicity = 2

                         Standard orientation:
 ---------------------------------------------------------------------
 Center     Atomic      Atomic             Coordinates (Angstroms)
 Number     Number       Type             X           Y           Z
 ---------------------------------------------------------------------
      1          6           0       -0.217760   -0.000002    0.556945
      2          6           0       -1.331918   -0.747414   -0.171229
      3          6           0       -1.331915    0.747415   -0.171230
      4          1           0       -1.072403    1.262989   -1.087860
      5          1           0       -2.058356    1.265335    0.444578
      6          1           0       -2.058360   -1.265330    0.444579
      7          1           0       -1.072408   -1.262990   -1.087859
      8         15           0        1.510634    0.000000   -0.015699
      9          1           0       -0.296970   -0.000001    1.639753
     10          1           0        1.188537   -0.000008   -1.404615
 ---------------------------------------------------------------------

 SCF Done:  E(UHF) =  -458.545493215     A.U. after    2 cycles

 The electronic state is 2-A.
 Alpha  occ. eigenvalues -- -105.17194 -11.41386 -11.41071 -11.36698  -2.75231
 Alpha  occ. eigenvalues --   -1.49122  -1.44117  -1.42964  -1.27792  -0.86921
 Alpha  occ. eigenvalues --   -0.84578  -0.70929  -0.66291  -0.57250  -0.51632
 Alpha  occ. eigenvalues --   -0.43052  -0.41295  -0.22831  -0.06760   0.02474
 Alpha virt. eigenvalues --    0.04208   0.05818   0.06306   0.06370   0.07165
 Alpha virt. eigenvalues --    0.07321   0.10482   0.11649   0.12271   0.13631
 Alpha virt. eigenvalues --    0.13812   0.14019   0.15684   0.16027   0.17207

  Beta  occ. eigenvalues -- -105.16579 -11.41229 -11.41121 -11.36674  -2.73362
  Beta  occ. eigenvalues --   -1.47636  -1.41233  -1.27263  -1.20688  -0.86356
  Beta  occ. eigenvalues --   -0.84147  -0.69020  -0.65296  -0.55925  -0.51507
  Beta  occ. eigenvalues --   -0.42616  -0.40185  -0.23726  -0.04289
  Beta virt. eigenvalues --    0.04234   0.05824   0.06240   0.06332   0.06394
  Beta virt. eigenvalues --    0.07495   0.09693   0.10789   0.11766   0.12510
  Beta virt. eigenvalues --    0.13846   0.14173   0.14658   0.16044   0.16169

 Mulliken charges and spin densities:
               1          2
     1  C   -1.952917  -0.480571
     2  C   -2.457531  -0.061948
     3  C   -2.457525  -0.061953
     4  H    0.968013   0.295009
     5  H    1.263182  -0.109770
     6  H    1.263181  -0.109768
     7  H    0.968020   0.295001
     8  P    2.612821   1.422458
     9  H    0.978859  -0.034638
    10  H   -1.186101  -0.153820
 Sum of Mulliken charges =  -0.00000   1.00000

 Dipole moment (field-independent basis, Debye):
    X=              0.5291    Y=              0.0000    Z=              3.2078  Tot=              3.2511
                          Isotropic Fermi Contact Couplings
        Atom                 a.u.       MegaHertz       Gauss      10(-4) cm-1
     1  C(13)             -0.00583      -6.55350      -2.33845      -2.18601
     2  C(13)              0.02394      26.91614       9.60435       8.97826
     3  C(13)              0.02394      26.91702       9.60466       8.97855
     4  H(1)              -0.00064      -2.83853      -1.01286      -0.94683
     5  H(1)               0.00030       1.34044       0.47830       0.44712
     6  H(1)               0.00030       1.34052       0.47833       0.44715
     7  H(1)              -0.00064      -2.83845      -1.01283      -0.94680
     8  P(31)              0.28217     511.03716     182.35077     170.46365

 Normal termination of Gaussian 16 at Tue Apr  8 23:37:59 2025.
