 Gaussian 16, Revision C.01,

 ----------------------------------------------------------------------
 #t hf aug-cc-pvdz symm=none int=(grid=ultrafine) guess=(read,tcheck) s
 table=(opt,rrhf)
 ----------------------------------------------------------------------
 -----
 title
 -----
 Symbolic Z-matrix:
 Charge =  0 Multiplicity = 1

 SCF Done:  E(RHF) =  -673.852110178     A.U. after   14 cycles
 Normal termination of Gaussian 16 at Wed Apr  9 00:10:25 2025.
 Gaussian 16:  ES64L-G16RevC.01  3-Jul-2019

 ----------------------------------------------------------------------
 #t hf aug-cc-pvdz iop(5/13=1,5/36=2,99/5=2) pseudo=read geom=check gue
 ss=(read,tcheck) scf=(maxcycle=1)
 ----------------------------------------------------------------------
 -----
 title
 -----
 Structure from the checkpoint file:  "BDE49_nonexpt_2298_mol1.chk"
 Charge =  0 Multiplicity = 1

                         Standard orientation:
 ---------------------------------------------------------------------
 Center     Atomic      Atomic             Coordinates (Angstroms)
 Number     Number       Type             X           Y           Z
 ---------------------------------------------------------------------
      1          6           0        1.107419   -1.208100    0.000088
      2          6           0        2.499605   -1.246407    0.000105
      3          6           0        0.410982    0.011635   -0.000014
      4          6           0        1.163527    1.196387   -0.000101
      5          6           0        2.556992    1.163189   -0.000087
      6          6           0        3.227605   -0.057792    0.000017
      7          8           0       -1.824927    1.680529   -0.000339
      8          1           0        0.561351   -2.147693    0.000155
      9          1           0        3.016090   -2.200268    0.000185
     10          1           0        4.311894   -0.084286    0.000028
     11          1           0        3.119490    2.090748   -0.000158
     12          1           0        0.647906    2.150083   -0.000185
     13         14           0       -1.462916    0.055204   -0.000016
     14          1           0       -2.746145    1.946907   -0.000158
     15          6           0       -2.153903   -0.780285    1.532993
     16          1           0       -1.776033   -0.301980    2.440671
     17          1           0       -1.865953   -1.835904    1.568484
     18          1           0       -3.248176   -0.740429    1.556486
     19          6           0       -2.153900   -0.780910   -1.532683
     20          1           0       -1.865922   -1.836535   -1.567770
     21          1           0       -1.776059   -0.302944   -2.440552
     22          1           0       -3.248173   -0.741090   -1.556172
 ---------------------------------------------------------------------

 SCF Done:  E(RHF) =  -675.854249658     A.U. after    2 cycles

 The electronic state is 1-A.
 Alpha  occ. eigenvalues --  -76.20635 -21.06286 -11.50826 -11.42238 -11.41747
 Alpha  occ. eigenvalues --  -11.40028 -11.39708 -11.35270 -11.34475 -11.34233
 Alpha  occ. eigenvalues --   -5.55001  -2.22306  -2.19438  -2.18048  -1.65065
 Alpha  occ. eigenvalues --   -1.32715  -1.08598  -1.08172  -1.04644  -1.00952
 Alpha  occ. eigenvalues --   -0.85357  -0.84650  -0.72257  -0.67581  -0.62653
 Alpha  occ. eigenvalues --   -0.58460  -0.56905  -0.56699  -0.55622  -0.54676
 Alpha  occ. eigenvalues --   -0.54620  -0.53588  -0.51233  -0.49662  -0.43914
 Alpha  occ. eigenvalues --   -0.43272  -0.39019  -0.36689  -0.35144  -0.32564
 Alpha  occ. eigenvalues --   -0.32182
 Alpha virt. eigenvalues --    0.02849   0.04896   0.05197   0.05576   0.05676
 Alpha virt. eigenvalues --    0.05984   0.06477   0.06688   0.07097   0.07696
 Alpha virt. eigenvalues --    0.07937   0.08915   0.09262   0.09744   0.10479

 Mulliken charges:
               1
     1  C   -0.932391
     2  C   -1.441902
     3  C   -1.285057
     4  C   -2.658381
     5  C   -1.460379
     6  C   -2.215295
     7  O   -3.750418
     8  H    1.794123
     9  H    1.509119
    10  H    1.554765
    11  H    1.543368
    12  H    1.854978
    13  Si   9.553932
    14  H    1.080322
    15  C   -5.924523
    16  H    1.014143
    17  H    1.229662
    18  H    1.107326
    19  C   -5.924635
    20  H    1.229738
    21  H    1.014132
    22  H    1.107373
 Sum of Mulliken charges =  -0.00000

 Dipole moment (field-independent basis, Debye):
    X=             -0.1891    Y=              0.0499    Z=              0.0001  Tot=              0.1956

 Test job not archived.
 1\1\GINC-SE461\SP\RHF\Aug-CC-pVDZ\C8H12O1Si1\OHZDE\09-Apr-2025\0\\#t h
 f aug-cc-pvdz iop(5/13=1,5/36=2,99/5=2) pseudo=read geom=check guess=(
 read,tcheck) scf=(maxcycle=1)\\title\\0,1\C,0,1.107419,-1.2081,0.00008
 8\C,0,2.499605,-1.246407,0.000105\C,0,0.410982,0.011635,-0.000014\C,0,
 1.163527,1.196387,-0.000101\C,0,2.556992,1.163189,-0.000087\C,0,3.2276
 05,-0.057792,0.000017\O,0,-1.824927,1.680529,-0.000339\H,0,0.561351,-2
 .147693,0.000155\H,0,3.01609,-2.200268,0.000185\H,0,4.311894,-0.084286
 ,0.000028\H,0,3.11949,2.090748,-0.000158\H,0,0.647906,2.150083,-0.0001

 Normal termination of Gaussian 16 at Wed Apr  9 00:10:38 2025.
