 Gaussian 16, Revision C.01,

 ----------------------------------------------------------------------
 #t hf aug-cc-pvdz symm=none int=(grid=ultrafine) guess=(read,tcheck) s
 table=(opt,rrhf)
 ----------------------------------------------------------------------
 -----
 title
 -----
 Symbolic Z-matrix:
 Charge =  0 Multiplicity = 1

 SCF Done:  E(RHF) =  -611.282964518     A.U. after   18 cycles
 Normal termination of Gaussian 16 at Tue Apr  8 23:19:50 2025.
 Gaussian 16:  ES64L-G16RevC.01  3-Jul-2019

 ----------------------------------------------------------------------
 #t hf aug-cc-pvdz iop(5/13=1,5/36=2,99/5=2) pseudo=read geom=check gue
 ss=(read,tcheck) scf=(maxcycle=1)
 ----------------------------------------------------------------------
 -----
 title
 -----
 Structure from the checkpoint file:  "BDE49_nonexpt_1100_mol1.chk"
 Charge =  0 Multiplicity = 1

                         Standard orientation:
 ---------------------------------------------------------------------
 Center     Atomic      Atomic             Coordinates (Angstroms)
 Number     Number       Type             X           Y           Z
 ---------------------------------------------------------------------
      1          9           0        1.796337    0.586651   -0.251094
      2         16           0       -0.501190   -0.646252   -0.230322
      3          8           0        0.780363   -0.378547    0.609140
      4          6           0       -1.531086    0.806907    0.102464
      5          1           0       -2.487373    0.640275   -0.399069
      6          1           0       -1.038325    1.683162   -0.319246
      7          1           0       -1.678680    0.923678    1.175405
 ---------------------------------------------------------------------

 SCF Done:  E(RHF) =  -612.360793058     A.U. after    2 cycles

 The electronic state is 1-A.
 Alpha  occ. eigenvalues --  -75.76998 -29.24547 -21.20565 -13.28778 -13.15280
 Alpha  occ. eigenvalues --  -13.10280 -11.42325  -8.11432  -1.81330  -1.17737
 Alpha  occ. eigenvalues --   -0.95190  -0.67806  -0.63054  -0.61508  -0.56662
 Alpha  occ. eigenvalues --   -0.50404  -0.40131  -0.36447  -0.24624  -0.22593
 Alpha  occ. eigenvalues --   -0.20266
 Alpha virt. eigenvalues --    0.02339   0.04929   0.05858   0.07151   0.10321
 Alpha virt. eigenvalues --    0.11900   0.12886   0.14466   0.15238   0.16766
 Alpha virt. eigenvalues --    0.18836   0.21262   0.21752   0.23616   0.25580

 Mulliken charges:
               1
     1  F   -0.132333
     2  S    2.025351
     3  O   -1.359881
     4  C   -4.617855
     5  H    1.337777
     6  H    1.404398
     7  H    1.342543
 Sum of Mulliken charges =  -0.00000

 Dipole moment (field-independent basis, Debye):
    X=              0.0193    Y=              0.8397    Z=             -1.2616  Tot=              1.5156

 Test job not archived.
 1\1\GINC-SE403\SP\RHF\Aug-CC-pVDZ\C1H3F1O1S1\OHZDE\08-Apr-2025\0\\#t h
 f aug-cc-pvdz iop(5/13=1,5/36=2,99/5=2) pseudo=read geom=check guess=(
 read,tcheck) scf=(maxcycle=1)\\title\\0,1\F,0,1.796337,0.586651,-0.251
 094\S,0,-0.50119,-0.646252,-0.230322\O,0,0.780363,-0.378547,0.60914\C,
 0,-1.531086,0.806907,0.102464\H,0,-2.487373,0.640275,-0.399069\H,0,-1.
 038325,1.683162,-0.319246\H,0,-1.67868,0.923678,1.175405\\Version=ES64
 L-G16RevC.01\State=1-A\HF=-612.3607931\RMSD=6.432e-02\Dipole=0.0075915
 ,0.3303814,-0.4963388\Quadrupole=1.5484651,-0.4196333,-1.1288318,-0.42

 Normal termination of Gaussian 16 at Tue Apr  8 23:19:52 2025.
