 Gaussian 16, Revision C.01,

 ----------------------------------------------------------------------
 #t hf aug-cc-pvdz symm=none int=(grid=ultrafine) guess=(read,tcheck) s
 table=(opt,rrhf)
 ----------------------------------------------------------------------
 -----
 title
 -----
 Symbolic Z-matrix:
 Charge =  0 Multiplicity = 1

 SCF Done:  E(RHF) =  -495.406519228     A.U. after   16 cycles
 Normal termination of Gaussian 16 at Tue Apr  8 23:22:22 2025.
 Gaussian 16:  ES64L-G16RevC.01  3-Jul-2019

 ----------------------------------------------------------------------
 #t hf aug-cc-pvdz iop(5/13=1,5/36=2,99/5=2) pseudo=read geom=check gue
 ss=(read,tcheck) scf=(maxcycle=1)
 ----------------------------------------------------------------------
 -----
 title
 -----
 Structure from the checkpoint file:  "BDE49_nonexpt_1173_mol1.chk"
 Charge =  0 Multiplicity = 1

                         Standard orientation:
 ---------------------------------------------------------------------
 Center     Atomic      Atomic             Coordinates (Angstroms)
 Number     Number       Type             X           Y           Z
 ---------------------------------------------------------------------
      1          9           0        2.612804    0.108070    0.818028
      2          8           0        2.080762    0.127074   -0.550911
      3          8           0        0.816956    0.624257   -0.451055
      4          6           0       -0.129863   -0.434900   -0.173189
      5          8           0        0.183093   -1.587478   -0.184138
      6          7           0       -1.337867    0.121298    0.059756
      7          6           0       -1.620223    1.555203    0.060551
      8          1           0       -0.701103    2.127543    0.132191
      9          1           0       -2.250391    1.790965    0.922180
     10          1           0       -2.152934    1.847499   -0.850893
     11          6           0       -2.480456   -0.771507    0.227634
     12          1           0       -2.970428   -0.573565    1.185417
     13          1           0       -2.132406   -1.800729    0.206992
     14          1           0       -3.206135   -0.617035   -0.577575
 ---------------------------------------------------------------------

 SCF Done:  E(RHF) =  -497.461908067     A.U. after    2 cycles

 The electronic state is 1-A.
 Alpha  occ. eigenvalues --  -29.30173 -21.21959 -21.16009 -21.05832 -15.77898
 Alpha  occ. eigenvalues --  -11.54936 -11.42531 -11.41560  -2.08881  -1.74236
 Alpha  occ. eigenvalues --   -1.50811  -1.42610  -1.07353  -1.01676  -0.79240
 Alpha  occ. eigenvalues --   -0.72806  -0.71828  -0.68144  -0.65266  -0.60224
 Alpha  occ. eigenvalues --   -0.58515  -0.57875  -0.54931  -0.53162  -0.50993
 Alpha  occ. eigenvalues --   -0.45301  -0.42328  -0.32688  -0.32192  -0.31751
 Alpha  occ. eigenvalues --   -0.25956  -0.22798
 Alpha virt. eigenvalues --    0.02929   0.04774   0.05032   0.06099   0.06504
 Alpha virt. eigenvalues --    0.07901   0.09304   0.11314   0.12396   0.13062
 Alpha virt. eigenvalues --    0.13225   0.14418   0.15196   0.16319   0.16400

 Mulliken charges:
               1
     1  F   -0.155520
     2  O    0.080771
     3  O   -1.572804
     4  C    5.880915
     5  O   -2.734984
     6  N   -3.016202
     7  C   -3.465317
     8  H    1.468038
     9  H    1.426119
    10  H    1.415627
    11  C   -3.458486
    12  H    1.373221
    13  H    1.359452
    14  H    1.399169
 Sum of Mulliken charges =  -0.00000

 Dipole moment (field-independent basis, Debye):
    X=             -1.8868    Y=              1.5204    Z=              1.3772  Tot=              2.7872

 Test job not archived.
 1\1\GINC-SE367\SP\RHF\Aug-CC-pVDZ\C3H6F1N1O3\OHZDE\08-Apr-2025\0\\#t h
 f aug-cc-pvdz iop(5/13=1,5/36=2,99/5=2) pseudo=read geom=check guess=(
 read,tcheck) scf=(maxcycle=1)\\title\\0,1\F,0,2.612804,0.10807,0.81802
 8\O,0,2.080762,0.127074,-0.550911\O,0,0.816956,0.624257,-0.451055\C,0,
 -0.129863,-0.4349,-0.173189\O,0,0.183093,-1.587478,-0.184138\N,0,-1.33
 7867,0.121298,0.059756\C,0,-1.620223,1.555203,0.060551\H,0,-0.701103,2
 .127543,0.132191\H,0,-2.250391,1.790965,0.92218\H,0,-2.152934,1.847499
 ,-0.850893\C,0,-2.480456,-0.771507,0.227634\H,0,-2.970428,-0.573565,1.

 Normal termination of Gaussian 16 at Tue Apr  8 23:22:26 2025.
