 Gaussian 16, Revision C.01,

 ----------------------------------------------------------------------
 #t hf aug-cc-pvdz symm=none int=(grid=ultrafine) guess=(read,tcheck) s
 table=(opt,rrhf)
 ----------------------------------------------------------------------
 -----
 title
 -----
 Symbolic Z-matrix:
 Charge =  0 Multiplicity = 1

 SCF Done:  E(RHF) =  -1668.18722692     A.U. after   11 cycles
 Normal termination of Gaussian 16 at Tue Apr  8 23:13:47 2025.
 Gaussian 16:  ES64L-G16RevC.01  3-Jul-2019

 ----------------------------------------------------------------------
 #t hf aug-cc-pvdz iop(5/13=1,5/36=2,99/5=2) pseudo=read geom=check gue
 ss=(read,tcheck) scf=(maxcycle=1)
 ----------------------------------------------------------------------
 -----
 title
 -----
 Structure from the checkpoint file:  "BDE49_expt_815_mol1.chk"
 Charge =  0 Multiplicity = 1

                         Standard orientation:
 ---------------------------------------------------------------------
 Center     Atomic      Atomic             Coordinates (Angstroms)
 Number     Number       Type             X           Y           Z
 ---------------------------------------------------------------------
      1         14           0       -0.000004   -0.000051    0.502001
      2         17           0        1.673521   -0.973205   -0.176309
      3         17           0       -1.679661   -0.962567   -0.176312
      4         17           0        0.006143    1.935812   -0.176293
      5          1           0        0.000000    0.000025    1.963532
 ---------------------------------------------------------------------

 SCF Done:  E(RHF) =  -1669.06625677     A.U. after    2 cycles

 The electronic state is 1-A.
 Alpha  occ. eigenvalues --  -99.91220 -99.91218 -99.91217 -76.35266 -10.48746
 Alpha  occ. eigenvalues --  -10.48745 -10.48673  -9.68549  -9.68548  -9.68537
 Alpha  occ. eigenvalues --   -9.67938  -9.67938  -9.67883  -9.67829  -9.67828
 Alpha  occ. eigenvalues --   -9.67783  -5.68854  -2.30677  -2.30677  -2.29862
 Alpha  occ. eigenvalues --   -1.34835  -1.30563  -1.30562  -0.81956  -0.62598
 Alpha  occ. eigenvalues --   -0.62597  -0.61906  -0.57072  -0.57071  -0.54135
 Alpha  occ. eigenvalues --   -0.54134  -0.52380  -0.51351
 Alpha virt. eigenvalues --    0.04200   0.04841   0.05421   0.05421   0.06929
 Alpha virt. eigenvalues --    0.10511   0.10773   0.10774   0.12356   0.12601
 Alpha virt. eigenvalues --    0.12601   0.14151   0.14151   0.16889   0.17780

 Mulliken charges:
               1
     1  Si   4.100908
     2  Cl  -0.719808
     3  Cl  -0.719807
     4  Cl  -0.719831
     5  H   -1.941462
 Sum of Mulliken charges =  -0.00000

 Dipole moment (field-independent basis, Debye):
    X=             -0.0000    Y=             -0.0003    Z=              0.8349  Tot=              0.8349

 Test job not archived.
 1\1\GINC-SE364\SP\RHF\Aug-CC-pVDZ\Cl3H1Si1\OHZDE\08-Apr-2025\0\\#t hf
 aug-cc-pvdz iop(5/13=1,5/36=2,99/5=2) pseudo=read geom=check guess=(re
 ad,tcheck) scf=(maxcycle=1)\\title\\0,1\Si,0,-0.000004,-0.000051,0.502
 001\Cl,0,1.672769,-0.974497,-0.176309\Cl,0,-1.680404,-0.96127,-0.17631
 2\Cl,0,0.007638,1.935807,-0.176293\H,0,0.,0.000025,1.963532\\Version=E
 S64L-G16RevC.01\State=1-A\HF=-1669.0662568\RMSD=5.396e-02\Dipole=-0.00
 0019,-0.0001276,0.3284831\Quadrupole=-0.0826245,-0.0829121,0.1655365,0
 .0000328,-0.0000025,-0.0001475\PG=C01 [X(Cl3H1Si1)]\\@

 Normal termination of Gaussian 16 at Tue Apr  8 23:13:49 2025.
