 Gaussian 16, Revision C.01,

 ----------------------------------------------------------------------
 #t hf aug-cc-pvdz symm=none int=(grid=ultrafine) guess=(read,tcheck) s
 table=(opt,rrhf)
 ----------------------------------------------------------------------
 -----
 title
 -----
 Symbolic Z-matrix:
 Charge =  0 Multiplicity = 1

 SCF Done:  E(RHF) =  -1076.91636628     A.U. after   17 cycles
 Normal termination of Gaussian 16 at Wed Apr  9 00:49:58 2025.
 Gaussian 16:  ES64L-G16RevC.01  3-Jul-2019

 ----------------------------------------------------------------------
 #t hf aug-cc-pvdz iop(5/13=1,5/36=2,99/5=2) pseudo=read geom=check gue
 ss=(read,tcheck) scf=(maxcycle=1)
 ----------------------------------------------------------------------
 -----
 title
 -----
 Structure from the checkpoint file:  "BDE49_nonexpt_854_mol1.chk"
 Charge =  0 Multiplicity = 1

                         Standard orientation:
 ---------------------------------------------------------------------
 Center     Atomic      Atomic             Coordinates (Angstroms)
 Number     Number       Type             X           Y           Z
 ---------------------------------------------------------------------
      1         14           0        0.013167   -0.082293    0.020817
      2          7           0       -0.966996   -0.977981   -1.262600
      3          5           0        2.017032   -0.438151    0.080467
      4          7           0       -0.913893   -0.303527    1.608447
      5          8           0       -0.820311   -1.489712    1.935780
      6          8           0        2.866333    0.600829    0.149539
      7          8           0       -0.380696   -0.772745   -2.334364
      8          8           0        2.384871   -1.730175    0.042958
      9          8           0       -1.979046   -1.621850   -1.105630
     10          8           0       -1.497776    0.572148    2.215477
     11          7           0       -0.297711    1.709434   -0.405450
     12          8           0        0.632350    2.434493   -0.012337
     13          8           0       -1.304450    2.100618   -0.953199
     14          1           0        3.341011   -1.868898    0.061738
     15          1           0        2.429487    1.467433    0.155914
 ---------------------------------------------------------------------

 SCF Done:  E(RHF) =  -1080.28004253     A.U. after    2 cycles

 The electronic state is 1-A.
 Alpha  occ. eigenvalues --  -76.39090 -21.16082 -21.15514 -21.15124 -21.14237
 Alpha  occ. eigenvalues --  -21.14185 -21.14043 -21.11895 -21.11508 -16.02191
 Alpha  occ. eigenvalues --  -16.02052 -16.01907  -7.73167  -5.72941  -2.37361
 Alpha  occ. eigenvalues --   -2.37218  -2.36015  -2.03081  -2.02532  -2.02251
 Alpha  occ. eigenvalues --   -1.86863  -1.74046  -1.73719  -1.73553  -1.72379
 Alpha  occ. eigenvalues --   -1.13256  -1.01492  -1.01081  -0.83828  -0.79672
 Alpha  occ. eigenvalues --   -0.75322  -0.75057  -0.71810  -0.70274  -0.69681
 Alpha  occ. eigenvalues --   -0.69042  -0.65597  -0.64889  -0.64733  -0.63812
 Alpha  occ. eigenvalues --   -0.55668  -0.49933  -0.46311  -0.41864  -0.39635
 Alpha  occ. eigenvalues --   -0.39096  -0.38799  -0.37087  -0.35553  -0.35327
 Alpha  occ. eigenvalues --   -0.34677  -0.34572  -0.34233
 Alpha virt. eigenvalues --    0.02376   0.03525   0.04589   0.04933   0.05938
 Alpha virt. eigenvalues --    0.06113   0.07232   0.08037   0.08247   0.08558
 Alpha virt. eigenvalues --    0.09257   0.09974   0.11863   0.12729   0.13433

 Mulliken charges:
               1
     1  Si   3.853157
     2  N    3.575955
     3  B    5.989753
     4  N    3.085829
     5  O   -2.254329
     6  O   -4.676422
     7  O   -2.281046
     8  O   -4.073840
     9  O   -2.428908
    10  O   -2.286014
    11  N    3.023462
    12  O   -2.180797
    13  O   -2.305046
    14  H    1.218826
    15  H    1.739418
 Sum of Mulliken charges =  -0.00000

 Dipole moment (field-independent basis, Debye):
    X=              2.7093    Y=             -0.4095    Z=              0.0019  Tot=              2.7401

 Test job not archived.
 1\1\GINC-SE458\SP\RHF\Aug-CC-pVDZ\B1H2N3O8Si1\OHZDE\09-Apr-2025\0\\#t
 hf aug-cc-pvdz iop(5/13=1,5/36=2,99/5=2) pseudo=read geom=check guess=
 (read,tcheck) scf=(maxcycle=1)\\title\\0,1\Si,0,0.013167,-0.082293,0.0
 20817\N,0,-0.966996,-0.977981,-1.2626\B,0,2.017032,-0.438152,0.080467\
 N,0,-0.913893,-0.303527,1.608447\O,0,-0.820311,-1.489712,1.93578\O,0,2
 .866333,0.600828,0.149539\O,0,-0.380696,-0.772745,-2.334364\O,0,2.3848
 7,-1.730176,0.042958\O,0,-1.979046,-1.621849,-1.10563\O,0,-1.497776,0.
 572149,2.215477\N,0,-0.29771,1.709434,-0.40545\O,0,0.632351,2.434493,-

 Normal termination of Gaussian 16 at Wed Apr  9 00:50:07 2025.
