 Gaussian 16, Revision C.01,

 ----------------------------------------------------------------------
 #t hf aug-cc-pvdz symm=none int=(grid=ultrafine) guess=(read,tcheck) s
 table=(opt,rrhf)
 ----------------------------------------------------------------------
 -----
 title
 -----
 Symbolic Z-matrix:
 Charge =  0 Multiplicity = 1

 SCF Done:  E(RHF) =  -827.124439234     A.U. after   11 cycles
 Normal termination of Gaussian 16 at Tue Apr  8 23:45:54 2025.
 Gaussian 16:  ES64L-G16RevC.01  3-Jul-2019

 ----------------------------------------------------------------------
 #t hf aug-cc-pvdz iop(5/13=1,5/36=2,99/5=2) pseudo=read geom=check gue
 ss=(read,tcheck) scf=(maxcycle=1)
 ----------------------------------------------------------------------
 -----
 title
 -----
 Structure from the checkpoint file:  "BDE49_nonexpt_1750_mol1.chk"
 Charge =  0 Multiplicity = 1

                         Standard orientation:
 ---------------------------------------------------------------------
 Center     Atomic      Atomic             Coordinates (Angstroms)
 Number     Number       Type             X           Y           Z
 ---------------------------------------------------------------------
      1         14           0        0.049521    0.740403    0.051365
      2          6           0       -1.425661   -0.298935    0.477094
      3          6           0       -2.491880   -0.390598   -0.322413
      4          1           0       -1.429818   -0.844192    1.419536
      5          1           0       -2.540955    0.125534   -1.277287
      6          1           0       -3.362313   -0.985576   -0.059695
      7         17           0        1.762330   -0.450268   -0.092348
      8          1           0        0.343211    1.739635    1.097549
      9          1           0       -0.157779    1.390705   -1.257387
 ---------------------------------------------------------------------

 SCF Done:  E(RHF) =  -827.911283708     A.U. after    2 cycles

 The electronic state is 1-A.
 Alpha  occ. eigenvalues --  -99.87699 -76.25909 -11.42698 -11.37923 -10.45093
 Alpha  occ. eigenvalues --   -9.64985  -9.64346  -9.64321  -5.59495  -2.23376
 Alpha  occ. eigenvalues --   -2.21704  -2.21260  -1.28169  -1.15521  -0.85134
 Alpha  occ. eigenvalues --   -0.75602  -0.64070  -0.56691  -0.55087  -0.54370
 Alpha  occ. eigenvalues --   -0.52258  -0.47025  -0.42822  -0.38860
 Alpha virt. eigenvalues --    0.03344   0.05303   0.05453   0.05878   0.06192
 Alpha virt. eigenvalues --    0.07157   0.08322   0.09179   0.10526   0.11617
 Alpha virt. eigenvalues --    0.13365   0.13754   0.14814   0.15180   0.15941

 Mulliken charges:
               1
     1  Si   5.377023
     2  C   -2.378402
     3  C   -2.423521
     4  H    1.107014
     5  H    1.406942
     6  H    1.373362
     7  Cl  -0.915812
     8  H   -1.856927
     9  H   -1.689678
 Sum of Mulliken charges =   0.00000

 Dipole moment (field-independent basis, Debye):
    X=             -2.5307    Y=              0.2319    Z=              0.0668  Tot=              2.5422

 Test job not archived.
 1\1\GINC-SE186\SP\RHF\Aug-CC-pVDZ\C2H5Cl1Si1\OHZDE\08-Apr-2025\0\\#t h
 f aug-cc-pvdz iop(5/13=1,5/36=2,99/5=2) pseudo=read geom=check guess=(
 read,tcheck) scf=(maxcycle=1)\\title\\0,1\Si,0,0.049521,0.740403,0.051
 365\C,0,-1.425661,-0.298935,0.477094\C,0,-2.49188,-0.390598,-0.322413\
 H,0,-1.429818,-0.844192,1.419536\H,0,-2.540955,0.125534,-1.277287\H,0,
 -3.362313,-0.985576,-0.059695\Cl,0,1.76233,-0.450268,-0.092348\H,0,0.3
 43211,1.739635,1.097549\H,0,-0.157779,1.390705,-1.257387\\Version=ES64
 L-G16RevC.01\State=1-A\HF=-827.9112837\RMSD=3.141e-01\Dipole=-0.995650

 Normal termination of Gaussian 16 at Tue Apr  8 23:45:57 2025.
