 Gaussian 16, Revision C.01,

 ----------------------------------------------------------------------
 #t hf aug-cc-pvdz symm=none int=(grid=ultrafine) guess=(read,tcheck) s
 table=(opt,rrhf)
 ----------------------------------------------------------------------
 -----
 title
 -----
 Symbolic Z-matrix:
 Charge =  0 Multiplicity = 1

 SCF Done:  E(RHF) =  -584.229739369     A.U. after   12 cycles
 Normal termination of Gaussian 16 at Tue Apr  8 23:57:04 2025.
 Gaussian 16:  ES64L-G16RevC.01  3-Jul-2019

 ----------------------------------------------------------------------
 #t hf aug-cc-pvdz iop(5/13=1,5/36=2,99/5=2) pseudo=read geom=check gue
 ss=(read,tcheck) scf=(maxcycle=1)
 ----------------------------------------------------------------------
 -----
 title
 -----
 Structure from the checkpoint file:  "BDE49_nonexpt_1992_mol1.chk"
 Charge =  0 Multiplicity = 1

                         Standard orientation:
 ---------------------------------------------------------------------
 Center     Atomic      Atomic             Coordinates (Angstroms)
 Number     Number       Type             X           Y           Z
 ---------------------------------------------------------------------
      1         14           0       -0.597404    0.955649    0.000000
      2          6           0        0.155929    0.116948    1.491033
      3          9           0       -0.261868    2.542312    0.000000
      4          6           0        0.155929    0.116948   -1.491033
      5          6           0        0.155929   -1.420451    1.294555
      6          1           0       -0.367021    0.387348    2.413740
      7          1           0        1.188114    0.472526    1.602715
      8          6           0        0.848821   -1.882731   -0.000000
      9          1           0       -0.877446   -1.790635    1.293780
     10          1           0        0.642844   -1.896457    2.152257
     11          6           0        0.155929   -1.420451   -1.294555
     12          1           0        0.899362   -2.976654   -0.000000
     13          1           0        1.888011   -1.528354   -0.000000
     14          1           0        1.188114    0.472526   -1.602715
     15          1           0       -0.367021    0.387348   -2.413740
     16          1           0        0.642844   -1.896457   -2.152257
     17          1           0       -0.877446   -1.790635   -1.293780
     18          1           0       -2.075104    0.837976    0.000000
 ---------------------------------------------------------------------

 SCF Done:  E(RHF) =  -585.739042561     A.U. after    2 cycles

 The electronic state is 1-A'.
 Alpha  occ. eigenvalues --  -76.22202 -29.24777 -11.43250 -11.41985 -11.38109
 Alpha  occ. eigenvalues --  -11.35443 -11.34353  -5.57045  -2.22848  -2.20274
 Alpha  occ. eigenvalues --   -2.18883  -1.26797  -1.11571  -1.01687  -0.88027
 Alpha  occ. eigenvalues --   -0.84335  -0.77926  -0.65439  -0.62921  -0.61004
 Alpha  occ. eigenvalues --   -0.58017  -0.54391  -0.54031  -0.48791  -0.46418
 Alpha  occ. eigenvalues --   -0.46078  -0.45529  -0.42445  -0.39047  -0.31695
 Alpha  occ. eigenvalues --   -0.30114  -0.29137
 Alpha virt. eigenvalues --    0.03833   0.05528   0.05557   0.05600   0.05707
 Alpha virt. eigenvalues --    0.05872   0.06089   0.06318   0.06940   0.08335
 Alpha virt. eigenvalues --    0.08470   0.09302   0.10210   0.11179   0.12320

 Mulliken charges:
               1
     1  Si   5.680174
     2  C   -3.557428
     3  F   -1.131407
     4  C   -3.557428
     5  C   -2.543911
     6  H    1.205729
     7  H    1.303963
     8  C   -3.098648
     9  H    1.347404
    10  H    1.269259
    11  C   -2.543911
    12  H    1.279648
    13  H    1.511850
    14  H    1.303963
    15  H    1.205729
    16  H    1.269259
    17  H    1.347404
    18  H   -2.291648
 Sum of Mulliken charges =  -0.00000

 Dipole moment (field-independent basis, Debye):
    X=              0.9788    Y=              1.0764    Z=              0.0000  Tot=              1.4549

 Test job not archived.
 1\1\GINC-SE253\SP\RHF\Aug-CC-pVDZ\C5H11F1Si1\OHZDE\08-Apr-2025\0\\#t h
 f aug-cc-pvdz iop(5/13=1,5/36=2,99/5=2) pseudo=read geom=check guess=(
 read,tcheck) scf=(maxcycle=1)\\title\\0,1\Si,0,-1.072584,0.,0.346004\C
 ,0,-0.075339,1.491033,-0.179763\F,0,-2.52931,0.,-0.36676\C,0,-0.075339
 ,-1.491033,-0.179763\C,0,1.415535,1.294555,0.195592\H,0,-0.465234,2.41
 374,0.261343\H,0,-0.168149,1.602715,-1.267526\C,0,2.032994,0.,-0.36346
 6\H,0,1.522218,1.29378,1.288075\H,0,1.996016,2.152257,-0.160371\C,0,1.
 415535,-1.294555,0.195592\H,0,3.106152,0.,-0.145397\H,0,1.943059,0.,-1

 Normal termination of Gaussian 16 at Tue Apr  8 23:57:10 2025.
