 Gaussian 16, Revision C.01,

 ----------------------------------------------------------------------
 #t hf aug-cc-pvdz symm=none int=(grid=ultrafine) guess=(read,tcheck) s
 table=(opt,rrhf)
 ----------------------------------------------------------------------
 -----
 title
 -----
 Symbolic Z-matrix:
 Charge =  0 Multiplicity = 1

 SCF Done:  E(RHF) =  -388.329300943     A.U. after   11 cycles

 1\1\GINC-SE177\Stability\RHF\Aug-CC-pVDZ\C8H18O1\OHZDE\08-Apr-2025\0\\
 #t hf aug-cc-pvdz symm=none int=(grid=ultrafine) guess=(read,tcheck) s
 table=(opt,rrhf)\\title\\0,1\O,0,0.74656,0.211348,0.\C,0,1.423547,-0.1
 74107,-1.185654\C,0,0.625392,0.296649,-2.39312\H,0,1.546295,-1.269531,
 -1.209904\H,0,2.431748,0.268893,-1.20046\C,0,-0.75507,-0.356861,-2.519
 861\H,0,1.217391,0.091457,-3.293741\H,0,0.515058,1.385355,-2.330222\C,
 0,-1.543946,0.144581,-3.732278\H,0,-1.320647,-0.166892,-1.603623\H,0,-
 0.631794,-1.445049,-2.586614\H,0,-1.710509,1.224865,-3.675396\H,0,-2.5

 Normal termination of Gaussian 16 at Tue Apr  8 22:57:23 2025.
 Gaussian 16:  ES64L-G16RevC.01  3-Jul-2019

 ----------------------------------------------------------------------
 #t hf aug-cc-pvdz iop(5/13=1,5/36=2,99/5=2) pseudo=read geom=check gue
 ss=(read,tcheck) scf=(maxcycle=1)
 ----------------------------------------------------------------------
 -----
 title
 -----
 Structure from the checkpoint file:  "BDE49_expt_179_mol1.chk"
 Charge =  0 Multiplicity = 1

                         Standard orientation:
 ---------------------------------------------------------------------
 Center     Atomic      Atomic             Coordinates (Angstroms)
 Number     Number       Type             X           Y           Z
 ---------------------------------------------------------------------
      1          8           0       -0.746560    0.211348   -0.000000
      2          6           0       -1.423547   -0.174107    1.185654
      3          6           0       -0.625392    0.296649    2.393120
      4          1           0       -1.546295   -1.269531    1.209904
      5          1           0       -2.431748    0.268893    1.200460
      6          6           0        0.755070   -0.356861    2.519861
      7          1           0       -1.217391    0.091457    3.293741
      8          1           0       -0.515058    1.385355    2.330222
      9          6           0        1.543946    0.144581    3.732278
     10          1           0        1.320647   -0.166892    1.603623
     11          1           0        0.631794   -1.445049    2.586614
     12          1           0        1.710509    1.224865    3.675396
     13          1           0        2.522837   -0.338083    3.798318
     14          1           0        1.010481   -0.057986    4.666714
     15          6           0       -1.423547   -0.174107   -1.185654
     16          6           0       -0.625392    0.296649   -2.393120
     17          1           0       -2.431748    0.268893   -1.200460
     18          1           0       -1.546295   -1.269531   -1.209904
     19          6           0        0.755070   -0.356861   -2.519861
     20          1           0       -0.515058    1.385355   -2.330222
     21          1           0       -1.217391    0.091457   -3.293741
     22          6           0        1.543946    0.144581   -3.732278
     23          1           0        0.631794   -1.445049   -2.586614
     24          1           0        1.320647   -0.166892   -1.603623
     25          1           0        1.010481   -0.057986   -4.666714
     26          1           0        2.522837   -0.338083   -3.798318
     27          1           0        1.710509    1.224865   -3.675396
 ---------------------------------------------------------------------

 SCF Done:  E(RHF) =  -390.275489436     A.U. after    2 cycles

 The electronic state is 1-A'.
 Alpha  occ. eigenvalues --  -21.03124 -11.45268 -11.42472 -11.40556 -11.40012
 Alpha  occ. eigenvalues --  -11.37466 -11.36992 -11.34357 -11.33918  -1.74565
 Alpha  occ. eigenvalues --   -1.23049  -1.20128  -1.07020  -1.02489  -0.91066
 Alpha  occ. eigenvalues --   -0.88586  -0.81973  -0.81368  -0.65437  -0.64921
 Alpha  occ. eigenvalues --   -0.62234  -0.60116  -0.59383  -0.57810  -0.56399
 Alpha  occ. eigenvalues --   -0.54326  -0.52172  -0.49776  -0.48748  -0.46265
 Alpha  occ. eigenvalues --   -0.46021  -0.45036  -0.44353  -0.43214  -0.39793
 Alpha  occ. eigenvalues --   -0.37156  -0.29150
 Alpha virt. eigenvalues --    0.04394   0.04677   0.04803   0.05212   0.05366
 Alpha virt. eigenvalues --    0.05559   0.05868   0.06042   0.06630   0.06785
 Alpha virt. eigenvalues --    0.07468   0.07597   0.08077   0.08644   0.09553

 Mulliken charges:
               1
     1  O   -3.196639
     2  C   -1.051890
     3  C   -3.544725
     4  H    1.762223
     5  H    1.452984
     6  C   -2.814357
     7  H    1.412613
     8  H    1.631226
     9  C   -4.314589
    10  H    1.831571
    11  H    1.452971
    12  H    1.335574
    13  H    1.104986
    14  H    1.339733
    15  C   -1.051890
    16  C   -3.544725
    17  H    1.452984
    18  H    1.762223
    19  C   -2.814357
    20  H    1.631226
    21  H    1.412613
    22  C   -4.314589
    23  H    1.452971
    24  H    1.831571
    25  H    1.339733
    26  H    1.104986
    27  H    1.335574
 Sum of Mulliken charges =  -0.00000

 Dipole moment (field-independent basis, Debye):
    X=             -0.1557    Y=             -0.1541    Z=              0.0000  Tot=              0.2191

 Test job not archived.
 1\1\GINC-SE177\SP\RHF\Aug-CC-pVDZ\C8H18O1\OHZDE\08-Apr-2025\0\\#t hf a
 ug-cc-pvdz iop(5/13=1,5/36=2,99/5=2) pseudo=read geom=check guess=(rea
 d,tcheck) scf=(maxcycle=1)\\title\\0,1\O,0,0.74656,0.211348,0.\C,0,1.4
 23547,-0.174107,-1.185654\C,0,0.625392,0.296649,-2.39312\H,0,1.546295,
 -1.269531,-1.209904\H,0,2.431748,0.268893,-1.20046\C,0,-0.75507,-0.356
 861,-2.519861\H,0,1.217391,0.091457,-3.293741\H,0,0.515058,1.385355,-2
 .330222\C,0,-1.543946,0.144581,-3.732278\H,0,-1.320647,-0.166892,-1.60
 3623\H,0,-0.631794,-1.445049,-2.586614\H,0,-1.710509,1.224865,-3.67539

 Normal termination of Gaussian 16 at Tue Apr  8 22:57:33 2025.
