 Gaussian 16, Revision C.01,

 ----------------------------------------------------------------------
 #t hf aug-cc-pvdz symm=none int=(grid=ultrafine) guess=(read,tcheck) s
 table=(opt,rrhf)
 ----------------------------------------------------------------------
 -----
 title
 -----
 Symbolic Z-matrix:
 Charge =  0 Multiplicity = 1

 SCF Done:  E(RHF) =  -2066.39956678     A.U. after   13 cycles

 1\1\GINC-SE460\Stability\RHF\Aug-CC-pVDZ\C6H2Cl4\OHZDE\08-Apr-2025\0\\
 #t hf aug-cc-pvdz symm=none int=(grid=ultrafine) guess=(read,tcheck) s
 table=(opt,rrhf)\\title\\0,1\C,0,0.,0.,1.388092\C,0,0.,1.208415,0.6994
 44\C,0,0.,1.208415,-0.699444\C,0,0.,0.,-1.388092\C,0,0.,-1.208415,-0.6
 99444\C,0,0.,-1.208415,0.699444\H,0,0.,0.,2.469017\Cl,0,0.,2.689855,1.
 610899\Cl,0,0.,-2.689855,1.610899\H,0,0.,0.,-2.469017\Cl,0,0.,2.689855
 ,-1.610899\Cl,0,0.,-2.689855,-1.610899\\Version=ES64L-G16RevC.01\HF=-2
 066.3995668\RMSD=5.164e-09\Dipole=0.,0.,0.\Quadrupole=-0.7649051,-3.14

 Normal termination of Gaussian 16 at Tue Apr  8 22:50:01 2025.
 Gaussian 16:  ES64L-G16RevC.01  3-Jul-2019

 ----------------------------------------------------------------------
 #t hf aug-cc-pvdz iop(5/13=1,5/36=2,99/5=2) pseudo=read geom=check gue
 ss=(read,tcheck) scf=(maxcycle=1)
 ----------------------------------------------------------------------
 -----
 title
 -----
 Structure from the checkpoint file:  "BDE49_expt_1683_mol1.chk"
 Charge =  0 Multiplicity = 1

                         Standard orientation:
 ---------------------------------------------------------------------
 Center     Atomic      Atomic             Coordinates (Angstroms)
 Number     Number       Type             X           Y           Z
 ---------------------------------------------------------------------
      1          6           0        0.000000    0.000000    1.388092
      2          6           0        0.000000    1.208415    0.699444
      3          6           0        0.000000    1.208415   -0.699444
      4          6           0        0.000000    0.000000   -1.388092
      5          6           0       -0.000000   -1.208415   -0.699444
      6          6           0       -0.000000   -1.208415    0.699444
      7          1           0        0.000000    0.000000    2.469017
      8         17           0        0.000000    2.689855    1.610899
      9         17           0       -0.000000   -2.689855    1.610899
     10          1           0        0.000000    0.000000   -2.469017
     11         17           0        0.000000    2.689855   -1.610899
     12         17           0       -0.000000   -2.689855   -1.610899
 ---------------------------------------------------------------------

 SCF Done:  E(RHF) =  -2068.45420866     A.U. after    2 cycles

 The electronic state is 1-AG.
 Alpha  occ. eigenvalues --  -99.91864 -99.91860 -99.91855 -99.91836 -11.57557
 Alpha  occ. eigenvalues --  -11.52072 -11.50353 -11.49742 -11.48646 -11.43040
 Alpha  occ. eigenvalues --  -10.49265 -10.49254 -10.49250 -10.49228  -9.69488
 Alpha  occ. eigenvalues --   -9.69367  -9.69123  -9.69106  -9.68469  -9.68432
 Alpha  occ. eigenvalues --   -9.68237  -9.68193  -9.68186  -9.68186  -9.68142
 Alpha  occ. eigenvalues --   -9.68108  -1.49113  -1.38959  -1.35182  -1.33879
 Alpha  occ. eigenvalues --   -1.24686  -1.12950  -1.09045  -0.93527  -0.89598
 Alpha  occ. eigenvalues --   -0.75353  -0.71670  -0.71135  -0.64284  -0.64102
 Alpha  occ. eigenvalues --   -0.63646  -0.59992  -0.59471  -0.56923  -0.56834
 Alpha  occ. eigenvalues --   -0.55680  -0.52428  -0.50704  -0.50420  -0.49783
 Alpha  occ. eigenvalues --   -0.48958  -0.37386  -0.36351
 Alpha virt. eigenvalues --    0.02309   0.04469   0.06137   0.06651   0.06940
 Alpha virt. eigenvalues --    0.07114   0.07143   0.08148   0.08748   0.10057
 Alpha virt. eigenvalues --    0.10630   0.11122   0.11838   0.12007   0.12261

 Mulliken charges:
               1
     1  C    0.854858
     2  C   -0.738333
     3  C   -0.738333
     4  C    0.854858
     5  C   -0.738333
     6  C   -0.738333
     7  H    1.896823
     8  Cl  -0.637508
     9  Cl  -0.637508
    10  H    1.896823
    11  Cl  -0.637508
    12  Cl  -0.637508
 Sum of Mulliken charges =  -0.00000

 Dipole moment (field-independent basis, Debye):
    X=              0.0000    Y=             -0.0000    Z=             -0.0000  Tot=              0.0000

 Test job not archived.
 1\1\GINC-SE460\SP\RHF\Aug-CC-pVDZ\C6H2Cl4\OHZDE\08-Apr-2025\0\\#t hf a
 ug-cc-pvdz iop(5/13=1,5/36=2,99/5=2) pseudo=read geom=check guess=(rea
 d,tcheck) scf=(maxcycle=1)\\title\\0,1\C,0,0.,0.,1.388092\C,0,0.,1.208
 415,0.699444\C,0,0.,1.208415,-0.699444\C,0,0.,0.,-1.388092\C,0,0.,-1.2
 08415,-0.699444\C,0,0.,-1.208415,0.699444\H,0,0.,0.,2.469017\Cl,0,0.,2
 .689855,1.610899\Cl,0,0.,-2.689855,1.610899\H,0,0.,0.,-2.469017\Cl,0,0
 .,2.689855,-1.610899\Cl,0,0.,-2.689855,-1.610899\\Version=ES64L-G16Rev
 C.01\State=1-AG\HF=-2068.4542087\RMSD=3.841e+00\Dipole=0.,0.,0.\Quadru

 Normal termination of Gaussian 16 at Tue Apr  8 22:50:06 2025.
