 Gaussian 16, Revision C.01,

 ----------------------------------------------------------------------
 #t hf aug-cc-pvdz symm=none int=(grid=ultrafine) guess=(read,tcheck) s
 table=(opt,rrhf)
 ----------------------------------------------------------------------
 -----
 title
 -----
 Symbolic Z-matrix:
 Charge =  0 Multiplicity = 1

 SCF Done:  E(RHF) =  -888.129314330     A.U. after   11 cycles
 Normal termination of Gaussian 16 at Tue Apr  8 23:50:18 2025.
 Gaussian 16:  ES64L-G16RevC.01  3-Jul-2019

 ----------------------------------------------------------------------
 #t hf aug-cc-pvdz iop(5/13=1,5/36=2,99/5=2) pseudo=read geom=check gue
 ss=(read,tcheck) scf=(maxcycle=1)
 ----------------------------------------------------------------------
 -----
 title
 -----
 Structure from the checkpoint file:  "BDE49_nonexpt_1852_mol1.chk"
 Charge =  0 Multiplicity = 1

                         Standard orientation:
 ---------------------------------------------------------------------
 Center     Atomic      Atomic             Coordinates (Angstroms)
 Number     Number       Type             X           Y           Z
 ---------------------------------------------------------------------
      1          6           0        1.284813   -0.693274   -0.000025
      2         14           0       -0.044515    0.648793    0.000021
      3         17           0       -1.905443   -0.292757   -0.000011
      4          1           0        0.051548    1.476731   -1.215312
      5          1           0        0.051549    1.476647    1.215412
      6          9           0        2.526520   -0.026824    0.000004
      7          1           0        1.232540   -1.329240   -0.888099
      8          1           0        1.232534   -1.329307    0.888002
 ---------------------------------------------------------------------

 SCF Done:  E(RHF) =  -889.067073016     A.U. after    2 cycles

 The electronic state is 1-A.
 Alpha  occ. eigenvalues --  -99.89199 -76.26921 -29.26530 -11.43080 -10.46596
 Alpha  occ. eigenvalues --   -9.66479  -9.65867  -9.65791  -5.60574  -2.23846
 Alpha  occ. eigenvalues --   -2.22698  -2.22321  -1.29689  -1.15397  -0.78721
 Alpha  occ. eigenvalues --   -0.68791  -0.65193  -0.56378  -0.55719  -0.55683
 Alpha  occ. eigenvalues --   -0.50077  -0.48058  -0.37672  -0.26408  -0.24569
 Alpha virt. eigenvalues --    0.03961   0.04976   0.05374   0.06051   0.07917
 Alpha virt. eigenvalues --    0.08095   0.10346   0.11492   0.13278   0.13958
 Alpha virt. eigenvalues --    0.14615   0.15066   0.15239   0.15990   0.17449

 Mulliken charges:
               1
     1  C   -3.708195
     2  Si   5.506093
     3  Cl  -0.869195
     4  H   -1.838406
     5  H   -1.838405
     6  F    0.112869
     7  H    1.317619
     8  H    1.317620
 Sum of Mulliken charges =  -0.00000

 Dipole moment (field-independent basis, Debye):
    X=              2.9777    Y=              0.6177    Z=              0.0000  Tot=              3.0411

 Test job not archived.
 1\1\GINC-SE419\SP\RHF\Aug-CC-pVDZ\C1H4Cl1F1Si1\OHZDE\08-Apr-2025\0\\#t
  hf aug-cc-pvdz iop(5/13=1,5/36=2,99/5=2) pseudo=read geom=check guess
 =(read,tcheck) scf=(maxcycle=1)\\title\\0,1\C,0,1.284813,-0.693274,-0.
 000025\Si,0,-0.044515,0.648793,0.000021\Cl,0,-1.905443,-0.292758,-0.00
 0011\H,0,0.051548,1.476731,-1.215312\H,0,0.051549,1.476647,1.215412\F,
 0,2.52652,-0.026824,0.000004\H,0,1.23254,-1.32924,-0.888099\H,0,1.2325
 34,-1.329307,0.888002\\Version=ES64L-G16RevC.01\State=1-A\HF=-889.0670
 73\RMSD=7.724e-02\Dipole=1.1715221,0.2430061,0.0000089\Quadrupole=1.01

 Normal termination of Gaussian 16 at Tue Apr  8 23:50:20 2025.
