 Gaussian 16, Revision C.01,

 ----------------------------------------------------------------------
 #t hf aug-cc-pvdz symm=none int=(grid=ultrafine) guess=(read,tcheck) s
 table=(opt,rrhf)
 ----------------------------------------------------------------------
 -----
 title
 -----
 Symbolic Z-matrix:
 Charge =  0 Multiplicity = 1

 SCF Done:  E(RHF) =  -977.084152271     A.U. after   12 cycles

 1\1\GINC-SE103\Stability\RHF\Aug-CC-pVDZ\F4H2Si2\OHZDE\09-Apr-2025\0\\
 #t hf aug-cc-pvdz symm=none int=(grid=ultrafine) guess=(read,tcheck) s
 table=(opt,rrhf)\\title\\0,1\Si,0,1.513723,0.58826,0.\Si,0,-0.756409,-
 0.015574,0.\F,0,-1.656677,1.297267,-0.000001\F,0,2.39825,-0.759212,0.0
 00001\F,0,-1.162779,-0.865803,1.279706\H,0,1.82673,1.362188,1.217\F,0,
 -1.162779,-0.865805,-1.279705\H,0,1.82673,1.362186,-1.217002\\Version=
 ES64L-G16RevC.01\HF=-977.0841523\RMSD=1.881e-09\Dipole=0.5414644,0.693
 2792,0.0000004\Quadrupole=-1.3014619,0.4819337,0.8195282,2.6438935,-0.

 Normal termination of Gaussian 16 at Wed Apr  9 00:09:34 2025.
 Gaussian 16:  ES64L-G16RevC.01  3-Jul-2019

 ----------------------------------------------------------------------
 #t hf aug-cc-pvdz iop(5/13=1,5/36=2,99/5=2) pseudo=read geom=check gue
 ss=(read,tcheck) scf=(maxcycle=1)
 ----------------------------------------------------------------------
 -----
 title
 -----
 Structure from the checkpoint file:  "BDE49_nonexpt_2309_mol1.chk"
 Charge =  0 Multiplicity = 1

                         Standard orientation:
 ---------------------------------------------------------------------
 Center     Atomic      Atomic             Coordinates (Angstroms)
 Number     Number       Type             X           Y           Z
 ---------------------------------------------------------------------
      1         14           0        1.513723    0.588260   -0.000000
      2         14           0       -0.756409   -0.015574   -0.000000
      3          9           0       -1.656677    1.297267   -0.000001
      4          9           0        2.398250   -0.759212    0.000001
      5          9           0       -1.162779   -0.865803    1.279706
      6          1           0        1.826730    1.362188    1.217000
      7          9           0       -1.162779   -0.865805   -1.279705
      8          1           0        1.826730    1.362186   -1.217002
 ---------------------------------------------------------------------

 SCF Done:  E(RHF) =  -978.743052910     A.U. after    2 cycles

 The electronic state is 1-A.
 Alpha  occ. eigenvalues --  -76.32589 -76.28815 -29.30343 -29.30265 -29.30260
 Alpha  occ. eigenvalues --  -29.28922  -5.69232  -5.63051  -2.33375  -2.33366
 Alpha  occ. eigenvalues --   -2.28492  -2.27710  -2.24028  -2.23126  -1.01927
 Alpha  occ. eigenvalues --   -0.89278  -0.73015  -0.72915  -0.62171  -0.53929
 Alpha  occ. eigenvalues --   -0.53556  -0.43435  -0.43411  -0.43284  -0.39638
 Alpha  occ. eigenvalues --   -0.37201  -0.37053  -0.35385  -0.34834  -0.31349
 Alpha  occ. eigenvalues --   -0.31281  -0.29423  -0.26458
 Alpha virt. eigenvalues --    0.04392   0.06479   0.06781   0.07408   0.07623
 Alpha virt. eigenvalues --    0.08816   0.09210   0.09582   0.13493   0.13871
 Alpha virt. eigenvalues --    0.15988   0.17406   0.20036   0.21861   0.22953

 Mulliken charges:
               1
     1  Si   4.086725
     2  Si   2.571072
     3  F   -0.716393
     4  F   -0.942436
     5  F   -0.772521
     6  H   -1.726963
     7  F   -0.772522
     8  H   -1.726962
 Sum of Mulliken charges =  -0.00000

 Dipole moment (field-independent basis, Debye):
    X=             -1.0823    Y=             -2.6447    Z=              0.0000  Tot=              2.8576

 Test job not archived.
 1\1\GINC-SE103\SP\RHF\Aug-CC-pVDZ\F4H2Si2\OHZDE\09-Apr-2025\0\\#t hf a
 ug-cc-pvdz iop(5/13=1,5/36=2,99/5=2) pseudo=read geom=check guess=(rea
 d,tcheck) scf=(maxcycle=1)\\title\\0,1\Si,0,1.513723,0.58826,0.\Si,0,-
 0.756409,-0.015574,0.\F,0,-1.656677,1.297267,-0.000001\F,0,2.39825,-0.
 759212,0.000001\F,0,-1.162779,-0.865803,1.279706\H,0,1.82673,1.362188,
 1.217\F,0,-1.162779,-0.865805,-1.279705\H,0,1.82673,1.362186,-1.217002
 \\Version=ES64L-G16RevC.01\State=1-A\HF=-978.7430529\RMSD=6.717e-02\Di
 pole=-0.4257914,-1.0404989,0.0000017\Quadrupole=2.2326425,-1.0076106,-

 Normal termination of Gaussian 16 at Wed Apr  9 00:09:37 2025.
