 Gaussian 16, Revision C.01,

 ----------------------------------------------------------------------
 #t hf aug-cc-pvdz symm=none int=(grid=ultrafine) guess=(read,tcheck) s
 table=(opt,rrhf)
 ----------------------------------------------------------------------
 -----
 title
 -----
 Symbolic Z-matrix:
 Charge =  0 Multiplicity = 1

 SCF Done:  E(RHF) =  -708.545470445     A.U. after   15 cycles
 Normal termination of Gaussian 16 at Tue Apr  8 23:47:22 2025.
 Gaussian 16:  ES64L-G16RevC.01  3-Jul-2019

 ----------------------------------------------------------------------
 #t hf aug-cc-pvdz iop(5/13=1,5/36=2,99/5=2) pseudo=read geom=check gue
 ss=(read,tcheck) scf=(maxcycle=1)
 ----------------------------------------------------------------------
 -----
 title
 -----
 Structure from the checkpoint file:  "BDE49_nonexpt_156_mol1.chk"
 Charge =  0 Multiplicity = 1

                         Standard orientation:
 ---------------------------------------------------------------------
 Center     Atomic      Atomic             Coordinates (Angstroms)
 Number     Number       Type             X           Y           Z
 ---------------------------------------------------------------------
      1          5           0        0.755234    1.412163   -0.345197
      2          5           0       -0.755244    1.412270    0.344742
      3          6           0       -1.987867    0.552364   -0.042490
      4          6           0       -3.227133    0.753517    0.599050
      5          6           0       -1.917655   -0.450439   -1.032846
      6          6           0       -3.028463   -1.216655   -1.368870
      7          6           0       -4.246574   -1.002925   -0.724552
      8          6           0       -4.321263   -0.017928    0.250440
      9          1           0       -0.976651   -0.629604   -1.541071
     10          1           0       -2.955939   -1.982678   -2.132282
     11          1           0       -5.129588   -1.582772   -0.964431
     12          6           0        1.987869    0.552407    0.042327
     13          6           0        3.227102    0.753280   -0.599364
     14          6           0        1.917700   -0.449980    1.033107
     15          6           0        3.028520   -1.216064    1.369394
     16          6           0        4.246599   -1.002614    0.724921
     17          6           0        4.321243   -0.018027   -0.250488
     18          1           0        0.976722   -0.628925    1.541457
     19          1           0        2.956031   -1.981766    2.133131
     20          1           0        5.129621   -1.582367    0.964996
     21          9           0       -5.502445    0.188357    0.876128
     22          9           0        5.502394    0.187986   -0.876326
     23          1           0       -3.336996    1.509949    1.366851
     24          1           0        3.336930    1.509390   -1.367487
     25          1           0       -0.934485    2.219231    1.220075
     26          1           0        0.934399    2.218676   -1.220959
 ---------------------------------------------------------------------

 SCF Done:  E(RHF) =  -711.613680204     A.U. after    2 cycles

 The electronic state is 1-A.
 Alpha  occ. eigenvalues --  -29.28597 -29.28596 -11.54027 -11.53849 -11.47560
 Alpha  occ. eigenvalues --  -11.47304 -11.44312 -11.44066 -11.43664 -11.43606
 Alpha  occ. eigenvalues --  -11.42219 -11.42031 -11.37661 -11.37634  -7.61638
 Alpha  occ. eigenvalues --   -7.61638  -1.37901  -1.37811  -1.16526  -1.15634
 Alpha  occ. eigenvalues --   -1.12490  -1.12384  -0.95822  -0.92368  -0.92242
 Alpha  occ. eigenvalues --   -0.90080  -0.84929  -0.78879  -0.73379  -0.70185
 Alpha  occ. eigenvalues --   -0.69336  -0.66028  -0.62334  -0.61981  -0.61207
 Alpha  occ. eigenvalues --   -0.60489  -0.55378  -0.55298  -0.54816  -0.53821
 Alpha  occ. eigenvalues --   -0.48898  -0.48152  -0.43598  -0.43359  -0.41913
 Alpha  occ. eigenvalues --   -0.41816  -0.39837  -0.38552  -0.35745  -0.35374
 Alpha  occ. eigenvalues --   -0.35373  -0.27526  -0.26975  -0.23625  -0.23468
 Alpha virt. eigenvalues --    0.03094   0.03418   0.03886   0.04026   0.05383
 Alpha virt. eigenvalues --    0.05445   0.05702   0.05719   0.05889   0.06244
 Alpha virt. eigenvalues --    0.07218   0.07806   0.08764   0.08920   0.10054

 Mulliken charges:
               1
     1  B    3.410528
     2  B    3.411120
     3  C   -1.597596
     4  C   -3.583490
     5  C    0.568171
     6  C   -0.892230
     7  C   -5.373958
     8  C    3.345185
     9  H    2.072553
    10  H    1.571293
    11  H    1.739188
    12  C   -1.597666
    13  C   -3.583523
    14  C    0.568232
    15  C   -0.892233
    16  C   -5.373957
    17  C    3.345317
    18  H    2.072518
    19  H    1.571300
    20  H    1.739188
    21  F    0.587832
    22  F    0.587821
    23  H    2.096188
    24  H    2.096182
    25  H   -3.944234
    26  H   -3.943730
 Sum of Mulliken charges =   0.00000

 Dipole moment (field-independent basis, Debye):
    X=              0.0000    Y=             -1.1166    Z=              0.0001  Tot=              1.1166

 Test job not archived.
 1\1\GINC-SE015\SP\RHF\Aug-CC-pVDZ\C12H10B2F2\OHZDE\08-Apr-2025\0\\#t h
 f aug-cc-pvdz iop(5/13=1,5/36=2,99/5=2) pseudo=read geom=check guess=(
 read,tcheck) scf=(maxcycle=1)\\title\\0,1\B,0,-0.755234,1.412163,0.345
 197\B,0,0.755244,1.41227,-0.344742\C,0,1.987867,0.552364,0.04249\C,0,3
 .227133,0.753517,-0.59905\C,0,1.917655,-0.450439,1.032846\C,0,3.028463
 ,-1.216655,1.36887\C,0,4.246574,-1.002925,0.724552\C,0,4.321263,-0.017
 928,-0.25044\H,0,0.976651,-0.629604,1.541071\H,0,2.955939,-1.982678,2.
 132282\H,0,5.129588,-1.582772,0.964431\C,0,-1.987869,0.552407,-0.04232

 Normal termination of Gaussian 16 at Tue Apr  8 23:47:49 2025.
