 Gaussian 16, Revision C.01,

 ----------------------------------------------------------------------
 #t hf aug-cc-pvdz symm=none int=(grid=ultrafine) guess=(read,tcheck) s
 table=(opt,rrhf)
 ----------------------------------------------------------------------
 -----
 title
 -----
 Symbolic Z-matrix:
 Charge =  0 Multiplicity = 1

 SCF Done:  E(RHF) =  -1155.55321084     A.U. after   14 cycles
 Normal termination of Gaussian 16 at Tue Apr  8 23:45:11 2025.
 Gaussian 16:  ES64L-G16RevC.01  3-Jul-2019

 ----------------------------------------------------------------------
 #t hf aug-cc-pvdz iop(5/13=1,5/36=2,99/5=2) pseudo=read geom=check gue
 ss=(read,tcheck) scf=(maxcycle=1)
 ----------------------------------------------------------------------
 -----
 title
 -----
 Structure from the checkpoint file:  "BDE49_nonexpt_1720_mol1.chk"
 Charge =  0 Multiplicity = 1

                         Standard orientation:
 ---------------------------------------------------------------------
 Center     Atomic      Atomic             Coordinates (Angstroms)
 Number     Number       Type             X           Y           Z
 ---------------------------------------------------------------------
      1          6           0        2.731270   -0.624993    0.226308
      2          6           0        1.377060    0.016735    0.004243
      3         16           0        0.040180   -1.190519   -0.154437
      4          8           0        1.216356    1.217499   -0.062243
      5         15           0       -1.723400    0.054682   -0.063318
      6          8           0       -2.861359   -0.707624   -0.565217
      7          6           0        3.900944    0.317735   -0.054022
      8          1           0        2.788829   -1.535982   -0.377339
      9          1           0        2.741219   -0.961413    1.270541
     10          1           0        3.915800    0.626330   -1.101297
     11          1           0        4.845396   -0.183006    0.168065
     12          1           0        3.832982    1.217718    0.557957
     13          8           0       -1.818653    0.517359    1.468916
     14          1           0       -2.304491   -0.120046    2.007459
     15          8           0       -1.320893    1.383746   -0.790580
     16          1           0       -0.390869    1.639779   -0.570808
 ---------------------------------------------------------------------

 SCF Done:  E(RHF) =  -1157.78771714     A.U. after    2 cycles

 The electronic state is 1-A.
 Alpha  occ. eigenvalues -- -105.33300 -75.72523 -21.12901 -21.11284 -21.10171
 Alpha  occ. eigenvalues --  -21.03781 -13.17516 -13.13442 -13.06157 -11.54894
 Alpha  occ. eigenvalues --  -11.44692 -11.39304  -8.06838  -2.95701  -2.01818
 Alpha  occ. eigenvalues --   -1.92665  -1.79247  -1.76799  -1.54064  -1.40651
 Alpha  occ. eigenvalues --   -1.26407  -1.23271  -1.11958  -0.96298  -0.77056
 Alpha  occ. eigenvalues --   -0.71861  -0.66247  -0.64919  -0.61758  -0.56561
 Alpha  occ. eigenvalues --   -0.55758  -0.54138  -0.52397  -0.48843  -0.48395
 Alpha  occ. eigenvalues --   -0.44723  -0.42615  -0.36357  -0.35505  -0.30485
 Alpha  occ. eigenvalues --   -0.29774  -0.28066  -0.23887  -0.15986
 Alpha virt. eigenvalues --    0.02475   0.04280   0.05107   0.05412   0.05950
 Alpha virt. eigenvalues --    0.06206   0.07652   0.08816   0.09763   0.10762
 Alpha virt. eigenvalues --    0.11351   0.12125   0.12617   0.13075   0.13460

 Mulliken charges:
               1
     1  C   -3.994308
     2  C    3.435278
     3  S   -1.108724
     4  O   -3.201614
     5  P    7.840223
     6  O   -2.782446
     7  C   -3.687644
     8  H    1.616091
     9  H    1.495374
    10  H    1.265786
    11  H    1.107521
    12  H    1.369562
    13  O   -2.570666
    14  H    0.867102
    15  O   -3.193414
    16  H    1.541878
 Sum of Mulliken charges =  -0.00000

 Dipole moment (field-independent basis, Debye):
    X=              2.2612    Y=              0.4433    Z=              1.8067  Tot=              2.9280

 Test job not archived.
 1\1\GINC-SE363\SP\RHF\Aug-CC-pVDZ\C3H7O4P1S1\OHZDE\08-Apr-2025\0\\#t h
 f aug-cc-pvdz iop(5/13=1,5/36=2,99/5=2) pseudo=read geom=check guess=(
 read,tcheck) scf=(maxcycle=1)\\title\\0,1\C,0,2.73127,-0.624993,0.2263
 08\C,0,1.37706,0.016735,0.004243\S,0,0.04018,-1.190519,-0.154437\O,0,1
 .216356,1.217499,-0.062243\P,0,-1.7234,0.054682,-0.063318\O,0,-2.86135
 9,-0.707624,-0.565217\C,0,3.900944,0.317735,-0.054022\H,0,2.788829,-1.
 535982,-0.377339\H,0,2.741219,-0.961413,1.270541\H,0,3.9158,0.62633,-1
 .101297\H,0,4.845396,-0.183006,0.168065\H,0,3.832982,1.217718,0.557957

 Normal termination of Gaussian 16 at Tue Apr  8 23:45:18 2025.
