 Gaussian 16, Revision C.01,

 ----------------------------------------------------------------------
 #t hf aug-cc-pvdz symm=none int=(grid=ultrafine) guess=(read,tcheck) s
 table=(opt,rrhf)
 ----------------------------------------------------------------------
 -----
 title
 -----
 Symbolic Z-matrix:
 Charge =  0 Multiplicity = 1

 SCF Done:  E(RHF) =  -119.295532710     A.U. after   12 cycles
 Normal termination of Gaussian 16 at Wed Apr  9 00:35:56 2025.
 Gaussian 16:  ES64L-G16RevC.01  3-Jul-2019

 ----------------------------------------------------------------------
 #t hf aug-cc-pvdz iop(5/13=1,5/36=2,99/5=2) pseudo=read geom=check gue
 ss=(read,tcheck) scf=(maxcycle=1)
 ----------------------------------------------------------------------
 -----
 title
 -----
 Structure from the checkpoint file:  "BDE49_nonexpt_506_mol1.chk"
 Charge =  0 Multiplicity = 1

                         Standard orientation:
 ---------------------------------------------------------------------
 Center     Atomic      Atomic             Coordinates (Angstroms)
 Number     Number       Type             X           Y           Z
 ---------------------------------------------------------------------
      1          1           0        1.373447   -1.387066    0.000239
      2          1           0        2.313438    0.451447    0.000227
      3          5           0        1.313895   -0.194901   -0.000327
      4          6           0       -0.100138    0.471414    0.000016
      5          7           0       -1.205942   -0.184079    0.000135
      6          1           0       -1.004737   -1.191427   -0.000005
      7          1           0       -0.209199    1.561614    0.000135
 ---------------------------------------------------------------------

 SCF Done:  E(RHF) =  -119.848058515     A.U. after    2 cycles

 The electronic state is 1-A.
 Alpha  occ. eigenvalues --  -15.76775 -11.38683  -7.63235  -1.34163  -0.95159
 Alpha  occ. eigenvalues --   -0.79544  -0.58761  -0.56884  -0.48017  -0.43695
 Alpha  occ. eigenvalues --   -0.37339
 Alpha virt. eigenvalues --    0.02849   0.03228   0.04275   0.04551   0.07120
 Alpha virt. eigenvalues --    0.08236   0.09754   0.10337   0.12242   0.14137
 Alpha virt. eigenvalues --    0.14738   0.17165   0.18514   0.18966   0.22097

 Mulliken charges:
               1
     1  H   -2.951124
     2  H   -3.152961
     3  B    7.362371
     4  C   -1.066228
     5  N   -2.391649
     6  H    0.765395
     7  H    1.434197
 Sum of Mulliken charges =   0.00000

 Dipole moment (field-independent basis, Debye):
    X=              0.9750    Y=             -0.2459    Z=             -0.0014  Tot=              1.0055

 Test job not archived.
 1\1\GINC-SE166\SP\RHF\Aug-CC-pVDZ\C1H4B1N1\OHZDE\09-Apr-2025\0\\#t hf
 aug-cc-pvdz iop(5/13=1,5/36=2,99/5=2) pseudo=read geom=check guess=(re
 ad,tcheck) scf=(maxcycle=1)\\title\\0,1\H,0,1.373447,-1.387066,0.00023
 9\H,0,2.313438,0.451447,0.000227\B,0,1.313895,-0.194901,-0.000327\C,0,
 -0.100138,0.471414,0.000016\N,0,-1.205942,-0.184079,0.000135\H,0,-1.00
 4737,-1.191427,-0.000005\H,0,-0.209199,1.561614,0.000135\\Version=ES64
 L-G16RevC.01\State=1-A\HF=-119.8480585\RMSD=1.655e-01\Dipole=0.3835756
 ,-0.0967562,-0.0005698\Quadrupole=-3.0209465,1.4772232,1.5437233,0.950

 Normal termination of Gaussian 16 at Wed Apr  9 00:35:59 2025.
