 Gaussian 16, Revision C.01,

 ----------------------------------------------------------------------
 #t hf aug-cc-pvdz symm=none int=(grid=ultrafine) guess=(read,tcheck) s
 table=(opt,rrhf)
 ----------------------------------------------------------------------
 -----
 title
 -----
 Symbolic Z-matrix:
 Charge =  0 Multiplicity = 1

 SCF Done:  E(RHF) =  -734.688572480     A.U. after   13 cycles
 Normal termination of Gaussian 16 at Tue Apr  8 22:42:26 2025.
 Gaussian 16:  ES64L-G16RevC.01  3-Jul-2019

 ----------------------------------------------------------------------
 #t hf aug-cc-pvdz iop(5/13=1,5/36=2,99/5=2) pseudo=read geom=check gue
 ss=(read,tcheck) scf=(maxcycle=1)
 ----------------------------------------------------------------------
 -----
 title
 -----
 Structure from the checkpoint file:  "BDE49_expt_139_mol1.chk"
 Charge =  0 Multiplicity = 1

                         Standard orientation:
 ---------------------------------------------------------------------
 Center     Atomic      Atomic             Coordinates (Angstroms)
 Number     Number       Type             X           Y           Z
 ---------------------------------------------------------------------
      1          6           0       -0.257978   -0.732204    0.000004
      2          6           0        0.871633   -0.043204    0.000006
      3          9           0        2.063984   -0.615021   -0.000004
      4         17           0       -1.810518    0.034298   -0.000001
      5          1           0       -0.248761   -1.809940   -0.000001
      6          9           0        0.974420    1.268279   -0.000001
 ---------------------------------------------------------------------

 SCF Done:  E(RHF) =  -735.955221393     A.U. after    2 cycles

 The electronic state is 1-A.
 Alpha  occ. eigenvalues --  -99.91664 -29.33878 -29.33812 -11.56151 -11.45633
 Alpha  occ. eigenvalues --  -10.49004  -9.68836  -9.68016  -9.67906  -1.40662
 Alpha  occ. eigenvalues --   -1.28722  -0.99639  -0.86678  -0.73176  -0.63297
 Alpha  occ. eigenvalues --   -0.63011  -0.54228  -0.52800  -0.47039  -0.42187
 Alpha  occ. eigenvalues --   -0.36834  -0.32950  -0.27618  -0.26513
 Alpha virt. eigenvalues --    0.04074   0.06854   0.09588   0.10890   0.11481
 Alpha virt. eigenvalues --    0.12399   0.12931   0.13915   0.14511   0.16158
 Alpha virt. eigenvalues --    0.17727   0.18703   0.18819   0.22399   0.24023

 Mulliken charges:
               1
     1  C   -3.379566
     2  C    0.630075
     3  F    0.705520
     4  Cl  -0.344983
     5  H    1.438299
     6  F    0.950655
 Sum of Mulliken charges =  -0.00000

 Dipole moment (field-independent basis, Debye):
    X=              4.4428    Y=              1.0290    Z=             -0.0000  Tot=              4.5604

 Test job not archived.
 1\1\GINC-SE070\SP\RHF\Aug-CC-pVDZ\C2H1Cl1F2\OHZDE\08-Apr-2025\0\\#t hf
  aug-cc-pvdz iop(5/13=1,5/36=2,99/5=2) pseudo=read geom=check guess=(r
 ead,tcheck) scf=(maxcycle=1)\\title\\0,1\C,0,0.257978,-0.732204,-0.000
 004\C,0,-0.871633,-0.043204,-0.000006\F,0,-2.063984,-0.615021,0.000004
 \Cl,0,1.810518,0.034298,0.000001\H,0,0.248761,-1.80994,0.000001\F,0,-0
 .97442,1.268279,0.000001\\Version=ES64L-G16RevC.01\State=1-A\HF=-735.9
 552214\RMSD=3.997e-01\Dipole=-1.7479161,0.4048235,0.0000133\Quadrupole
 =1.744988,1.3718012,-3.1167891,0.3232313,-0.0000118,-0.0000118\PG=C01

 Normal termination of Gaussian 16 at Tue Apr  8 22:42:28 2025.
