 Gaussian 16, Revision C.01,

 ----------------------------------------------------------------------
 #t hf aug-cc-pvdz symm=none int=(grid=ultrafine) guess=(read,tcheck) s
 table=(opt,rrhf)
 ----------------------------------------------------------------------
 -----
 title
 -----
 Symbolic Z-matrix:
 Charge =  0 Multiplicity = 1

 SCF Done:  E(RHF) =  -385.022907654     A.U. after   13 cycles

 1\1\GINC-SE072\Stability\RHF\Aug-CC-pVDZ\C6H14O2\OHZDE\08-Apr-2025\0\\
 #t hf aug-cc-pvdz symm=none int=(grid=ultrafine) guess=(read,tcheck) s
 table=(opt,rrhf)\\title\\0,1\O,0,0.357185,-0.259973,0.638369\C,0,1.600
 486,-0.924039,0.414839\C,0,2.563763,-0.13856,-0.471011\C,0,2.921866,1.
 237146,0.095671\H,0,2.022012,1.836223,0.248742\H,0,3.582514,1.783316,-
 0.582358\H,0,3.43268,1.14863,1.06009\H,0,3.468409,-0.745183,-0.598735\
 H,0,2.113414,-0.034152,-1.461871\H,0,1.999879,-1.031615,1.429996\H,0,1
 .413026,-1.92471,0.007877\O,0,-0.357185,-0.259973,-0.638369\C,0,-1.600

 Normal termination of Gaussian 16 at Tue Apr  8 22:57:52 2025.
 Gaussian 16:  ES64L-G16RevC.01  3-Jul-2019

 ----------------------------------------------------------------------
 #t hf aug-cc-pvdz iop(5/13=1,5/36=2,99/5=2) pseudo=read geom=check gue
 ss=(read,tcheck) scf=(maxcycle=1)
 ----------------------------------------------------------------------
 -----
 title
 -----
 Structure from the checkpoint file:  "BDE49_expt_1854_mol1.chk"
 Charge =  0 Multiplicity = 1

                         Standard orientation:
 ---------------------------------------------------------------------
 Center     Atomic      Atomic             Coordinates (Angstroms)
 Number     Number       Type             X           Y           Z
 ---------------------------------------------------------------------
      1          8           0        0.357185   -0.259973    0.638369
      2          6           0        1.600486   -0.924039    0.414839
      3          6           0        2.563763   -0.138560   -0.471011
      4          6           0        2.921866    1.237146    0.095671
      5          1           0        2.022012    1.836223    0.248742
      6          1           0        3.582514    1.783316   -0.582358
      7          1           0        3.432680    1.148630    1.060090
      8          1           0        3.468409   -0.745183   -0.598735
      9          1           0        2.113414   -0.034152   -1.461871
     10          1           0        1.999879   -1.031615    1.429996
     11          1           0        1.413026   -1.924710    0.007877
     12          8           0       -0.357185   -0.259973   -0.638369
     13          6           0       -1.600485   -0.924039   -0.414839
     14          6           0       -2.563763   -0.138561    0.471011
     15          1           0       -1.413026   -1.924710   -0.007877
     16          1           0       -1.999879   -1.031614   -1.429996
     17          6           0       -2.921867    1.237146   -0.095671
     18          1           0       -2.113414   -0.034152    1.461871
     19          1           0       -3.468408   -0.745183    0.598735
     20          1           0       -2.022013    1.836223   -0.248742
     21          1           0       -3.582515    1.783316    0.582358
     22          1           0       -3.432680    1.148630   -1.060090
 ---------------------------------------------------------------------

 SCF Done:  E(RHF) =  -386.851938969     A.U. after    2 cycles

 The electronic state is 1-A.
 Alpha  occ. eigenvalues --  -21.07948 -21.07701 -11.44248 -11.43463 -11.38921
 Alpha  occ. eigenvalues --  -11.38811 -11.34822 -11.34706  -1.93539  -1.47622
 Alpha  occ. eigenvalues --   -1.17646  -1.16587  -0.97888  -0.95712  -0.84194
 Alpha  occ. eigenvalues --   -0.81251  -0.66542  -0.66114  -0.61784  -0.61647
 Alpha  occ. eigenvalues --   -0.58010  -0.56512  -0.52857  -0.52040  -0.49298
 Alpha  occ. eigenvalues --   -0.47620  -0.47236  -0.46373  -0.45586  -0.43830
 Alpha  occ. eigenvalues --   -0.38076  -0.31397  -0.27161
 Alpha virt. eigenvalues --    0.04054   0.04836   0.04898   0.05197   0.05326
 Alpha virt. eigenvalues --    0.05819   0.05986   0.06451   0.06653   0.07872
 Alpha virt. eigenvalues --    0.08341   0.08631   0.08725   0.10601   0.11513

 Mulliken charges:
               1
     1  O   -1.754676
     2  C   -1.504720
     3  C   -3.179746
     4  C   -3.515600
     5  H    1.463125
     6  H    1.138329
     7  H    1.287889
     8  H    1.359415
     9  H    1.565283
    10  H    1.486155
    11  H    1.654546
    12  O   -1.754680
    13  C   -1.504715
    14  C   -3.179748
    15  H    1.654545
    16  H    1.486155
    17  C   -3.515603
    18  H    1.565284
    19  H    1.359418
    20  H    1.463125
    21  H    1.138330
    22  H    1.287889
 Sum of Mulliken charges =  -0.00000

 Dipole moment (field-independent basis, Debye):
    X=              0.0000    Y=             -0.5315    Z=              0.0000  Tot=              0.5315

 Test job not archived.
 1\1\GINC-SE072\SP\RHF\Aug-CC-pVDZ\C6H14O2\OHZDE\08-Apr-2025\0\\#t hf a
 ug-cc-pvdz iop(5/13=1,5/36=2,99/5=2) pseudo=read geom=check guess=(rea
 d,tcheck) scf=(maxcycle=1)\\title\\0,1\O,0,0.357185,-0.259973,0.638369
 \C,0,1.600486,-0.924039,0.414839\C,0,2.563763,-0.13856,-0.471011\C,0,2
 .921866,1.237146,0.095671\H,0,2.022012,1.836223,0.248742\H,0,3.582514,
 1.783316,-0.582358\H,0,3.43268,1.14863,1.06009\H,0,3.468409,-0.745183,
 -0.598735\H,0,2.113414,-0.034152,-1.461871\H,0,1.999879,-1.031615,1.42
 9996\H,0,1.413026,-1.92471,0.007877\O,0,-0.357185,-0.259973,-0.638369\

 Normal termination of Gaussian 16 at Tue Apr  8 22:58:02 2025.
