 Gaussian 16, Revision C.01,

 ----------------------------------------------------------------------
 #t hf aug-cc-pvdz symm=none int=(grid=ultrafine) guess=(read,tcheck) s
 table=opt
 ----------------------------------------------------------------------
 -----
 title
 -----
 Symbolic Z-matrix:
 Charge =  0 Multiplicity = 2

 SCF Done:  E(UHF) =  -398.092149068     A.U. after   13 cycles
 Normal termination of Gaussian 16 at Tue Apr  8 22:46:26 2025.
 Gaussian 16:  ES64L-G16RevC.01  3-Jul-2019

 ----------------------------------------------------------------------
 #t hf aug-cc-pvdz iop(5/13=1,5/36=2,99/5=2) pseudo=read geom=check gue
 ss=(read,tcheck) scf=(maxcycle=1)
 ----------------------------------------------------------------------
 -----
 title
 -----
 Structure from the checkpoint file:  "BDE49_expt_1545_mol3.chk"
 Charge =  0 Multiplicity = 2

                         Standard orientation:
 ---------------------------------------------------------------------
 Center     Atomic      Atomic             Coordinates (Angstroms)
 Number     Number       Type             X           Y           Z
 ---------------------------------------------------------------------
      1         16           0        0.000000    0.000000    0.079293
      2          1           0        0.000000    0.000000   -1.268684
 ---------------------------------------------------------------------

 SCF Done:  E(UHF) =  -398.285203753     A.U. after    2 cycles

 Unable to determine electronic state:  an orbital has unidentified symmetry.
 Alpha  occ. eigenvalues --  -75.72945 -13.11360 -13.05106 -13.03088  -8.06248
 Alpha  occ. eigenvalues --   -1.11416  -0.49664  -0.32204  -0.26868
 Alpha virt. eigenvalues --    0.02527   0.09879   0.12597   0.13767   0.14953
 Alpha virt. eigenvalues --    0.21633   0.27266   0.29287   0.33097   0.33126
 Alpha virt. eigenvalues --    0.43062   0.50016   0.51844   0.52923   0.90592

  Beta  occ. eigenvalues --  -75.71964 -13.10814 -13.02508 -12.99175  -8.05154
  Beta  occ. eigenvalues --   -1.01919  -0.48126  -0.25148
  Beta virt. eigenvalues --    0.02706   0.02791   0.10148   0.13995   0.15597
  Beta virt. eigenvalues --    0.17309   0.22730   0.29426   0.30603   0.37389
  Beta virt. eigenvalues --    0.37436   0.44006   0.52077   0.52406   0.53662

 Mulliken charges and spin densities:
               1          2
     1  S   -0.802270   1.101529
     2  H    0.802270  -0.101529
 Sum of Mulliken charges =  -0.00000   1.00000

 Dipole moment (field-independent basis, Debye):
    X=              0.0000    Y=              0.0000    Z=              0.8912  Tot=              0.8912
                          Isotropic Fermi Contact Couplings
        Atom                 a.u.       MegaHertz       Gauss      10(-4) cm-1
     1  S(33)              0.26909      92.42375      32.97909      30.82925
     2  H(1)              -0.01040     -46.47959     -16.58507     -15.50392
 --------------------------------------------------------
       Center         ----  Spin Dipole Couplings  ----
                      3XX-RR        3YY-RR        3ZZ-RR
 --------------------------------------------------------
     1   Atom        0.084123      0.174144     -0.258268
     2   Atom       -0.012654     -0.006680      0.019334

 Normal termination of Gaussian 16 at Tue Apr  8 22:46:27 2025.
