 Gaussian 16, Revision C.01,

 ----------------------------------------------------------------------
 #t hf aug-cc-pvdz symm=none int=(grid=ultrafine) guess=(read,tcheck) s
 table=(opt,rrhf)
 ----------------------------------------------------------------------
 -----
 title
 -----
 Symbolic Z-matrix:
 Charge =  0 Multiplicity = 1

 SCF Done:  E(RHF) =  -969.601297054     A.U. after   12 cycles

 1\1\GINC-SE361\Stability\RHF\Aug-CC-pVDZ\B2Cl2H2\OHZDE\08-Apr-2025\0\\
 #t hf aug-cc-pvdz symm=none int=(grid=ultrafine) guess=(read,tcheck) s
 table=(opt,rrhf)\\title\\0,1\B,0,-0.000031,2.04413,0.000095\B,0,-0.000
 001,0.38202,0.000208\Cl,0,-1.521811,-0.513386,-0.000051\Cl,0,1.521837,
 -0.513336,-0.000044\H,0,-0.000136,2.661834,1.019863\H,0,-0.000141,2.66
 1697,-1.019756\\Version=ES64L-G16RevC.01\HF=-969.6012971\RMSD=1.852e-0
 9\Dipole=0.0000364,0.4343174,0.0001516\Quadrupole=-0.3822072,-0.047787
 2,0.4299944,0.0003188,-0.0000078,0.0000459\PG=Unknown\\@

 Normal termination of Gaussian 16 at Tue Apr  8 23:36:06 2025.
 Gaussian 16:  ES64L-G16RevC.01  3-Jul-2019

 ----------------------------------------------------------------------
 #t hf aug-cc-pvdz iop(5/13=1,5/36=2,99/5=2) pseudo=read geom=check gue
 ss=(read,tcheck) scf=(maxcycle=1)
 ----------------------------------------------------------------------
 -----
 title
 -----
 Structure from the checkpoint file:  "BDE49_nonexpt_14_mol1.chk"
 Charge =  0 Multiplicity = 1

                         Standard orientation:
 ---------------------------------------------------------------------
 Center     Atomic      Atomic             Coordinates (Angstroms)
 Number     Number       Type             X           Y           Z
 ---------------------------------------------------------------------
      1          5           0       -0.000030    2.044130    0.000095
      2          5           0       -0.000001    0.382020    0.000208
      3         17           0       -1.521811   -0.513386   -0.000051
      4         17           0        1.521837   -0.513337   -0.000044
      5          1           0       -0.000135    2.661834    1.019863
      6          1           0       -0.000140    2.661697   -1.019756
 ---------------------------------------------------------------------

 SCF Done:  E(RHF) =  -970.313041452     A.U. after    2 cycles

 The electronic state is 1-A.
 Alpha  occ. eigenvalues --  -99.90620 -99.90601 -10.47986 -10.47794  -9.67936
 Alpha  occ. eigenvalues --   -9.67702  -9.67377  -9.67359  -9.67255  -9.67161
 Alpha  occ. eigenvalues --   -7.69907  -7.62329  -1.39839  -1.30001  -0.93008
 Alpha  occ. eigenvalues --   -0.76056  -0.63034  -0.59835  -0.58296  -0.52892
 Alpha  occ. eigenvalues --   -0.50993  -0.49914  -0.41943
 Alpha virt. eigenvalues --    0.01702   0.02511   0.02977   0.04185   0.05325
 Alpha virt. eigenvalues --    0.07561   0.08429   0.09602   0.09944   0.11074
 Alpha virt. eigenvalues --    0.11523   0.12582   0.14050   0.14824   0.16812

 Mulliken charges:
               1
     1  B    6.069399
     2  B    1.248487
     3  Cl  -1.128975
     4  Cl  -1.128969
     5  H   -2.529988
     6  H   -2.529954
 Sum of Mulliken charges =   0.00000

 Dipole moment (field-independent basis, Debye):
    X=              0.0001    Y=              1.0388    Z=              0.0002  Tot=              1.0388

 Test job not archived.
 1\1\GINC-SE361\SP\RHF\Aug-CC-pVDZ\B2Cl2H2\OHZDE\08-Apr-2025\0\\#t hf a
 ug-cc-pvdz iop(5/13=1,5/36=2,99/5=2) pseudo=read geom=check guess=(rea
 d,tcheck) scf=(maxcycle=1)\\title\\0,1\B,0,-0.000031,2.04413,0.000095\
 B,0,-0.000001,0.38202,0.000208\Cl,0,-1.521811,-0.513386,-0.000051\Cl,0
 ,1.521837,-0.513336,-0.000044\H,0,-0.000136,2.661834,1.019863\H,0,-0.0
 00141,2.661697,-1.019756\\Version=ES64L-G16RevC.01\State=1-A\HF=-970.3
 130415\RMSD=9.494e-02\Dipole=0.0000315,0.4086909,0.0000934\Quadrupole=
 0.916719,-0.5068449,-0.4098742,0.0003982,-0.0000055,0.0000009\PG=C01 [

 Normal termination of Gaussian 16 at Tue Apr  8 23:36:08 2025.
