 Gaussian 16, Revision C.01,

 ----------------------------------------------------------------------
 #t hf aug-cc-pvdz symm=none int=(grid=ultrafine) guess=(read,tcheck) s
 table=(opt,rrhf)
 ----------------------------------------------------------------------
 -----
 title
 -----
 Symbolic Z-matrix:
 Charge =  0 Multiplicity = 1

 SCF Done:  E(RHF) =  -1655.69602100     A.U. after   13 cycles
 Normal termination of Gaussian 16 at Wed Apr  9 00:50:06 2025.
 Gaussian 16:  ES64L-G16RevC.01  3-Jul-2019

 ----------------------------------------------------------------------
 #t hf aug-cc-pvdz iop(5/13=1,5/36=2,99/5=2) pseudo=read geom=check gue
 ss=(read,tcheck) scf=(maxcycle=1)
 ----------------------------------------------------------------------
 -----
 title
 -----
 Structure from the checkpoint file:  "BDE49_nonexpt_895_mol1.chk"
 Charge =  0 Multiplicity = 1

                         Standard orientation:
 ---------------------------------------------------------------------
 Center     Atomic      Atomic             Coordinates (Angstroms)
 Number     Number       Type             X           Y           Z
 ---------------------------------------------------------------------
      1         16           0       -0.326052   -1.175403   -0.294238
      2          5           0        1.021512    0.044287   -0.046888
      3         16           0        2.681833   -0.633423    0.267688
      4         16           0        0.859005    1.840320   -0.102337
      5         16           0       -2.098845   -0.083202   -0.558383
      6          6           0       -2.713393    0.066126    1.157382
      7          1           0       -3.670991    0.586720    1.081128
      8          1           0       -2.027047    0.650475    1.768835
      9          1           0       -2.870741   -0.919719    1.591858
     10          1           0       -0.453542    1.826929   -0.430845
     11          1           0        2.340046   -1.935276    0.275504
 ---------------------------------------------------------------------

 SCF Done:  E(RHF) =  -1656.92460963     A.U. after    2 cycles

 The electronic state is 1-A.
 Alpha  occ. eigenvalues --  -75.72168 -75.71586 -75.70150 -75.69743 -13.17817
 Alpha  occ. eigenvalues --  -13.16321 -13.15601 -13.13983 -13.11822 -13.10851
 Alpha  occ. eigenvalues --  -13.10675 -13.08980 -13.07690 -13.06224 -13.05032
 Alpha  occ. eigenvalues --  -13.03637 -11.41393  -8.05973  -8.05533  -8.04199
 Alpha  occ. eigenvalues --   -8.03548  -7.68538  -1.28568  -1.19865  -1.10598
 Alpha  occ. eigenvalues --   -1.07944  -0.92521  -0.66846  -0.60833  -0.60641
 Alpha  occ. eigenvalues --   -0.54800  -0.49757  -0.46366  -0.43039  -0.38039
 Alpha  occ. eigenvalues --   -0.34486  -0.31824  -0.26187  -0.25435  -0.24913
 Alpha virt. eigenvalues --    0.01052   0.01556   0.02375   0.03109   0.06158
 Alpha virt. eigenvalues --    0.07502   0.08364   0.08918   0.09791   0.10111
 Alpha virt. eigenvalues --    0.10388   0.11692   0.12283   0.12733   0.13686

 Mulliken charges:
               1
     1  S   -1.463998
     2  B    4.633244
     3  S   -2.472085
     4  S   -2.336842
     5  S   -0.235773
     6  C   -4.512792
     7  H    1.413769
     8  H    1.406708
     9  H    1.491464
    10  H    1.144125
    11  H    0.932180
 Sum of Mulliken charges =  -0.00000

 Dipole moment (field-independent basis, Debye):
    X=              0.7318    Y=              1.0739    Z=             -0.0838  Tot=              1.3022

 Test job not archived.
 1\1\GINC-SE338\SP\RHF\Aug-CC-pVDZ\C1H5B1S4\OHZDE\09-Apr-2025\0\\#t hf
 aug-cc-pvdz iop(5/13=1,5/36=2,99/5=2) pseudo=read geom=check guess=(re
 ad,tcheck) scf=(maxcycle=1)\\title\\0,1\S,0,-0.326052,-1.175403,-0.294
 238\B,0,1.021512,0.044287,-0.046888\S,0,2.681833,-0.633423,0.267688\S,
 0,0.859005,1.84032,-0.102337\S,0,-2.098845,-0.083202,-0.558383\C,0,-2.
 713393,0.066126,1.157382\H,0,-3.670991,0.58672,1.081128\H,0,-2.027047,
 0.650475,1.768835\H,0,-2.870741,-0.919719,1.591858\H,0,-0.453542,1.826
 929,-0.430845\H,0,2.340046,-1.935276,0.275504\\Version=ES64L-G16RevC.0

 Normal termination of Gaussian 16 at Wed Apr  9 00:50:10 2025.
