 Gaussian 16, Revision C.01,

 ----------------------------------------------------------------------
 #t hf aug-cc-pvdz symm=none int=(grid=ultrafine) guess=(read,tcheck) s
 table=(opt,rrhf)
 ----------------------------------------------------------------------
 -----
 title
 -----
 Symbolic Z-matrix:
 Charge =  0 Multiplicity = 1

 SCF Done:  E(RHF) =  -1081.23780162     A.U. after   16 cycles
 Normal termination of Gaussian 16 at Wed Apr  9 00:31:27 2025.
 Gaussian 16:  ES64L-G16RevC.01  3-Jul-2019

 ----------------------------------------------------------------------
 #t hf aug-cc-pvdz iop(5/13=1,5/36=2,99/5=2) pseudo=read geom=check gue
 ss=(read,tcheck) scf=(maxcycle=1)
 ----------------------------------------------------------------------
 -----
 title
 -----
 Structure from the checkpoint file:  "BDE49_nonexpt_342_mol1.chk"
 Charge =  0 Multiplicity = 1

                         Standard orientation:
 ---------------------------------------------------------------------
 Center     Atomic      Atomic             Coordinates (Angstroms)
 Number     Number       Type             X           Y           Z
 ---------------------------------------------------------------------
      1          6           0       -0.034998   -0.008327    0.169983
      2          7           0       -0.692724    1.331272   -0.259062
      3          5           0        1.557049   -0.153202   -0.143207
      4          7           0       -0.794337   -1.077007   -0.656359
      5         17           0       -0.330740   -0.178511    1.902320
      6          8           0       -0.616323   -0.931947   -1.854127
      7          8           0        1.980991   -1.432920   -0.110719
      8          8           0       -1.881847    1.322410   -0.458885
      9          8           0        2.365225    0.895186   -0.362187
     10          8           0        0.043519    2.307247   -0.314311
     11          8           0       -1.435588   -1.927154   -0.097908
     12          1           0        1.884241    1.736794   -0.370141
     13          1           0        2.924694   -1.528571   -0.280133
 ---------------------------------------------------------------------

 SCF Done:  E(RHF) =  -1084.06393978     A.U. after    2 cycles

 The electronic state is 1-A.
 Alpha  occ. eigenvalues --  -99.95964 -21.15564 -21.14530 -21.14457 -21.12922
 Alpha  occ. eigenvalues --  -21.09980 -21.09369 -16.05315 -16.04102 -11.57101
 Alpha  occ. eigenvalues --  -10.53281  -9.73375  -9.72479  -9.72359  -7.71464
 Alpha  occ. eigenvalues --   -2.06540  -2.02819  -1.86333  -1.75268  -1.73898
 Alpha  occ. eigenvalues --   -1.71004  -1.43243  -1.23381  -1.03692  -0.91528
 Alpha  occ. eigenvalues --   -0.82163  -0.77719  -0.76861  -0.74263  -0.69603
 Alpha  occ. eigenvalues --   -0.67587  -0.64866  -0.64662  -0.62330  -0.58037
 Alpha  occ. eigenvalues --   -0.57585  -0.52951  -0.49018  -0.46194  -0.40716
 Alpha  occ. eigenvalues --   -0.39420  -0.38469  -0.37053  -0.36249  -0.34828
 Alpha  occ. eigenvalues --   -0.33768
 Alpha virt. eigenvalues --    0.02706   0.03266   0.04696   0.05170   0.06280
 Alpha virt. eigenvalues --    0.07915   0.08103   0.08744   0.10681   0.12326
 Alpha virt. eigenvalues --    0.12768   0.13817   0.14675   0.15095   0.15997

 Mulliken charges:
               1
     1  C   -0.644124
     2  N    4.785451
     3  B    8.142973
     4  N    4.976425
     5  Cl   0.531283
     6  O   -2.862546
     7  O   -4.281860
     8  O   -2.954054
     9  O   -4.383394
    10  O   -2.945379
    11  O   -2.989440
    12  H    1.597549
    13  H    1.027116
 Sum of Mulliken charges =  -0.00000

 Dipole moment (field-independent basis, Debye):
    X=              1.4338    Y=              0.2936    Z=             -0.3432  Tot=              1.5033

 Test job not archived.
 1\1\GINC-SE141\SP\RHF\Aug-CC-pVDZ\C1H2B1Cl1N2O6\OHZDE\09-Apr-2025\0\\#
 t hf aug-cc-pvdz iop(5/13=1,5/36=2,99/5=2) pseudo=read geom=check gues
 s=(read,tcheck) scf=(maxcycle=1)\\title\\0,1\C,0,-0.034998,-0.008327,0
 .169983\N,0,-0.692722,1.331273,-0.259062\B,0,1.557049,-0.153205,-0.143
 207\N,0,-0.794339,-1.077005,-0.656359\Cl,0,-0.33074,-0.17851,1.90232\O
 ,0,-0.616325,-0.931946,-1.854127\O,0,1.980988,-1.432924,-0.110719\O,0,
 -1.881845,1.322414,-0.458885\O,0,2.365226,0.895182,-0.362187\O,0,0.043
 523,2.307247,-0.314311\O,0,-1.435592,-1.927151,-0.097908\H,0,1.884244,

 Normal termination of Gaussian 16 at Wed Apr  9 00:31:35 2025.
