 Gaussian 16, Revision C.01,

 ----------------------------------------------------------------------
 #t hf aug-cc-pvdz symm=none int=(grid=ultrafine) guess=(read,tcheck) s
 table=(opt,rrhf)
 ----------------------------------------------------------------------
 -----
 title
 -----
 Symbolic Z-matrix:
 Charge =  0 Multiplicity = 1

 SCF Done:  E(RHF) =  -498.124808798     A.U. after   13 cycles
 Normal termination of Gaussian 16 at Wed Apr  9 00:02:31 2025.
 Gaussian 16:  ES64L-G16RevC.01  3-Jul-2019

 ----------------------------------------------------------------------
 #t hf aug-cc-pvdz iop(5/13=1,5/36=2,99/5=2) pseudo=read geom=check gue
 ss=(read,tcheck) scf=(maxcycle=1)
 ----------------------------------------------------------------------
 -----
 title
 -----
 Structure from the checkpoint file:  "BDE49_nonexpt_2151_mol1.chk"
 Charge =  0 Multiplicity = 1

                         Standard orientation:
 ---------------------------------------------------------------------
 Center     Atomic      Atomic             Coordinates (Angstroms)
 Number     Number       Type             X           Y           Z
 ---------------------------------------------------------------------
      1          7           0       -0.161434   -0.705699   -0.000009
      2         14           0       -1.795513   -0.046822    0.000004
      3          6           0        0.914385    0.154423    0.000003
      4          1           0        0.021236   -1.698922   -0.000021
      5          6           0        2.293932   -0.476914    0.000007
      6          1           0        2.428724   -1.106529    0.884094
      7          1           0        3.043674    0.311248   -0.000252
      8          1           0        2.428566   -1.106983   -0.883780
      9          8           0        0.733373    1.359651   -0.000013
     10          1           0       -2.056573    0.752365   -1.212170
     11          1           0       -2.056564    0.752339    1.212196
     12          1           0       -2.658742   -1.250382   -0.000006
 ---------------------------------------------------------------------

 SCF Done:  E(RHF) =  -499.225834060     A.U. after    2 cycles

 The electronic state is 1-A.
 Alpha  occ. eigenvalues --  -76.23402 -21.03130 -15.75113 -11.50142 -11.39368
 Alpha  occ. eigenvalues --   -5.56931  -2.21957  -2.19008  -2.18702  -1.71157
 Alpha  occ. eigenvalues --   -1.33805  -1.09438  -0.82284  -0.76076  -0.66118
 Alpha  occ. eigenvalues --   -0.61596  -0.59986  -0.52083  -0.50574  -0.47440
 Alpha  occ. eigenvalues --   -0.46878  -0.45811  -0.33701  -0.29707
 Alpha virt. eigenvalues --    0.03123   0.04666   0.05335   0.05636   0.06703
 Alpha virt. eigenvalues --    0.06809   0.07642   0.07968   0.10304   0.10523
 Alpha virt. eigenvalues --    0.11130   0.12951   0.14411   0.14480   0.15298

 Mulliken charges:
               1
     1  N   -3.124561
     2  Si   5.573151
     3  C    5.045136
     4  H    0.888579
     5  C   -4.004555
     6  H    1.227064
     7  H    1.222080
     8  H    1.227057
     9  O   -3.086665
    10  H   -1.669231
    11  H   -1.669229
    12  H   -1.628826
 Sum of Mulliken charges =  -0.00000

 Dipole moment (field-independent basis, Debye):
    X=              0.8413    Y=             -2.0776    Z=              0.0000  Tot=              2.2415

 Test job not archived.
 1\1\GINC-SE333\SP\RHF\Aug-CC-pVDZ\C2H7N1O1Si1\OHZDE\09-Apr-2025\0\\#t
 hf aug-cc-pvdz iop(5/13=1,5/36=2,99/5=2) pseudo=read geom=check guess=
 (read,tcheck) scf=(maxcycle=1)\\title\\0,1\N,0,-0.161434,-0.705699,-0.
 000009\Si,0,-1.795513,-0.046822,0.000004\C,0,0.914385,0.154423,0.00000
 3\H,0,0.021236,-1.698922,-0.000021\C,0,2.293932,-0.476914,0.000007\H,0
 ,2.428724,-1.106529,0.884094\H,0,3.043674,0.311248,-0.000252\H,0,2.428
 566,-1.106983,-0.88378\O,0,0.733373,1.359651,-0.000013\H,0,-2.056573,0
 .752365,-1.21217\H,0,-2.056564,0.752339,1.212196\H,0,-2.658742,-1.2503

 Normal termination of Gaussian 16 at Wed Apr  9 00:02:35 2025.
