 Gaussian 16, Revision C.01,

 ----------------------------------------------------------------------
 #t hf aug-cc-pvdz symm=none int=(grid=ultrafine) guess=(read,tcheck) s
 table=(opt,rrhf)
 ----------------------------------------------------------------------
 -----
 title
 -----
 Symbolic Z-matrix:
 Charge =  0 Multiplicity = 1

 SCF Done:  E(RHF) =  -726.651996114     A.U. after   12 cycles
 Normal termination of Gaussian 16 at Tue Apr  8 23:42:17 2025.
 Gaussian 16:  ES64L-G16RevC.01  3-Jul-2019

 ----------------------------------------------------------------------
 #t hf aug-cc-pvdz iop(5/13=1,5/36=2,99/5=2) pseudo=read geom=check gue
 ss=(read,tcheck) scf=(maxcycle=1)
 ----------------------------------------------------------------------
 -----
 title
 -----
 Structure from the checkpoint file:  "BDE49_nonexpt_1664_mol1.chk"
 Charge =  0 Multiplicity = 1

                         Standard orientation:
 ---------------------------------------------------------------------
 Center     Atomic      Atomic             Coordinates (Angstroms)
 Number     Number       Type             X           Y           Z
 ---------------------------------------------------------------------
      1         14           0        0.054239    0.958722    0.163669
      2          6           0       -1.603974    0.248820   -0.414228
      3         15           0        1.722454   -0.565354   -0.183412
      4          7           0       -1.905826   -1.000242    0.307937
      5          1           0       -1.624117    0.167000   -1.512899
      6          1           0       -2.363086    0.992443   -0.147276
      7          1           0       -1.320215   -1.755918   -0.033160
      8          1           0       -2.865913   -1.286270    0.142653
      9          1           0        1.460611   -1.306334    0.999066
     10          1           0        2.719699    0.237687    0.428897
     11          1           0       -0.039079    1.378968    1.581107
     12          1           0        0.400561    2.139396   -0.668756
 ---------------------------------------------------------------------

 SCF Done:  E(RHF) =  -727.481530281     A.U. after    2 cycles

 The electronic state is 1-A.
 Alpha  occ. eigenvalues -- -105.16872 -76.21710 -15.73944 -11.37333  -5.55320
 Alpha  occ. eigenvalues --   -2.73750  -2.19008  -2.17406  -2.16840  -1.43537
 Alpha  occ. eigenvalues --   -1.42941  -1.41065  -1.32162  -0.95899  -0.77079
 Alpha  occ. eigenvalues --   -0.66680  -0.65431  -0.60875  -0.53442  -0.47024
 Alpha  occ. eigenvalues --   -0.43266  -0.35063  -0.25528  -0.15152  -0.03739
 Alpha virt. eigenvalues --    0.03962   0.05449   0.05655   0.06164   0.06876
 Alpha virt. eigenvalues --    0.07325   0.08235   0.08642   0.09715   0.10005
 Alpha virt. eigenvalues --    0.11204   0.12236   0.12473   0.13062   0.14557

 Mulliken charges:
               1
     1  Si   4.679082
     2  C   -2.855869
     3  P    1.324754
     4  N   -2.099462
     5  H    1.461909
     6  H    1.325240
     7  H    0.689540
     8  H    0.583457
     9  H   -0.743831
    10  H   -0.781551
    11  H   -1.920249
    12  H   -1.663019
 Sum of Mulliken charges =  -0.00000

 Dipole moment (field-independent basis, Debye):
    X=              1.3333    Y=             -3.9323    Z=             -4.8073  Tot=              6.3522

 Test job not archived.
 1\1\GINC-SE424\SP\RHF\Aug-CC-pVDZ\C1H8N1P1Si1\OHZDE\08-Apr-2025\0\\#t
 hf aug-cc-pvdz iop(5/13=1,5/36=2,99/5=2) pseudo=read geom=check guess=
 (read,tcheck) scf=(maxcycle=1)\\title\\0,1\Si,0,0.054239,0.958722,0.16
 3669\C,0,-1.603974,0.24882,-0.414228\P,0,1.722454,-0.565354,-0.183412\
 N,0,-1.905826,-1.000242,0.307937\H,0,-1.624117,0.167,-1.512899\H,0,-2.
 363086,0.992443,-0.147276\H,0,-1.320215,-1.755918,-0.03316\H,0,-2.8659
 13,-1.28627,0.142653\H,0,1.460611,-1.306334,0.999066\H,0,2.719699,0.23
 7687,0.428897\H,0,-0.039079,1.378968,1.581107\H,0,0.400561,2.139396,-0

 Normal termination of Gaussian 16 at Tue Apr  8 23:42:20 2025.
