 Gaussian 16, Revision C.01,

 ----------------------------------------------------------------------
 #t hf aug-cc-pvdz symm=none int=(grid=ultrafine) guess=(read,tcheck) s
 table=(opt,rrhf)
 ----------------------------------------------------------------------
 -----
 title
 -----
 Symbolic Z-matrix:
 Charge =  0 Multiplicity = 1

 SCF Done:  E(RHF) =  -699.452523189     A.U. after   12 cycles
 Normal termination of Gaussian 16 at Wed Apr  9 00:51:03 2025.
 Gaussian 16:  ES64L-G16RevC.01  3-Jul-2019

 ----------------------------------------------------------------------
 #t hf aug-cc-pvdz iop(5/13=1,5/36=2,99/5=2) pseudo=read geom=check gue
 ss=(read,tcheck) scf=(maxcycle=1)
 ----------------------------------------------------------------------
 -----
 title
 -----
 Structure from the checkpoint file:  "BDE49_nonexpt_845_mol1.chk"
 Charge =  0 Multiplicity = 1

                         Standard orientation:
 ---------------------------------------------------------------------
 Center     Atomic      Atomic             Coordinates (Angstroms)
 Number     Number       Type             X           Y           Z
 ---------------------------------------------------------------------
      1          6           0       -2.604532    0.453806   -1.079373
      2          6           0       -1.094184    0.221718   -1.247217
      3          6           0       -2.967675    0.799234    0.371388
      4          1           0       -3.144046   -0.453892   -1.380172
      5          1           0       -2.936530    1.251390   -1.752679
      6          6           0       -2.453549   -0.268185    1.347093
      7          1           0       -4.051693    0.915534    0.473854
      8          1           0       -2.523655    1.768710    0.632317
      9          6           0       -0.942830   -0.501003    1.184800
     10          1           0       -2.984101   -1.211713    1.164211
     11          1           0       -2.678646    0.021267    2.379270
     12          6           0       -0.565113   -0.854496   -0.271369
     13          1           0       -0.614350   -1.292866    1.867152
     14          1           0       -0.409650    0.411246    1.482817
     15          1           0       -0.561482    1.163436   -1.068057
     16          1           0       -0.876891   -0.066856   -2.281232
     17          5           0        2.452379    0.437133    0.075572
     18          8           0        3.716482    0.335059    0.596954
     19          8           0        1.942467    1.692293   -0.083125
     20          1           0        2.564995    2.375413    0.200169
     21          1           0        4.015843   -0.570413    0.711283
     22         14           0        1.299449   -1.154812   -0.476039
     23          1           0       -1.054128   -1.807581   -0.523125
     24          1           0        1.589206   -1.505537   -1.895047
     25          1           0        1.706664   -2.341688    0.333359
 ---------------------------------------------------------------------

 SCF Done:  E(RHF) =  -701.542882107     A.U. after    2 cycles

 The electronic state is 1-A.
 Alpha  occ. eigenvalues --  -76.18801 -21.06697 -21.05757 -11.43113 -11.41985
 Alpha  occ. eigenvalues --  -11.41396 -11.36791 -11.36260 -11.33054  -7.63616
 Alpha  occ. eigenvalues --   -5.52560  -2.17225  -2.15468  -2.15223  -1.81059
 Alpha  occ. eigenvalues --   -1.65380  -1.30535  -1.09331  -1.09262  -0.87595
 Alpha  occ. eigenvalues --   -0.87500  -0.79230  -0.76947  -0.70960  -0.64583
 Alpha  occ. eigenvalues --   -0.62579  -0.60409  -0.60043  -0.58623  -0.53810
 Alpha  occ. eigenvalues --   -0.52022  -0.49745  -0.48040  -0.46950  -0.46510
 Alpha  occ. eigenvalues --   -0.46161  -0.44423  -0.43465  -0.42501  -0.38279
 Alpha  occ. eigenvalues --   -0.36693  -0.35753  -0.31688
 Alpha virt. eigenvalues --    0.03846   0.04245   0.04419   0.05009   0.05472
 Alpha virt. eigenvalues --    0.05806   0.05897   0.06113   0.06484   0.07679
 Alpha virt. eigenvalues --    0.08080   0.08249   0.08406   0.08843   0.09571

 Mulliken charges:
               1
     1  C   -3.055716
     2  C   -3.234160
     3  C   -2.767014
     4  H    1.368386
     5  H    1.278541
     6  C   -3.168960
     7  H    1.335339
     8  H    1.390954
     9  C   -2.859090
    10  H    1.346021
    11  H    1.279945
    12  C   -1.557350
    13  H    1.540944
    14  H    1.618680
    15  H    1.810409
    16  H    1.558852
    17  B    6.143060
    18  O   -4.067331
    19  O   -4.409854
    20  H    1.241251
    21  H    1.409368
    22  Si   3.782808
    23  H    1.926092
    24  H   -1.976120
    25  H   -1.935056
 Sum of Mulliken charges =  -0.00000

 Dipole moment (field-independent basis, Debye):
    X=             -0.0447    Y=              0.3284    Z=              0.5559  Tot=              0.6472

 Test job not archived.
 1\1\GINC-SE339\SP\RHF\Aug-CC-pVDZ\C6H15B1O2Si1\OHZDE\09-Apr-2025\0\\#t
  hf aug-cc-pvdz iop(5/13=1,5/36=2,99/5=2) pseudo=read geom=check guess
 =(read,tcheck) scf=(maxcycle=1)\\title\\0,1\C,0,-2.604532,0.453806,-1.
 079373\C,0,-1.094184,0.221718,-1.247217\C,0,-2.967675,0.799234,0.37138
 8\H,0,-3.144046,-0.453892,-1.380172\H,0,-2.93653,1.25139,-1.752679\C,0
 ,-2.453549,-0.268185,1.347093\H,0,-4.051693,0.915534,0.473854\H,0,-2.5
 23655,1.76871,0.632317\C,0,-0.94283,-0.501003,1.1848\H,0,-2.984101,-1.
 211713,1.164211\H,0,-2.678646,0.021267,2.37927\C,0,-0.565113,-0.854496

 Normal termination of Gaussian 16 at Wed Apr  9 00:51:20 2025.
