 Gaussian 16, Revision C.01,

 ----------------------------------------------------------------------
 #t hf aug-cc-pvdz symm=none int=(grid=ultrafine) guess=(read,tcheck) s
 table=(opt,rrhf)
 ----------------------------------------------------------------------
 -----
 title
 -----
 Symbolic Z-matrix:
 Charge =  0 Multiplicity = 1

 SCF Done:  E(RHF) =  -1855.81687355     A.U. after   13 cycles
 Normal termination of Gaussian 16 at Tue Apr  8 23:46:20 2025.
 Gaussian 16:  ES64L-G16RevC.01  3-Jul-2019

 ----------------------------------------------------------------------
 #t hf aug-cc-pvdz iop(5/13=1,5/36=2,99/5=2) pseudo=read geom=check gue
 ss=(read,tcheck) scf=(maxcycle=1)
 ----------------------------------------------------------------------
 -----
 title
 -----
 Structure from the checkpoint file:  "BDE49_nonexpt_1765_mol1.chk"
 Charge =  0 Multiplicity = 1

                         Standard orientation:
 ---------------------------------------------------------------------
 Center     Atomic      Atomic             Coordinates (Angstroms)
 Number     Number       Type             X           Y           Z
 ---------------------------------------------------------------------
      1          6           0       -1.661533   -0.359618    0.000025
      2          8           0       -2.027121   -1.500526    0.000006
      3         14           0        0.227828   -0.002176    0.000006
      4          8           0       -2.530690    0.672022   -0.000029
      5         17           0        1.070122   -0.809472    1.675374
      6         17           0        0.524264    2.048521   -0.000035
      7         17           0        1.070104   -0.809539   -1.675339
      8          1           0       -2.054243    1.514528   -0.000046
 ---------------------------------------------------------------------

 SCF Done:  E(RHF) =  -1857.45381448     A.U. after    2 cycles

 The electronic state is 1-A.
 Alpha  occ. eigenvalues --  -99.93621 -99.92876 -99.92876 -76.37479 -21.15252
 Alpha  occ. eigenvalues --  -21.08908 -11.52406 -10.51051 -10.50384 -10.50327
 Alpha  occ. eigenvalues --   -9.70909  -9.70349  -9.70269  -9.70212  -9.70184
 Alpha  occ. eigenvalues --   -9.69664  -9.69541  -9.69530  -9.69431  -5.71232
 Alpha  occ. eigenvalues --   -2.33383  -2.33152  -2.33099  -1.84467  -1.68669
 Alpha  occ. eigenvalues --   -1.36560  -1.32673  -1.32220  -0.90259  -0.79698
 Alpha  occ. eigenvalues --   -0.70867  -0.64868  -0.64819  -0.59809  -0.59797
 Alpha  occ. eigenvalues --   -0.59115  -0.57191  -0.56533  -0.55070  -0.55010
 Alpha  occ. eigenvalues --   -0.54059  -0.47937  -0.36307  -0.31711
 Alpha virt. eigenvalues --    0.02896   0.04691   0.05329   0.05718   0.05852
 Alpha virt. eigenvalues --    0.06870   0.07992   0.09578   0.11192   0.11629
 Alpha virt. eigenvalues --    0.12345   0.13097   0.13261   0.14403   0.14750

 Mulliken charges:
               1
     1  C    3.515276
     2  O   -2.579053
     3  Si   3.003882
     4  O   -2.787273
     5  Cl  -0.760542
     6  Cl  -0.738657
     7  Cl  -0.760535
     8  H    1.106903
 Sum of Mulliken charges =   0.00000

 Dipole moment (field-independent basis, Debye):
    X=             -0.5611    Y=              0.8812    Z=             -0.0001  Tot=              1.0447

 Test job not archived.
 1\1\GINC-SE461\SP\RHF\Aug-CC-pVDZ\C1H1Cl3O2Si1\OHZDE\08-Apr-2025\0\\#t
  hf aug-cc-pvdz iop(5/13=1,5/36=2,99/5=2) pseudo=read geom=check guess
 =(read,tcheck) scf=(maxcycle=1)\\title\\0,1\C,0,-1.661533,-0.359617,0.
 000025\O,0,-2.027121,-1.500525,0.000006\Si,0,0.227828,-0.002176,0.0000
 06\O,0,-2.53069,0.672023,-0.000029\Cl,0,1.070122,-0.809472,1.675374\Cl
 ,0,0.524265,2.048521,-0.000035\Cl,0,1.070104,-0.809539,-1.675339\H,0,-
 2.054242,1.514529,-0.000046\\Version=ES64L-G16RevC.01\State=1-A\HF=-18
 57.4538145\RMSD=3.680e-02\Dipole=-0.2207577,0.3467052,-0.0000219\Quadr

 Normal termination of Gaussian 16 at Tue Apr  8 23:46:23 2025.
