 Gaussian 16, Revision C.01,

 ----------------------------------------------------------------------
 #t hf aug-cc-pvdz symm=none int=(grid=ultrafine) guess=(read,tcheck) s
 table=opt
 ----------------------------------------------------------------------
 -----
 title
 -----
 Symbolic Z-matrix:
 Charge =  0 Multiplicity = 2

 SCF Done:  E(UHF) =  -2624.37790126     A.U. after   17 cycles
 Normal termination of Gaussian 16 at Tue Apr  8 23:49:37 2025.
 Gaussian 16:  ES64L-G16RevC.01  3-Jul-2019

 ----------------------------------------------------------------------
 #t hf aug-cc-pvdz iop(5/13=1,5/36=2,99/5=2) pseudo=read geom=check gue
 ss=(read,tcheck) scf=(maxcycle=1)
 ----------------------------------------------------------------------
 -----
 title
 -----
 Structure from the checkpoint file:  "BDE49_nonexpt_1815_mol2.chk"
 Charge =  0 Multiplicity = 2

                         Standard orientation:
 ---------------------------------------------------------------------
 Center     Atomic      Atomic             Coordinates (Angstroms)
 Number     Number       Type             X           Y           Z
 ---------------------------------------------------------------------
      1          6           0        0.870182    0.000000    0.003893
      2         14           0       -0.948387   -0.000000   -0.678556
      3         17           0        0.920594   -0.000003    1.795735
      4         17           0        1.690206    1.467899   -0.631818
      5         17           0        1.690208   -1.467896   -0.631823
      6         17           0       -1.913553    1.689628    0.012671
      7         17           0       -1.913553   -1.689628    0.012671
 ---------------------------------------------------------------------

 SCF Done:  E(UHF) =  -2625.90828437     A.U. after    2 cycles

 The electronic state is 2-A.
 Alpha  occ. eigenvalues --  -99.92978 -99.92964 -99.92806 -99.91717 -99.91712
 Alpha  occ. eigenvalues --  -76.34831 -11.54735 -10.50478 -10.50135 -10.50022
 Alpha  occ. eigenvalues --  -10.49164 -10.49107  -9.70175  -9.70110  -9.69990
 Alpha  occ. eigenvalues --   -9.69427  -9.69354  -9.69343  -9.69277  -9.69175
 Alpha  occ. eigenvalues --   -9.69124  -9.69087  -9.69062  -9.68388  -9.68357
 Alpha  occ. eigenvalues --   -9.68333  -9.68214  -5.68223  -2.30467  -2.30353
 Alpha  occ. eigenvalues --   -2.28537  -1.46047  -1.33592  -1.31875  -1.31703
 Alpha  occ. eigenvalues --   -1.31036  -0.99731  -0.81457  -0.71561  -0.71480
 Alpha  occ. eigenvalues --   -0.68215  -0.61947  -0.60138  -0.57341  -0.57316
 Alpha  occ. eigenvalues --   -0.56422  -0.56090  -0.54020  -0.52373  -0.51872
 Alpha  occ. eigenvalues --   -0.51082  -0.47871  -0.35882
 Alpha virt. eigenvalues --   -0.01162   0.03601   0.04298   0.05001   0.06015
 Alpha virt. eigenvalues --    0.06337   0.06436   0.08966   0.10070   0.10554
 Alpha virt. eigenvalues --    0.11174   0.11520   0.12277   0.12347   0.13723

  Beta  occ. eigenvalues --  -99.92987 -99.92972 -99.92768 -99.91599 -99.91594
  Beta  occ. eigenvalues --  -76.34216 -11.54444 -10.50479 -10.50144 -10.49990
  Beta  occ. eigenvalues --  -10.49035 -10.48977  -9.70209  -9.70117  -9.69881
  Beta  occ. eigenvalues --   -9.69438  -9.69352  -9.69340  -9.69269  -9.69145
  Beta  occ. eigenvalues --   -9.69100  -9.68792  -9.68777  -9.68322  -9.68220
  Beta  occ. eigenvalues --   -9.68105  -9.68005  -5.67184  -2.29834  -2.29703
  Beta  occ. eigenvalues --   -2.25211  -1.45806  -1.32587  -1.31804  -1.31486
  Beta  occ. eigenvalues --   -1.30205  -0.98750  -0.78570  -0.71418  -0.71115
  Beta  occ. eigenvalues --   -0.67003  -0.60663  -0.59101  -0.57201  -0.57117
  Beta  occ. eigenvalues --   -0.55783  -0.55183  -0.53861  -0.52320  -0.51834
  Beta  occ. eigenvalues --   -0.51029  -0.46363
  Beta virt. eigenvalues --   -0.03712   0.00207   0.04200   0.04517   0.06120
  Beta virt. eigenvalues --    0.06175   0.06605   0.06893   0.09364   0.10811
  Beta virt. eigenvalues --    0.11074   0.11584   0.12238   0.12744   0.13804

 Mulliken charges and spin densities:
               1          2
     1  C   -1.688387  -0.136494
     2  Si   2.584216   0.926319
     3  Cl   0.236130   0.034386
     4  Cl   0.241568   0.019035
     5  Cl   0.241568   0.019035
     6  Cl  -0.807547   0.068860
     7  Cl  -0.807547   0.068860
 Sum of Mulliken charges =  -0.00000   1.00000

 Dipole moment (field-independent basis, Debye):
    X=             -0.2503    Y=              0.0000    Z=             -1.2762  Tot=              1.3005
                          Isotropic Fermi Contact Couplings
        Atom                 a.u.       MegaHertz       Gauss      10(-4) cm-1
     1  C(13)              0.07836      88.08608      31.43130      29.38235
     2  Si(29)             0.92938    -825.96825    -294.72601    -275.51335
     3  Cl(35)             0.00749       3.28509       1.17220       1.09579
     4  Cl(35)            -0.00347      -1.52142      -0.54288      -0.50749
     5  Cl(35)            -0.00347      -1.52141      -0.54288      -0.50749
     6  Cl(35)             0.08398      36.82101      13.13865      12.28217
     7  Cl(35)             0.08398      36.82100      13.13865      12.28216
 --------------------------------------------------------

 Normal termination of Gaussian 16 at Tue Apr  8 23:49:41 2025.
