 Gaussian 16, Revision C.01,

 ----------------------------------------------------------------------
 #t hf aug-cc-pvdz symm=none int=(grid=ultrafine) guess=(read,tcheck) s
 table=(opt,rrhf)
 ----------------------------------------------------------------------
 -----
 title
 -----
 Symbolic Z-matrix:
 Charge =  0 Multiplicity = 1

 SCF Done:  E(RHF) =  -1129.66958566     A.U. after   14 cycles
 Normal termination of Gaussian 16 at Tue Apr  8 23:48:15 2025.
 Gaussian 16:  ES64L-G16RevC.01  3-Jul-2019

 ----------------------------------------------------------------------
 #t hf aug-cc-pvdz iop(5/13=1,5/36=2,99/5=2) pseudo=read geom=check gue
 ss=(read,tcheck) scf=(maxcycle=1)
 ----------------------------------------------------------------------
 -----
 title
 -----
 Structure from the checkpoint file:  "BDE49_nonexpt_1768_mol1.chk"
 Charge =  0 Multiplicity = 1

                         Standard orientation:
 ---------------------------------------------------------------------
 Center     Atomic      Atomic             Coordinates (Angstroms)
 Number     Number       Type             X           Y           Z
 ---------------------------------------------------------------------
      1          6           0        3.409584    0.265373   -0.026369
      2          6           0        2.863779   -0.999892   -0.233360
      3          6           0        1.482898   -1.175983   -0.209448
      4          6           0        2.571585    1.355647    0.199148
      5          6           0        1.190546    1.180014    0.219713
      6          6           0        0.624105   -0.087927    0.019112
      7          1           0        4.485107    0.402678   -0.046370
      8          1           0        3.513162   -1.848690   -0.416574
      9          1           0        1.065376   -2.161297   -0.382420
     10          1           0        2.993089    2.342831    0.352311
     11          1           0        0.549787    2.040682    0.378350
     12         14           0       -1.200467   -0.384517    0.113870
     13         17           0       -2.218996    1.333563   -0.521279
     14          8           0       -1.785710   -0.735953    1.604735
     15          1           0       -2.000107   -0.018270    2.205065
     16          8           0       -1.531507   -1.662897   -0.839363
     17          1           0       -2.394186   -2.077862   -0.758549
 ---------------------------------------------------------------------

 SCF Done:  E(RHF) =  -1131.78638184     A.U. after    2 cycles

 The electronic state is 1-A.
 Alpha  occ. eigenvalues --  -99.87960 -76.27933 -21.08933 -21.08832 -11.51914
 Alpha  occ. eigenvalues --  -11.43518 -11.43076 -11.41167 -11.40929 -11.36682
 Alpha  occ. eigenvalues --  -10.45377  -9.65306  -9.64769  -9.64709  -5.62601
 Alpha  occ. eigenvalues --   -2.30109  -2.28461  -2.25061  -1.70007  -1.65172
 Alpha  occ. eigenvalues --   -1.34186  -1.28163  -1.09659  -1.09601  -0.86828
 Alpha  occ. eigenvalues --   -0.86585  -0.75885  -0.70630  -0.64311  -0.62880
 Alpha  occ. eigenvalues --   -0.61777  -0.58767  -0.57269  -0.56097  -0.54179
 Alpha  occ. eigenvalues --   -0.52050  -0.50821  -0.45567  -0.45340  -0.44118
 Alpha  occ. eigenvalues --   -0.40918  -0.40524  -0.38002  -0.33765  -0.33410
 Alpha virt. eigenvalues --    0.02950   0.05022   0.05187   0.05497   0.06206
 Alpha virt. eigenvalues --    0.07030   0.07345   0.07852   0.08476   0.09167
 Alpha virt. eigenvalues --    0.09822   0.10578   0.11208   0.12693   0.13243

 Mulliken charges:
               1
     1  C   -2.279721
     2  C   -0.935054
     3  C   -2.370732
     4  C   -0.425694
     5  C   -2.152882
     6  C   -0.680912
     7  H    1.532304
     8  H    1.511383
     9  H    1.811949
    10  H    1.549548
    11  H    1.646306
    12  Si   5.545556
    13  Cl  -0.964155
    14  O   -2.891469
    15  H    0.954380
    16  O   -2.931545
    17  H    1.080738
 Sum of Mulliken charges =  -0.00000

 Dipole moment (field-independent basis, Debye):
    X=              1.4357    Y=             -1.3199    Z=              0.9720  Tot=              2.1790

 Test job not archived.
 1\1\GINC-SE220\SP\RHF\Aug-CC-pVDZ\C6H7Cl1O2Si1\OHZDE\08-Apr-2025\0\\#t
  hf aug-cc-pvdz iop(5/13=1,5/36=2,99/5=2) pseudo=read geom=check guess
 =(read,tcheck) scf=(maxcycle=1)\\title\\0,1\C,0,3.409584,0.265373,-0.0
 26369\C,0,2.863779,-0.999892,-0.23336\C,0,1.482898,-1.175983,-0.209448
 \C,0,2.571585,1.355647,0.199148\C,0,1.190546,1.180014,0.219713\C,0,0.6
 24105,-0.087927,0.019112\H,0,4.485107,0.402678,-0.04637\H,0,3.513162,-
 1.84869,-0.416574\H,0,1.065376,-2.161297,-0.38242\H,0,2.993089,2.34283
 1,0.352311\H,0,0.549787,2.040682,0.37835\Si,0,-1.200467,-0.384517,0.11

 Normal termination of Gaussian 16 at Tue Apr  8 23:48:25 2025.
