 Gaussian 16, Revision C.01,

 ----------------------------------------------------------------------
 #t hf aug-cc-pvdz symm=none int=(grid=ultrafine) guess=(read,tcheck) s
 table=opt
 ----------------------------------------------------------------------
 -----
 title
 -----
 Symbolic Z-matrix:
 Charge =  0 Multiplicity = 2

 SCF Done:  E(UHF) =  -820.395270457     A.U. after   18 cycles
 Normal termination of Gaussian 16 at Wed Apr  9 00:21:02 2025.
 Gaussian 16:  ES64L-G16RevC.01  3-Jul-2019

 ----------------------------------------------------------------------
 #t hf aug-cc-pvdz iop(5/13=1,5/36=2,99/5=2) pseudo=read geom=check gue
 ss=(read,tcheck) scf=(maxcycle=1)
 ----------------------------------------------------------------------
 -----
 title
 -----
 Structure from the checkpoint file:  "BDE49_nonexpt_261_mol2.chk"
 Charge =  0 Multiplicity = 2

                         Standard orientation:
 ---------------------------------------------------------------------
 Center     Atomic      Atomic             Coordinates (Angstroms)
 Number     Number       Type             X           Y           Z
 ---------------------------------------------------------------------
      1         17           0        2.117977   -0.006213    0.018471
      2          9           0       -1.288245    1.082116   -0.649165
      3          9           0       -0.775903   -1.033830   -0.799275
      4          9           0       -1.724009   -0.282216    1.003071
      5          6           0       -0.817359    0.017812    0.049441
      6          5           0        0.598391    0.420823    0.679535
 ---------------------------------------------------------------------

 SCF Done:  E(UHF) =  -821.886806535     A.U. after    2 cycles

 The electronic state is 2-A.
 Alpha  occ. eigenvalues --  -99.93954 -29.31843 -29.31711 -29.31527 -11.56689
 Alpha  occ. eigenvalues --  -10.51231  -9.71161  -9.70740  -9.70461  -7.72793
 Alpha  occ. eigenvalues --   -1.44037  -1.36626  -0.89964  -0.88315  -0.87854
 Alpha  occ. eigenvalues --   -0.70115  -0.59340  -0.58391  -0.49215  -0.44365
 Alpha  occ. eigenvalues --   -0.44054  -0.41174  -0.37639  -0.35320  -0.27548
 Alpha  occ. eigenvalues --   -0.27189  -0.25978  -0.22173
 Alpha virt. eigenvalues --    0.03550   0.03936   0.04511   0.05793   0.07343
 Alpha virt. eigenvalues --    0.11887   0.12234   0.15565   0.15774   0.16407
 Alpha virt. eigenvalues --    0.16597   0.17993   0.21083   0.21502   0.22023

  Beta  occ. eigenvalues --  -99.93889 -29.31856 -29.31733 -29.31412 -11.56529
  Beta  occ. eigenvalues --  -10.51155  -9.71100  -9.70525  -9.70415  -7.70684
  Beta  occ. eigenvalues --   -1.43126  -1.36156  -0.88520  -0.87761  -0.86090
  Beta  occ. eigenvalues --   -0.68212  -0.58535  -0.57204  -0.48683  -0.44075
  Beta  occ. eigenvalues --   -0.43851  -0.37571  -0.36719  -0.28738  -0.27195
  Beta  occ. eigenvalues --   -0.26509  -0.22127
  Beta virt. eigenvalues --    0.01498   0.04214   0.04383   0.06089   0.07992
  Beta virt. eigenvalues --    0.08147   0.12388   0.13059   0.15740   0.15894
  Beta virt. eigenvalues --    0.16546   0.16716   0.18726   0.21328   0.22152

 Mulliken charges and spin densities:
               1          2
     1  Cl  -0.801150   0.037868
     2  F    0.248021  -0.002401
     3  F    0.172075   0.037144
     4  F    0.306701  -0.012655
     5  C   -1.474565  -0.029361
     6  B    1.548917   0.969406
 Sum of Mulliken charges =   0.00000   1.00000

 Dipole moment (field-independent basis, Debye):
    X=             -2.0234    Y=             -0.4320    Z=             -0.9955  Tot=              2.2960
                          Isotropic Fermi Contact Couplings
        Atom                 a.u.       MegaHertz       Gauss      10(-4) cm-1
     1  Cl(35)             0.10984      48.16120      17.18511      16.06485
     2  F(19)             -0.00258     -10.86447      -3.87671      -3.62400
     3  F(19)              0.00987      41.51679      14.81422      13.84851
     4  F(19)             -0.00288     -12.11550      -4.32311      -4.04130
     5  C(13)              0.02333      26.22662       9.35831       8.74826
     6  B(11)              0.25151     360.76171     128.72875     120.33715
 --------------------------------------------------------
       Center         ----  Spin Dipole Couplings  ----

 Normal termination of Gaussian 16 at Wed Apr  9 00:21:04 2025.
