 Gaussian 16, Revision C.01,

 ----------------------------------------------------------------------
 #t hf aug-cc-pvdz symm=none int=(grid=ultrafine) guess=(read,tcheck) s
 table=(opt,rrhf)
 ----------------------------------------------------------------------
 -----
 title
 -----
 Symbolic Z-matrix:
 Charge =  0 Multiplicity = 1

 SCF Done:  E(RHF) =  -1180.06728977     A.U. after   17 cycles
 Normal termination of Gaussian 16 at Wed Apr  9 00:45:07 2025.
 Gaussian 16:  ES64L-G16RevC.01  3-Jul-2019

 ----------------------------------------------------------------------
 #t hf aug-cc-pvdz iop(5/13=1,5/36=2,99/5=2) pseudo=read geom=check gue
 ss=(read,tcheck) scf=(maxcycle=1)
 ----------------------------------------------------------------------
 -----
 title
 -----
 Structure from the checkpoint file:  "BDE49_nonexpt_768_mol1.chk"
 Charge =  0 Multiplicity = 1

                         Standard orientation:
 ---------------------------------------------------------------------
 Center     Atomic      Atomic             Coordinates (Angstroms)
 Number     Number       Type             X           Y           Z
 ---------------------------------------------------------------------
      1         15           0       -0.121576    0.309336    0.844820
      2          5           0        1.508057   -0.420766   -0.036885
      3          7           0       -1.316658   -0.837084   -0.042469
      4         17           0       -0.413323    2.068823   -0.203110
      5          8           0       -2.261541   -0.432495   -0.670735
      6          8           0        2.498035    0.478182   -0.215325
      7          8           0        1.632357   -1.730751   -0.313731
      8          8           0       -1.067810   -2.027383    0.198531
      9          1           0        0.817380   -2.233610   -0.146113
     10          1           0        3.300747    0.086583   -0.581531
 ---------------------------------------------------------------------

 SCF Done:  E(RHF) =  -1182.04322384     A.U. after    2 cycles

 The electronic state is 1-A.
 Alpha  occ. eigenvalues -- -105.28654 -99.92373 -21.13228 -21.10853 -21.09466
 Alpha  occ. eigenvalues --  -21.08577 -16.00400 -10.49666  -9.69525  -9.68794
 Alpha  occ. eigenvalues --   -9.68767  -7.69983  -2.86269  -2.01134  -1.85031
 Alpha  occ. eigenvalues --   -1.71931  -1.69724  -1.57105  -1.55728  -1.53394
 Alpha  occ. eigenvalues --   -1.25752  -0.97169  -0.79290  -0.76945  -0.67832
 Alpha  occ. eigenvalues --   -0.66666  -0.63074  -0.59828  -0.56311  -0.55378
 Alpha  occ. eigenvalues --   -0.54372  -0.52751  -0.46037  -0.39647  -0.36694
 Alpha  occ. eigenvalues --   -0.35008  -0.33784  -0.23179  -0.07446
 Alpha virt. eigenvalues --    0.03718   0.04790   0.05377   0.06038   0.08157
 Alpha virt. eigenvalues --    0.08575   0.09241   0.10084   0.10892   0.11869
 Alpha virt. eigenvalues --    0.13088   0.14714   0.15822   0.16550   0.16791

 Mulliken charges:
               1
     1  P    2.092462
     2  B    4.757181
     3  N    4.064143
     4  Cl  -1.314466
     5  O   -2.559422
     6  O   -3.403116
     7  O   -3.983865
     8  O   -2.637145
     9  H    1.846638
    10  H    1.137590
 Sum of Mulliken charges =   0.00000

 Dipole moment (field-independent basis, Debye):
    X=              0.8800    Y=             -0.2786    Z=              5.1224  Tot=              5.2049

 Test job not archived.
 1\1\GINC-SE344\SP\RHF\Aug-CC-pVDZ\B1Cl1H2N1O4P1\OHZDE\09-Apr-2025\0\\#
 t hf aug-cc-pvdz iop(5/13=1,5/36=2,99/5=2) pseudo=read geom=check gues
 s=(read,tcheck) scf=(maxcycle=1)\\title\\0,1\P,0,-0.121576,0.309336,0.
 84482\B,0,1.508057,-0.420767,-0.036885\N,0,-1.316658,-0.837084,-0.0424
 69\Cl,0,-0.413322,2.068823,-0.20311\O,0,-2.261541,-0.432494,-0.670735\
 O,0,2.498035,0.478181,-0.215325\O,0,1.632356,-1.730752,-0.313731\O,0,-
 1.067811,-2.027383,0.198531\H,0,0.817379,-2.23361,-0.146113\H,0,3.3007
 47,0.086582,-0.581531\\Version=ES64L-G16RevC.01\State=1-A\HF=-1182.043

 Normal termination of Gaussian 16 at Wed Apr  9 00:45:12 2025.
