 Gaussian 16, Revision C.01,

 ----------------------------------------------------------------------
 #t hf aug-cc-pvdz symm=none int=(grid=ultrafine) guess=(read,tcheck) s
 table=opt
 ----------------------------------------------------------------------
 -----
 title
 -----
 Symbolic Z-matrix:
 Charge =  0 Multiplicity = 2

 SCF Done:  E(UHF) =  -537.533598713     A.U. after   17 cycles

 1\1\GINC-SE110\Stability\UHF\Aug-CC-pVDZ\C2H4Cl1\OHZDE\08-Apr-2025\0\\
 #t hf aug-cc-pvdz symm=none int=(grid=ultrafine) guess=(read,tcheck) s
 table=opt\\title\\0,2\C,0,-0.612312,0.655695,0.000005\Cl,0,1.100852,-0
 .155974,-0.000004\H,0,-0.594797,1.270373,0.895963\H,0,-0.594802,1.2703
 82,-0.895948\C,0,-1.650277,-0.365159,0.000003\H,0,-1.974673,-0.8162,-0
 .928958\H,0,-1.974667,-0.81621,0.928961\\Version=ES64L-G16RevC.01\HF=-
 537.5335987\S2=0.771546\S2-1=0.\S2A=0.75032\RMSD=6.695e-09\Dipole=-0.9
 487205,0.3362591,0.0000044\Quadrupole=-0.9145125,0.3910539,0.5234586,0

 Normal termination of Gaussian 16 at Tue Apr  8 22:31:38 2025.
 Gaussian 16:  ES64L-G16RevC.01  3-Jul-2019

 ----------------------------------------------------------------------
 #t hf aug-cc-pvdz iop(5/13=1,5/36=2,99/5=2) pseudo=read geom=check gue
 ss=(read,tcheck) scf=(maxcycle=1)
 ----------------------------------------------------------------------
 -----
 title
 -----
 Structure from the checkpoint file:  "BDE49_expt_1026_mol2.chk"
 Charge =  0 Multiplicity = 2

                         Standard orientation:
 ---------------------------------------------------------------------
 Center     Atomic      Atomic             Coordinates (Angstroms)
 Number     Number       Type             X           Y           Z
 ---------------------------------------------------------------------
      1          6           0       -0.612312    0.655695    0.000005
      2         17           0        1.100852   -0.155974   -0.000004
      3          1           0       -0.594797    1.270373    0.895963
      4          1           0       -0.594802    1.270382   -0.895948
      5          6           0       -1.650277   -0.365159    0.000003
      6          1           0       -1.974673   -0.816200   -0.928958
      7          1           0       -1.974667   -0.816210    0.928961
 ---------------------------------------------------------------------

 SCF Done:  E(UHF) =  -538.155701679     A.U. after    2 cycles

 The electronic state is 2-A.
 Alpha  occ. eigenvalues --  -99.87105 -11.45464 -11.40216 -10.44209  -9.64364
 Alpha  occ. eigenvalues --   -9.63354  -9.63336  -1.31847  -1.13325  -0.89246
 Alpha  occ. eigenvalues --   -0.67869  -0.61368  -0.58430  -0.55395  -0.47958
 Alpha  occ. eigenvalues --   -0.47312  -0.35959
 Alpha virt. eigenvalues --    0.02990   0.05264   0.05892   0.06821   0.08248
 Alpha virt. eigenvalues --    0.10831   0.12633   0.13415   0.14508   0.15496
 Alpha virt. eigenvalues --    0.15622   0.18575   0.18771   0.19237   0.20038

  Beta  occ. eigenvalues --  -99.86862 -11.45632 -11.38285 -10.43943  -9.63419
  Beta  occ. eigenvalues --   -9.63193  -9.63154  -1.29950  -1.09001  -0.85487
  Beta  occ. eigenvalues --   -0.67208  -0.59239  -0.55893  -0.54626  -0.47113
  Beta  occ. eigenvalues --   -0.46923
  Beta virt. eigenvalues --    0.02850   0.04564   0.05435   0.05911   0.06834
  Beta virt. eigenvalues --    0.09945   0.11154   0.12908   0.14499   0.15059
  Beta virt. eigenvalues --    0.15617   0.16445   0.18745   0.18899   0.19946

 Mulliken charges and spin densities:
               1          2
     1  C   -3.861617  -0.362264
     2  Cl   0.095950   0.144554
     3  H    1.507942   0.003882
     4  H    1.507941   0.003882
     5  C   -1.945467   1.353014
     6  H    1.347625  -0.071534
     7  H    1.347625  -0.071534
 Sum of Mulliken charges =  -0.00000   1.00000

 Dipole moment (field-independent basis, Debye):
    X=             -2.6423    Y=              0.8342    Z=              0.0000  Tot=              2.7708
                          Isotropic Fermi Contact Couplings
        Atom                 a.u.       MegaHertz       Gauss      10(-4) cm-1
     1  C(13)             -0.02384     -26.79704      -9.56185      -8.93853
     2  Cl(35)             0.12828      56.24804      20.07070      18.76233
     3  H(1)               0.00438      19.59508       6.99201       6.53621
     4  H(1)               0.00438      19.59504       6.99200       6.53620
     5  C(13)              0.11991     134.80324      48.10115      44.96552
     6  H(1)              -0.01706     -76.25849     -27.21093     -25.43709
     7  H(1)              -0.01706     -76.25847     -27.21092     -25.43709
 --------------------------------------------------------

 Normal termination of Gaussian 16 at Tue Apr  8 22:31:40 2025.
