 Gaussian 16, Revision C.01,

 ----------------------------------------------------------------------
 #t hf aug-cc-pvdz symm=none int=(grid=ultrafine) guess=(read,tcheck) s
 table=(opt,rrhf)
 ----------------------------------------------------------------------
 -----
 title
 -----
 Symbolic Z-matrix:
 Charge =  0 Multiplicity = 1

 SCF Done:  E(RHF) =  -462.244400315     A.U. after   13 cycles
 Normal termination of Gaussian 16 at Wed Apr  9 00:00:39 2025.
 Gaussian 16:  ES64L-G16RevC.01  3-Jul-2019

 ----------------------------------------------------------------------
 #t hf aug-cc-pvdz iop(5/13=1,5/36=2,99/5=2) pseudo=read geom=check gue
 ss=(read,tcheck) scf=(maxcycle=1)
 ----------------------------------------------------------------------
 -----
 title
 -----
 Structure from the checkpoint file:  "BDE49_nonexpt_2090_mol1.chk"
 Charge =  0 Multiplicity = 1

                         Standard orientation:
 ---------------------------------------------------------------------
 Center     Atomic      Atomic             Coordinates (Angstroms)
 Number     Number       Type             X           Y           Z
 ---------------------------------------------------------------------
      1          7           0        0.263175   -0.619512   -0.000008
      2          6           0       -1.120794    1.444598    0.000001
      3          6           0       -0.872091   -0.053045   -0.000018
      4          6           0       -2.127831   -0.900148    0.000005
      5         14           0        1.901420   -0.067020    0.000005
      6          1           0       -0.193272    2.015748    0.000005
      7          1           0       -1.710805    1.727341    0.878089
      8          1           0       -1.710808    1.727359   -0.878080
      9          1           0       -1.864913   -1.956389    0.000012
     10          1           0       -2.742028   -0.676122   -0.879072
     11          1           0       -2.742011   -0.676108    0.879090
     12          1           0        2.552241   -0.621659   -1.207669
     13          1           0        2.552223   -0.621654    1.207690
     14          1           0        2.121562    1.407914    0.000003
 ---------------------------------------------------------------------

 SCF Done:  E(RHF) =  -463.261262088     A.U. after    2 cycles

 The electronic state is 1-A.
 Alpha  occ. eigenvalues --  -76.21613 -15.70124 -11.46372 -11.39005 -11.37093
 Alpha  occ. eigenvalues --   -5.55211  -2.20704  -2.17067  -2.17026  -1.35386
 Alpha  occ. eigenvalues --   -1.10245  -1.02717  -0.81569  -0.69020  -0.61126
 Alpha  occ. eigenvalues --   -0.61103  -0.59681  -0.54673  -0.50611  -0.49591
 Alpha  occ. eigenvalues --   -0.48002  -0.45914  -0.39781  -0.32746
 Alpha virt. eigenvalues --    0.03151   0.05136   0.05648   0.05829   0.06385
 Alpha virt. eigenvalues --    0.06632   0.06901   0.07713   0.07719   0.08998
 Alpha virt. eigenvalues --    0.10708   0.11122   0.12139   0.13294   0.13748

 Mulliken charges:
               1
     1  N   -3.696319
     2  C   -3.842726
     3  C    2.530138
     4  C   -3.929224
     5  Si   5.804679
     6  H    1.687290
     7  H    1.261289
     8  H    1.261291
     9  H    1.399269
    10  H    1.275497
    11  H    1.275486
    12  H   -1.756337
    13  H   -1.756334
    14  H   -1.513999
 Sum of Mulliken charges =   0.00000

 Dipole moment (field-independent basis, Debye):
    X=             -2.1504    Y=              1.1348    Z=              0.0000  Tot=              2.4315

 Test job not archived.
 1\1\GINC-SE250\SP\RHF\Aug-CC-pVDZ\C3H9N1Si1\OHZDE\09-Apr-2025\0\\#t hf
  aug-cc-pvdz iop(5/13=1,5/36=2,99/5=2) pseudo=read geom=check guess=(r
 ead,tcheck) scf=(maxcycle=1)\\title\\0,1\N,0,0.263175,-0.619512,-0.000
 008\C,0,-1.120794,1.444598,0.000001\C,0,-0.872091,-0.053045,-0.000018\
 C,0,-2.127831,-0.900148,0.000005\Si,0,1.90142,-0.06702,0.000005\H,0,-0
 .193272,2.015748,0.000005\H,0,-1.710805,1.727341,0.878089\H,0,-1.71080
 8,1.727359,-0.87808\H,0,-1.864913,-1.956389,0.000012\H,0,-2.742028,-0.
 676122,-0.879072\H,0,-2.742011,-0.676108,0.87909\H,0,2.552241,-0.62165

 Normal termination of Gaussian 16 at Wed Apr  9 00:00:42 2025.
