 Gaussian 16, Revision C.01,

 ----------------------------------------------------------------------
 #t hf aug-cc-pvdz symm=none int=(grid=ultrafine) guess=(read,tcheck) s
 table=(opt,rrhf)
 ----------------------------------------------------------------------
 -----
 title
 -----
 Symbolic Z-matrix:
 Charge =  0 Multiplicity = 1

 SCF Done:  E(RHF) =  -711.959973411     A.U. after   15 cycles
 Normal termination of Gaussian 16 at Tue Apr  8 23:53:40 2025.
 Gaussian 16:  ES64L-G16RevC.01  3-Jul-2019

 ----------------------------------------------------------------------
 #t hf aug-cc-pvdz iop(5/13=1,5/36=2,99/5=2) pseudo=read geom=check gue
 ss=(read,tcheck) scf=(maxcycle=1)
 ----------------------------------------------------------------------
 -----
 title
 -----
 Structure from the checkpoint file:  "BDE49_nonexpt_1871_mol1.chk"
 Charge =  0 Multiplicity = 1

                         Standard orientation:
 ---------------------------------------------------------------------
 Center     Atomic      Atomic             Coordinates (Angstroms)
 Number     Number       Type             X           Y           Z
 ---------------------------------------------------------------------
      1         14           0       -1.187411    1.567520    0.367135
      2          6           0        0.520975    2.073595   -0.279021
      3          6           0        1.754707   -0.097507    0.322515
      4          8           0        1.122063   -0.131526    1.359537
      5          6           0        1.503005    0.977985   -0.718480
      6          1           0        1.136856    0.455465   -1.610287
      7          1           0        2.468517    1.412188   -1.006392
      8          6           0       -1.965328    0.088112   -0.564083
      9          1           0       -2.107113    2.700495    0.075202
     10          1           0       -1.240793    1.332620    1.823845
     11          6           0       -1.253384   -1.236055   -0.440505
     12          1           0       -2.991859    0.017986   -0.189505
     13          1           0       -1.999354    0.363590   -1.622009
     14          8           0       -0.418675   -1.583943   -1.255186
     15          6           0        2.772193   -1.161933   -0.019885
     16          1           0        3.039271   -1.721139    0.876131
     17          1           0        3.665269   -0.742237   -0.488997
     18          1           0        2.304589   -1.843876   -0.738155
     19          6           0       -1.595245   -2.098687    0.756966
     20          1           0       -2.673071   -2.274379    0.818525
     21          1           0       -1.290920   -1.582018    1.672324
     22          1           0       -1.065735   -3.047762    0.687571
     23          1           0        0.977338    2.686165    0.507144
     24          1           0        0.352118    2.748322   -1.125133
 ---------------------------------------------------------------------

 SCF Done:  E(RHF) =  -714.093199467     A.U. after    2 cycles

 The electronic state is 1-A.
 Alpha  occ. eigenvalues --  -76.20904 -21.04698 -21.03988 -11.49981 -11.49466
 Alpha  occ. eigenvalues --  -11.42272 -11.38649 -11.38207 -11.36750 -11.36154
 Alpha  occ. eigenvalues --   -5.54438  -2.18841  -2.17561  -2.16880  -1.70965
 Alpha  occ. eigenvalues --   -1.70136  -1.19673  -1.14961  -1.08454  -1.03138
 Alpha  occ. eigenvalues --   -0.93333  -0.76444  -0.73571  -0.70297  -0.64124
 Alpha  occ. eigenvalues --   -0.63428  -0.61508  -0.60493  -0.58786  -0.58521
 Alpha  occ. eigenvalues --   -0.56917  -0.52579  -0.51441  -0.49157  -0.48083
 Alpha  occ. eigenvalues --   -0.46924  -0.46123  -0.44808  -0.41407  -0.39707
 Alpha  occ. eigenvalues --   -0.36102  -0.28765  -0.27904
 Alpha virt. eigenvalues --    0.03497   0.04531   0.04850   0.05116   0.05370
 Alpha virt. eigenvalues --    0.05999   0.06332   0.06463   0.07320   0.07429
 Alpha virt. eigenvalues --    0.07600   0.08787   0.09309   0.09609   0.09985

 Mulliken charges:
               1
     1  Si   6.586117
     2  C   -3.786013
     3  C    4.752998
     4  O   -3.572956
     5  C   -3.397940
     6  H    1.862834
     7  H    1.365794
     8  C   -4.638207
     9  H   -2.061104
    10  H   -2.252341
    11  C    4.764943
    12  H    1.537657
    13  H    1.386327
    14  O   -3.640545
    15  C   -5.051129
    16  H    1.348104
    17  H    1.358286
    18  H    1.355400
    19  C   -4.561681
    20  H    1.246146
    21  H    1.434521
    22  H    1.379208
    23  H    1.348339
    24  H    1.235241
 Sum of Mulliken charges =   0.00000

 Dipole moment (field-independent basis, Debye):
    X=              0.7205    Y=              0.0019    Z=             -0.4185  Tot=              0.8332

 Test job not archived.
 1\1\GINC-SE069\SP\RHF\Aug-CC-pVDZ\C7H14O2Si1\OHZDE\08-Apr-2025\0\\#t h
 f aug-cc-pvdz iop(5/13=1,5/36=2,99/5=2) pseudo=read geom=check guess=(
 read,tcheck) scf=(maxcycle=1)\\title\\0,1\Si,0,-1.187411,1.56752,0.367
 135\C,0,0.520975,2.073595,-0.279021\C,0,1.754707,-0.097507,0.322515\O,
 0,1.122063,-0.131526,1.359537\C,0,1.503005,0.977985,-0.71848\H,0,1.136
 856,0.455465,-1.610287\H,0,2.468517,1.412187,-1.006392\C,0,-1.965328,0
 .088112,-0.564083\H,0,-2.107112,2.700495,0.075202\H,0,-1.240793,1.3326
 2,1.823845\C,0,-1.253384,-1.236055,-0.440505\H,0,-2.991859,0.017987,-0

 Normal termination of Gaussian 16 at Tue Apr  8 23:53:57 2025.
