 Gaussian 16, Revision C.01,

 ----------------------------------------------------------------------
 #t hf aug-cc-pvdz symm=none int=(grid=ultrafine) guess=(read,tcheck) s
 table=opt
 ----------------------------------------------------------------------
 -----
 title
 -----
 Symbolic Z-matrix:
 Charge =  0 Multiplicity = 2

 SCF Done:  E(UHF) =  -622.650837152     A.U. after   15 cycles
 Normal termination of Gaussian 16 at Tue Apr  8 23:45:53 2025.
 Gaussian 16:  ES64L-G16RevC.01  3-Jul-2019

 ----------------------------------------------------------------------
 #t hf aug-cc-pvdz iop(5/13=1,5/36=2,99/5=2) pseudo=read geom=check gue
 ss=(read,tcheck) scf=(maxcycle=1)
 ----------------------------------------------------------------------
 -----
 title
 -----
 Structure from the checkpoint file:  "BDE49_nonexpt_174_mol2.chk"
 Charge =  0 Multiplicity = 2

                         Standard orientation:
 ---------------------------------------------------------------------
 Center     Atomic      Atomic             Coordinates (Angstroms)
 Number     Number       Type             X           Y           Z
 ---------------------------------------------------------------------
      1         17           0       -1.505167   -0.166215   -0.000011
      2          5           0       -0.167254    0.920437    0.000001
      3          6           0        1.347010    0.570566    0.000011
      4          9           0        1.632427   -0.804864    0.000010
      5          1           0        1.825096    1.021923    0.879702
      6          1           0        1.825109    1.021927   -0.879671
 ---------------------------------------------------------------------

 SCF Done:  E(UHF) =  -623.506595817     A.U. after    2 cycles

 The electronic state is 2-A.
 Alpha  occ. eigenvalues --  -99.91170 -29.25741 -11.42533 -10.48456  -9.68368
 Alpha  occ. eigenvalues --   -9.67961  -9.67703  -7.68980  -1.36886  -1.17795
 Alpha  occ. eigenvalues --   -0.79372  -0.69797  -0.64796  -0.61470  -0.55455
 Alpha  occ. eigenvalues --   -0.53351  -0.40981  -0.32032  -0.25702  -0.23533
 Alpha virt. eigenvalues --    0.03225   0.03453   0.04263   0.05471   0.06092
 Alpha virt. eigenvalues --    0.09004   0.10731   0.13490   0.13892   0.15136
 Alpha virt. eigenvalues --    0.15913   0.16510   0.17643   0.19423   0.19939

  Beta  occ. eigenvalues --  -99.91100 -29.25542 -11.42375 -10.48375  -9.68312
  Beta  occ. eigenvalues --   -9.67737  -9.67633  -7.67043  -1.35872  -1.16929
  Beta  occ. eigenvalues --   -0.76006  -0.68940  -0.64630  -0.59463  -0.55566
  Beta  occ. eigenvalues --   -0.51687  -0.37432  -0.25595  -0.25136
  Beta virt. eigenvalues --    0.02263   0.03703   0.04000   0.05533   0.07219
  Beta virt. eigenvalues --    0.07476   0.10064   0.12554   0.13655   0.14451
  Beta virt. eigenvalues --    0.15928   0.15956   0.16895   0.17970   0.19609

 Mulliken charges and spin densities:
               1          2
     1  Cl  -0.955541   0.046091
     2  B    1.434558   0.918125
     3  C   -3.891287  -0.017602
     4  F    0.103615   0.042047
     5  H    1.654328   0.005669
     6  H    1.654327   0.005669
 Sum of Mulliken charges =  -0.00000   1.00000

 Dipole moment (field-independent basis, Debye):
    X=              1.4802    Y=             -1.1457    Z=              0.0000  Tot=              1.8718
                          Isotropic Fermi Contact Couplings
        Atom                 a.u.       MegaHertz       Gauss      10(-4) cm-1
     1  Cl(35)             0.11123      48.76904      17.40201      16.26760
     2  B(11)              0.20402     292.64411     104.42270      97.61557
     3  C(13)              0.03171      35.64302      12.71832      11.88923
     4  F(19)              0.01296      54.52255      19.45500      18.18677
     5  H(1)              -0.00115      -5.16243      -1.84208      -1.72200
     6  H(1)              -0.00115      -5.16243      -1.84208      -1.72200
 --------------------------------------------------------
       Center         ----  Spin Dipole Couplings  ----

 1\1\GINC-SE103\SP\UHF\Aug-CC-pVDZ\C1H2B1Cl1F1(2)\OHZDE\08-Apr-2025\0\\
 #t hf aug-cc-pvdz iop(5/13=1,5/36=2,99/5=2) pseudo=read geom=check gue
 ss=(read,tcheck) scf=(maxcycle=1)\\title\\0,2\Cl,0,-1.505167,-0.166215
 ,-0.000011\B,0,-0.167254,0.920437,0.000001\C,0,1.34701,0.570566,0.0000
 11\F,0,1.632427,-0.804864,0.00001\H,0,1.825096,1.021923,0.879702\H,0,1
 .825109,1.021927,-0.879671\\Version=ES64L-G16RevC.01\State=2-A\HF=-623
 .5065958\S2=0.75652\S2-1=0.\S2A=0.750025\RMSD=5.080e-02\Dipole=0.58236
 01,-0.4507371,0.0000032\Quadrupole=0.4488002,-1.5177895,1.0689893,0.47

 Normal termination of Gaussian 16 at Tue Apr  8 23:45:55 2025.
