 Gaussian 16, Revision C.01,

 ----------------------------------------------------------------------
 #t hf aug-cc-pvdz symm=none int=(grid=ultrafine) guess=(read,tcheck) s
 table=(opt,rrhf)
 ----------------------------------------------------------------------
 -----
 title
 -----
 Symbolic Z-matrix:
 Charge =  0 Multiplicity = 1

 SCF Done:  E(RHF) =  -969.602980555     A.U. after   12 cycles

 1\1\GINC-SE328\Stability\RHF\Aug-CC-pVDZ\B2Cl2H2\OHZDE\08-Apr-2025\0\\
 #t hf aug-cc-pvdz symm=none int=(grid=ultrafine) guess=(read,tcheck) s
 table=(opt,rrhf)\\title\\0,1\B,0,0.716539,0.759016,-0.431847\B,0,-0.71
 6534,0.759003,0.431854\Cl,0,-2.023595,-0.307703,-0.08283\Cl,0,2.023593
 ,-0.307705,0.082828\H,0,-0.941111,1.435925,1.383701\H,0,0.94111,1.4359
 24,-1.383705\\Version=ES64L-G16RevC.01\HF=-969.6029806\RMSD=9.369e-09\
 Dipole=0.0000032,0.522544,0.0000042\Quadrupole=-2.6416901,1.8199324,0.
 8217577,0.0000333,0.1856071,-0.000008\PG=Unknown\\@

 Normal termination of Gaussian 16 at Tue Apr  8 23:22:52 2025.
 Gaussian 16:  ES64L-G16RevC.01  3-Jul-2019

 ----------------------------------------------------------------------
 #t hf aug-cc-pvdz iop(5/13=1,5/36=2,99/5=2) pseudo=read geom=check gue
 ss=(read,tcheck) scf=(maxcycle=1)
 ----------------------------------------------------------------------
 -----
 title
 -----
 Structure from the checkpoint file:  "BDE49_nonexpt_11_mol1.chk"
 Charge =  0 Multiplicity = 1

                         Standard orientation:
 ---------------------------------------------------------------------
 Center     Atomic      Atomic             Coordinates (Angstroms)
 Number     Number       Type             X           Y           Z
 ---------------------------------------------------------------------
      1          5           0       -0.716539    0.759016    0.431847
      2          5           0        0.716534    0.759003   -0.431854
      3         17           0        2.023595   -0.307703    0.082830
      4         17           0       -2.023593   -0.307705   -0.082828
      5          1           0        0.941111    1.435925   -1.383701
      6          1           0       -0.941110    1.435924    1.383705
 ---------------------------------------------------------------------

 SCF Done:  E(RHF) =  -970.316817012     A.U. after    2 cycles

 The electronic state is 1-A.
 Alpha  occ. eigenvalues --  -99.90120 -99.90117 -10.47372 -10.47366  -9.67331
 Alpha  occ. eigenvalues --   -9.67287  -9.66866  -9.66860  -9.66702  -9.66651
 Alpha  occ. eigenvalues --   -7.66551  -7.65743  -1.35700  -1.33800  -0.91542
 Alpha  occ. eigenvalues --   -0.76297  -0.60196  -0.59395  -0.56399  -0.54342
 Alpha  occ. eigenvalues --   -0.54027  -0.50779  -0.40572
 Alpha virt. eigenvalues --    0.02086   0.02108   0.02195   0.04282   0.06170
 Alpha virt. eigenvalues --    0.06538   0.08566   0.09407   0.09873   0.11435
 Alpha virt. eigenvalues --    0.12358   0.13819   0.14003   0.14415   0.16780

 Mulliken charges:
               1
     1  B    3.421460
     2  B    3.421455
     3  Cl  -1.128194
     4  Cl  -1.128188
     5  H   -2.293268
     6  H   -2.293266
 Sum of Mulliken charges =  -0.00000

 Dipole moment (field-independent basis, Debye):
    X=             -0.0000    Y=              1.1050    Z=             -0.0000  Tot=              1.1050

 Test job not archived.
 1\1\GINC-SE328\SP\RHF\Aug-CC-pVDZ\B2Cl2H2\OHZDE\08-Apr-2025\0\\#t hf a
 ug-cc-pvdz iop(5/13=1,5/36=2,99/5=2) pseudo=read geom=check guess=(rea
 d,tcheck) scf=(maxcycle=1)\\title\\0,1\B,0,0.716539,0.759016,-0.431847
 \B,0,-0.716534,0.759003,0.431854\Cl,0,-2.023595,-0.307703,-0.08283\Cl,
 0,2.023593,-0.307705,0.082828\H,0,-0.941111,1.435925,1.383701\H,0,0.94
 111,1.435924,-1.383705\\Version=ES64L-G16RevC.01\State=1-A\HF=-970.316
 817\RMSD=8.466e-02\Dipole=0.0000025,0.4347474,0.0000028\Quadrupole=-2.
 0999554,1.8206484,0.279307,0.0000319,0.7827688,-0.0000082\PG=C01 [X(B2

 Normal termination of Gaussian 16 at Tue Apr  8 23:22:54 2025.
