 Gaussian 16, Revision C.01,

 ----------------------------------------------------------------------
 #t hf aug-cc-pvdz symm=none int=(grid=ultrafine) guess=(read,tcheck) s
 table=opt
 ----------------------------------------------------------------------
 -----
 title
 -----
 Symbolic Z-matrix:
 Charge =  0 Multiplicity = 2

 SCF Done:  E(UHF) =  -505.435787313     A.U. after   17 cycles
 Normal termination of Gaussian 16 at Wed Apr  9 00:35:32 2025.
 Gaussian 16:  ES64L-G16RevC.01  3-Jul-2019

 ----------------------------------------------------------------------
 #t hf aug-cc-pvdz iop(5/13=1,5/36=2,99/5=2) pseudo=read geom=check gue
 ss=(read,tcheck) scf=(maxcycle=1)
 ----------------------------------------------------------------------
 -----
 title
 -----
 Structure from the checkpoint file:  "BDE49_nonexpt_415_mol2.chk"
 Charge =  0 Multiplicity = 2

                         Standard orientation:
 ---------------------------------------------------------------------
 Center     Atomic      Atomic             Coordinates (Angstroms)
 Number     Number       Type             X           Y           Z
 ---------------------------------------------------------------------
      1          9           0        2.064165   -0.971807   -1.104169
      2          5           0        0.766370   -1.121645   -0.991859
      3          6           0       -0.153290   -0.075001   -0.159914
      4          8           0       -1.514341   -0.355072   -0.257096
      5          8           0        0.091750    1.148470   -0.778005
      6          8           0        0.150350   -0.057511    1.230695
      7          6           0       -1.931427   -1.592954    0.312073
      8          1           0       -2.978307   -1.716570    0.037425
      9          1           0       -1.828242   -1.583185    1.399050
     10          1           0       -1.350480   -2.427614   -0.101967
     11          6           0       -0.800255    2.223477   -0.430692
     12          1           0       -0.335468    3.126902   -0.823224
     13          1           0       -0.912274    2.301645    0.653020
     14          1           0       -1.778749    2.075117   -0.888876
     15          6           0        1.473110    0.338627    1.598092
     16          1           0        1.446250    0.514326    2.673062
     17          1           0        1.768791    1.255722    1.083131
     18          1           0        2.208246   -0.443855    1.383091
 ---------------------------------------------------------------------

 SCF Done:  E(UHF) =  -507.549169018     A.U. after    2 cycles

 The electronic state is 2-A.
 Alpha  occ. eigenvalues --  -29.26823 -21.05636 -21.05307 -21.05276 -11.47692
 Alpha  occ. eigenvalues --  -11.40998 -11.40910 -11.40257  -7.68895  -1.88059
 Alpha  occ. eigenvalues --   -1.70524  -1.69761  -1.08899  -1.00831  -0.98341
 Alpha  occ. eigenvalues --   -0.96956  -0.80073  -0.69103  -0.66104  -0.65038
 Alpha  occ. eigenvalues --   -0.62046  -0.60201  -0.58833  -0.57197  -0.54761
 Alpha  occ. eigenvalues --   -0.52566  -0.48621  -0.45737  -0.42491  -0.42268
 Alpha  occ. eigenvalues --   -0.38984  -0.36887  -0.33784  -0.30897  -0.30226
 Alpha  occ. eigenvalues --   -0.20342
 Alpha virt. eigenvalues --    0.03715   0.04297   0.04700   0.05084   0.05353
 Alpha virt. eigenvalues --    0.05974   0.06278   0.06760   0.07096   0.08720
 Alpha virt. eigenvalues --    0.09562   0.09843   0.11119   0.12631   0.13438

  Beta  occ. eigenvalues --  -29.26525 -21.05619 -21.05340 -21.05225 -11.47344
  Beta  occ. eigenvalues --  -11.40994 -11.40878 -11.40234  -7.67010  -1.87904
  Beta  occ. eigenvalues --   -1.70429  -1.69725  -1.07430  -0.99852  -0.98227
  Beta  occ. eigenvalues --   -0.95421  -0.79025  -0.68595  -0.65397  -0.64887
  Beta  occ. eigenvalues --   -0.61621  -0.59920  -0.58766  -0.57074  -0.54569
  Beta  occ. eigenvalues --   -0.52044  -0.45499  -0.42215  -0.42021  -0.41611
  Beta  occ. eigenvalues --   -0.38753  -0.36441  -0.32025  -0.30278  -0.28257
  Beta virt. eigenvalues --    0.03492   0.04263   0.04663   0.05056   0.05362
  Beta virt. eigenvalues --    0.05809   0.06280   0.06748   0.06954   0.08620
  Beta virt. eigenvalues --    0.09474   0.09607   0.10774   0.11865   0.12948

 Mulliken charges and spin densities:
               1          2
     1  F   -1.172391  -0.082159
     2  B    1.006922   0.995580
     3  C    8.701145   0.068269
     4  O   -3.438207  -0.025489
     5  O   -3.598472   0.014338
     6  O   -4.077086   0.054646
     7  C   -3.331738  -0.007083
     8  H    1.263408  -0.000730
     9  H    1.494177  -0.004882
    10  H    1.468683   0.018983
    11  C   -3.281655  -0.010099
    12  H    1.253665  -0.000053
    13  H    1.398113  -0.004413
    14  H    1.482357   0.001382
    15  C   -3.408059  -0.019053
    16  H    1.300595   0.000411
    17  H    1.468874   0.002176
    18  H    1.469668  -0.001822
 Sum of Mulliken charges =  -0.00000   1.00000

 Dipole moment (field-independent basis, Debye):
    X=              3.1323    Y=              1.0478    Z=              0.5891  Tot=              3.3551
                          Isotropic Fermi Contact Couplings
        Atom                 a.u.       MegaHertz       Gauss      10(-4) cm-1
     1  F(19)              0.04909     206.53144      73.69555      68.89147
     2  B(11)              0.19774     283.62962     101.20610      94.60866
     3  C(13)              0.06536      73.48121      26.21992      24.51069
     4  O(17)              0.00325      -1.97108      -0.70333      -0.65748
     5  O(17)              0.01569      -9.51248      -3.39429      -3.17302
     6  O(17)              0.00405      -2.45555      -0.87620      -0.81908
     7  C(13)              0.00282       3.16644       1.12986       1.05621
     8  H(1)              -0.00012      -0.53459      -0.19076      -0.17832

 Normal termination of Gaussian 16 at Wed Apr  9 00:35:41 2025.
