 Gaussian 16, Revision C.01,

 ----------------------------------------------------------------------
 #t hf aug-cc-pvdz symm=none int=(grid=ultrafine) guess=(read,tcheck) s
 table=(opt,rrhf)
 ----------------------------------------------------------------------
 -----
 title
 -----
 Symbolic Z-matrix:
 Charge =  0 Multiplicity = 1

 SCF Done:  E(RHF) =  -295.014757597     A.U. after   15 cycles
 Normal termination of Gaussian 16 at Wed Apr  9 00:29:05 2025.
 Gaussian 16:  ES64L-G16RevC.01  3-Jul-2019

 ----------------------------------------------------------------------
 #t hf aug-cc-pvdz iop(5/13=1,5/36=2,99/5=2) pseudo=read geom=check gue
 ss=(read,tcheck) scf=(maxcycle=1)
 ----------------------------------------------------------------------
 -----
 title
 -----
 Structure from the checkpoint file:  "BDE49_nonexpt_297_mol1.chk"
 Charge =  0 Multiplicity = 1

                         Standard orientation:
 ---------------------------------------------------------------------
 Center     Atomic      Atomic             Coordinates (Angstroms)
 Number     Number       Type             X           Y           Z
 ---------------------------------------------------------------------
      1          6           0        0.217164    0.638125   -0.000000
      2          6           0        0.197881   -0.081058    1.204411
      3          6           0        0.197881   -1.472659    1.204519
      4          6           0        0.199839   -2.173522   -0.000000
      5          6           0        0.197881   -1.472659   -1.204519
      6          6           0        0.197881   -0.081058   -1.204411
      7          5           0       -1.366161    2.303565    0.000000
      8          1           0        0.197356   -2.010287    2.146160
      9          1           0        0.201269   -3.257570   -0.000000
     10          1           0        0.197356   -2.010287   -2.146160
     11          1           0        0.197794    0.459206   -2.145137
     12          1           0        0.197794    0.459206    2.145137
     13          6           0        0.191651    2.164240    0.000000
     14          1           0        0.688826    2.548612   -0.891971
     15          1           0        0.688826    2.548612    0.891971
     16          1           0       -1.969745    2.308112   -1.028680
     17          1           0       -1.969745    2.308112    1.028680
 ---------------------------------------------------------------------

 SCF Done:  E(RHF) =  -296.461982964     A.U. after    2 cycles

 The electronic state is 1-A'.
 Alpha  occ. eigenvalues --  -11.51608 -11.43974 -11.43248 -11.40915 -11.40517
 Alpha  occ. eigenvalues --  -11.36988 -11.35539  -7.60635  -1.35729  -1.16782
 Alpha  occ. eigenvalues --   -1.09087  -1.01549  -0.86356  -0.83736  -0.78059
 Alpha  occ. eigenvalues --   -0.70502  -0.64569  -0.61736  -0.57888  -0.55683
 Alpha  occ. eigenvalues --   -0.52935  -0.51484  -0.46000  -0.45214  -0.43623
 Alpha  occ. eigenvalues --   -0.41331  -0.33044  -0.31324
 Alpha virt. eigenvalues --    0.03318   0.04034   0.04155   0.04455   0.05595
 Alpha virt. eigenvalues --    0.05703   0.06455   0.07344   0.07815   0.08474
 Alpha virt. eigenvalues --    0.10263   0.10905   0.11402   0.11717   0.12881

 Mulliken charges:
               1
     1  C    3.746936
     2  C   -2.362749
     3  C   -1.452088
     4  C   -2.716469
     5  C   -1.452088
     6  C   -2.362749
     7  B    7.599372
     8  H    1.503003
     9  H    1.520301
    10  H    1.503003
    11  H    1.752741
    12  H    1.752741
    13  C   -5.261713
    14  H    1.171670
    15  H    1.171670
    16  H   -3.056790
    17  H   -3.056790
 Sum of Mulliken charges =  -0.00000

 Dipole moment (field-independent basis, Debye):
    X=              0.8301    Y=             -0.3338    Z=             -0.0000  Tot=              0.8947

 Test job not archived.
 1\1\GINC-SE187\SP\RHF\Aug-CC-pVDZ\C7H9B1\OHZDE\09-Apr-2025\0\\#t hf au
 g-cc-pvdz iop(5/13=1,5/36=2,99/5=2) pseudo=read geom=check guess=(read
 ,tcheck) scf=(maxcycle=1)\\title\\0,1\C,0,0.217164,0.638125,0.\C,0,0.1
 97881,-0.081058,1.204411\C,0,0.197881,-1.472659,1.204519\C,0,0.199839,
 -2.173522,0.\C,0,0.197881,-1.472659,-1.204519\C,0,0.197881,-0.081058,-
 1.204411\B,0,-1.366161,2.303565,0.\H,0,0.197356,-2.010287,2.14616\H,0,
 0.201269,-3.25757,0.\H,0,0.197356,-2.010287,-2.14616\H,0,0.197794,0.45
 9206,-2.145137\H,0,0.197794,0.459206,2.145137\C,0,0.191651,2.16424,0.\

 Normal termination of Gaussian 16 at Wed Apr  9 00:29:11 2025.
