 Gaussian 16, Revision C.01,

 ----------------------------------------------------------------------
 #t hf aug-cc-pvdz symm=none int=(grid=ultrafine) guess=(read,tcheck) s
 table=(opt,rrhf)
 ----------------------------------------------------------------------
 -----
 title
 -----
 Symbolic Z-matrix:
 Charge =  0 Multiplicity = 1

 SCF Done:  E(RHF) =  -1973.87776687     A.U. after   14 cycles
 Normal termination of Gaussian 16 at Tue Apr  8 23:26:18 2025.
 Gaussian 16:  ES64L-G16RevC.01  3-Jul-2019

 ----------------------------------------------------------------------
 #t hf aug-cc-pvdz iop(5/13=1,5/36=2,99/5=2) pseudo=read geom=check gue
 ss=(read,tcheck) scf=(maxcycle=1)
 ----------------------------------------------------------------------
 -----
 title
 -----
 Structure from the checkpoint file:  "BDE49_nonexpt_1243_mol1.chk"
 Charge =  0 Multiplicity = 1

                         Standard orientation:
 ---------------------------------------------------------------------
 Center     Atomic      Atomic             Coordinates (Angstroms)
 Number     Number       Type             X           Y           Z
 ---------------------------------------------------------------------
      1         17           0       -0.099186    2.384841    0.089500
      2         15           0       -0.010366    0.618112   -0.982596
      3         16           0        1.733855   -0.304104    0.173218
      4         16           0       -1.717227   -0.558532   -0.102902
      5          8           0        2.844078    0.582914   -0.114805
      6          8           0        1.374219   -0.611974    1.547160
      7          8           0       -2.919131   -0.004742   -0.693475
      8          8           0       -1.315146   -1.931655   -0.381124
      9          6           0        1.973805   -1.852780   -0.704509
     10          1           0        2.811344   -2.342216   -0.204117
     11          1           0        2.222897   -1.629165   -1.740991
     12          1           0        1.061584   -2.441379   -0.618739
     13          6           0       -1.793259   -0.317426    1.673270
     14          1           0       -2.055145    0.720286    1.869452
     15          1           0       -0.832021   -0.587305    2.105329
     16          1           0       -2.588493   -0.987117    2.006842
 ---------------------------------------------------------------------

 SCF Done:  E(RHF) =  -1976.49157431     A.U. after    2 cycles

 The electronic state is 1-A.
 Alpha  occ. eigenvalues -- -105.30249 -99.94260 -75.91132 -75.90992 -21.07423
 Alpha  occ. eigenvalues --  -21.07238 -21.07198 -21.07116 -13.53445 -13.53216
 Alpha  occ. eigenvalues --  -13.41693 -13.40861 -13.36675 -13.33956 -11.44169
 Alpha  occ. eigenvalues --  -11.43795 -10.51510  -9.71383  -9.70761  -9.70705
 Alpha  occ. eigenvalues --   -8.26077  -8.25969  -2.87822  -1.85206  -1.84948
 Alpha  occ. eigenvalues --   -1.67548  -1.67064  -1.58546  -1.54315  -1.53261
 Alpha  occ. eigenvalues --   -1.27556  -1.16670  -1.16217  -0.93756  -0.89717
 Alpha  occ. eigenvalues --   -0.77559  -0.65592  -0.64863  -0.64468  -0.64125
 Alpha  occ. eigenvalues --   -0.60834  -0.59605  -0.57297  -0.56762  -0.54152
 Alpha  occ. eigenvalues --   -0.52260  -0.47756  -0.46294  -0.42724  -0.41823
 Alpha  occ. eigenvalues --   -0.40306  -0.40152  -0.37996  -0.37788  -0.36467
 Alpha  occ. eigenvalues --   -0.19001  -0.09534
 Alpha virt. eigenvalues --    0.03083   0.04054   0.05363   0.05644   0.06592
 Alpha virt. eigenvalues --    0.07046   0.07374   0.08950   0.09854   0.10337
 Alpha virt. eigenvalues --    0.11964   0.12247   0.12583   0.12831   0.13208

 Mulliken charges:
               1
     1  Cl  -1.383254
     2  P    3.944898
     3  S    4.572525
     4  S    4.424127
     5  O   -2.496871
     6  O   -2.651401
     7  O   -2.493727
     8  O   -2.564749
     9  C   -4.838708
    10  H    1.290323
    11  H    1.428394
    12  H    1.498133
    13  C   -4.925174
    14  H    1.319693
    15  H    1.532256
    16  H    1.343533
 Sum of Mulliken charges =   0.00000

 Dipole moment (field-independent basis, Debye):
    X=              0.5940    Y=              0.2136    Z=             -6.3486  Tot=              6.3799

 Test job not archived.
 1\1\GINC-SE424\SP\RHF\Aug-CC-pVDZ\C2H6Cl1O4P1S2\OHZDE\08-Apr-2025\0\\#
 t hf aug-cc-pvdz iop(5/13=1,5/36=2,99/5=2) pseudo=read geom=check gues
 s=(read,tcheck) scf=(maxcycle=1)\\title\\0,1\Cl,0,-0.099186,2.384841,0
 .0895\P,0,-0.010366,0.618112,-0.982596\S,0,1.733855,-0.304104,0.173218
 \S,0,-1.717227,-0.558532,-0.102902\O,0,2.844078,0.582914,-0.114805\O,0
 ,1.374219,-0.611974,1.54716\O,0,-2.919131,-0.004742,-0.693475\O,0,-1.3
 15146,-1.931655,-0.381124\C,0,1.973805,-1.85278,-0.704509\H,0,2.811344
 ,-2.342216,-0.204117\H,0,2.222897,-1.629165,-1.740991\H,0,1.061584,-2.

 Normal termination of Gaussian 16 at Tue Apr  8 23:26:27 2025.
