 Gaussian 16, Revision C.01,

 ----------------------------------------------------------------------
 #t hf aug-cc-pvdz symm=none int=(grid=ultrafine) guess=(read,tcheck) s
 table=(opt,rrhf)
 ----------------------------------------------------------------------
 -----
 title
 -----
 Symbolic Z-matrix:
 Charge =  0 Multiplicity = 1

 SCF Done:  E(RHF) =  -468.321783167     A.U. after   13 cycles
 Normal termination of Gaussian 16 at Wed Apr  9 00:46:00 2025.
 Gaussian 16:  ES64L-G16RevC.01  3-Jul-2019

 ----------------------------------------------------------------------
 #t hf aug-cc-pvdz iop(5/13=1,5/36=2,99/5=2) pseudo=read geom=check gue
 ss=(read,tcheck) scf=(maxcycle=1)
 ----------------------------------------------------------------------
 -----
 title
 -----
 Structure from the checkpoint file:  "BDE49_nonexpt_788_mol1.chk"
 Charge =  0 Multiplicity = 1

                         Standard orientation:
 ---------------------------------------------------------------------
 Center     Atomic      Atomic             Coordinates (Angstroms)
 Number     Number       Type             X           Y           Z
 ---------------------------------------------------------------------
      1         14           0       -0.189250   -1.124669   -0.000007
      2          5           0        1.657770   -0.276818   -0.000108
      3          8           0        1.796531    1.072104    0.000033
      4          6           0       -1.644590    0.055629    0.000026
      5          6           0       -1.545028    1.387933   -0.000002
      6          1           0       -2.644834   -0.379184    0.000071
      7          1           0       -0.583405    1.890414   -0.000051
      8          1           0       -2.423376    2.029102    0.000020
      9          1           0        2.713646    1.368632    0.000116
     10          1           0        2.643664   -0.964511    0.000058
     11          1           0       -0.289749   -2.026582    1.182882
     12          1           0       -0.289832   -2.026614   -1.182863
 ---------------------------------------------------------------------

 SCF Done:  E(RHF) =  -469.287559198     A.U. after    2 cycles

 The electronic state is 1-A.
 Alpha  occ. eigenvalues --  -76.19070 -21.07825 -11.40608 -11.35609  -7.62936
 Alpha  occ. eigenvalues --   -5.52845  -2.17183  -2.15374  -2.14655  -1.74798
 Alpha  occ. eigenvalues --   -1.13062  -0.84507  -0.78917  -0.68658  -0.63797
 Alpha  occ. eigenvalues --   -0.60822  -0.52821  -0.46865  -0.44304  -0.43513
 Alpha  occ. eigenvalues --   -0.41289  -0.35894  -0.34622
 Alpha virt. eigenvalues --    0.02991   0.04028   0.04514   0.04987   0.06090
 Alpha virt. eigenvalues --    0.07264   0.08184   0.09008   0.09020   0.09458
 Alpha virt. eigenvalues --    0.09978   0.10090   0.10672   0.11987   0.12435

 Mulliken charges:
               1
     1  Si   6.137603
     2  B    3.314092
     3  O   -3.426953
     4  C   -2.668074
     5  C   -2.478697
     6  H    1.133390
     7  H    1.536859
     8  H    1.373255
     9  H    1.303768
    10  H   -2.473142
    11  H   -1.876018
    12  H   -1.876084
 Sum of Mulliken charges =  -0.00000

 Dipole moment (field-independent basis, Debye):
    X=              0.9654    Y=              2.1011    Z=              0.0001  Tot=              2.3123

 Test job not archived.
 1\1\GINC-SE120\SP\RHF\Aug-CC-pVDZ\C2H7B1O1Si1\OHZDE\09-Apr-2025\0\\#t
 hf aug-cc-pvdz iop(5/13=1,5/36=2,99/5=2) pseudo=read geom=check guess=
 (read,tcheck) scf=(maxcycle=1)\\title\\0,1\Si,0,-0.18925,-1.124669,-0.
 000007\B,0,1.65777,-0.276818,-0.000108\O,0,1.796531,1.072104,0.000033\
 C,0,-1.64459,0.055629,0.000026\C,0,-1.545028,1.387933,-0.000002\H,0,-2
 .644834,-0.379184,0.000071\H,0,-0.583405,1.890414,-0.000051\H,0,-2.423
 376,2.029102,0.00002\H,0,2.713646,1.368633,0.000116\H,0,2.643664,-0.96
 451,0.000058\H,0,-0.289749,-2.026582,1.182882\H,0,-0.289832,-2.026614,

 Normal termination of Gaussian 16 at Wed Apr  9 00:46:04 2025.
