 Gaussian 16, Revision C.01,

 ----------------------------------------------------------------------
 #t hf aug-cc-pvdz symm=none int=(grid=ultrafine) guess=(read,tcheck) s
 table=(opt,rrhf)
 ----------------------------------------------------------------------
 -----
 title
 -----
 Symbolic Z-matrix:
 Charge =  0 Multiplicity = 1

 SCF Done:  E(RHF) =  -311.653896496     A.U. after   12 cycles
 Normal termination of Gaussian 16 at Tue Apr  8 22:45:27 2025.
 Gaussian 16:  ES64L-G16RevC.01  3-Jul-2019

 ----------------------------------------------------------------------
 #t hf aug-cc-pvdz iop(5/13=1,5/36=2,99/5=2) pseudo=read geom=check gue
 ss=(read,tcheck) scf=(maxcycle=1)
 ----------------------------------------------------------------------
 -----
 title
 -----
 Structure from the checkpoint file:  "BDE49_expt_1528_mol1.chk"
 Charge =  0 Multiplicity = 1

                         Standard orientation:
 ---------------------------------------------------------------------
 Center     Atomic      Atomic             Coordinates (Angstroms)
 Number     Number       Type             X           Y           Z
 ---------------------------------------------------------------------
      1          6           0        0.000000   -0.000000    0.145731
      2          8           0        0.000000   -0.000000    1.316449
      3          9           0        0.000000    1.066228   -0.633665
      4          9           0       -0.000000   -1.066228   -0.633665
 ---------------------------------------------------------------------

 SCF Done:  E(RHF) =  -312.776841148     A.U. after    2 cycles

 The electronic state is 1-A1.
 Alpha  occ. eigenvalues --  -29.36457 -29.36381 -21.12874 -11.62928  -1.82283
 Alpha  occ. eigenvalues --   -1.23061  -0.91626  -0.66743  -0.66173  -0.49541
 Alpha  occ. eigenvalues --   -0.48012  -0.40058  -0.34920  -0.34831  -0.33054
 Alpha  occ. eigenvalues --   -0.26655
 Alpha virt. eigenvalues --    0.08824   0.09667   0.12395   0.13189   0.18171
 Alpha virt. eigenvalues --    0.18258   0.20607   0.20866   0.23886   0.25826
 Alpha virt. eigenvalues --    0.30524   0.31124   0.34195   0.34285   0.36263

 Mulliken charges:
               1
     1  C    0.871847
     2  O   -2.466635
     3  F    0.797394
     4  F    0.797394
 Sum of Mulliken charges =   0.00000

 Dipole moment (field-independent basis, Debye):
    X=             -0.0000    Y=              0.0000    Z=             -4.1441  Tot=              4.1441

 Test job not archived.
 1\1\GINC-SE331\SP\RHF\Aug-CC-pVDZ\C1F2O1\OHZDE\08-Apr-2025\0\\#t hf au
 g-cc-pvdz iop(5/13=1,5/36=2,99/5=2) pseudo=read geom=check guess=(read
 ,tcheck) scf=(maxcycle=1)\\title\\0,1\C,0,0.,0.,0.145731\O,0,0.,0.,1.3
 16449\F,0,0.,1.066228,-0.633665\F,0,0.,-1.066228,-0.633665\\Version=ES
 64L-G16RevC.01\State=1-A1\HF=-312.7768411\RMSD=3.340e-02\Dipole=0.,0.,
 -1.6304158\Quadrupole=0.1042369,1.8905334,-1.9947704,0.,0.,0.\PG=C02V
 [C2(C1O1),SGV(F2)]\\@

 Normal termination of Gaussian 16 at Tue Apr  8 22:45:28 2025.
