 Gaussian 16, Revision C.01,

 ----------------------------------------------------------------------
 #t hf aug-cc-pvdz symm=none int=(grid=ultrafine) guess=(read,tcheck) s
 table=(opt,rrhf)
 ----------------------------------------------------------------------
 -----
 title
 -----
 Symbolic Z-matrix:
 Charge =  0 Multiplicity = 1

 SCF Done:  E(RHF) =  -809.195084098     A.U. after   13 cycles
 Normal termination of Gaussian 16 at Tue Apr  8 23:24:50 2025.
 Gaussian 16:  ES64L-G16RevC.01  3-Jul-2019

 ----------------------------------------------------------------------
 #t hf aug-cc-pvdz iop(5/13=1,5/36=2,99/5=2) pseudo=read geom=check gue
 ss=(read,tcheck) scf=(maxcycle=1)
 ----------------------------------------------------------------------
 -----
 title
 -----
 Structure from the checkpoint file:  "BDE49_nonexpt_1232_mol1.chk"
 Charge =  0 Multiplicity = 1

                         Standard orientation:
 ---------------------------------------------------------------------
 Center     Atomic      Atomic             Coordinates (Angstroms)
 Number     Number       Type             X           Y           Z
 ---------------------------------------------------------------------
      1         16           0        1.883925   -0.082150    0.019608
      2          8           0        0.371601   -0.220475   -0.775873
      3          6           0       -0.741373   -0.004500   -0.014655
      4          9           0       -1.791555   -0.176326   -0.814056
      5          9           0       -0.781902    1.241794    0.486500
      6          9           0       -0.838695   -0.858110    1.013851
      7          1           0        2.042002    1.238981   -0.195483
 ---------------------------------------------------------------------

 SCF Done:  E(RHF) =  -810.889385059     A.U. after    2 cycles

 The electronic state is 1-A.
 Alpha  occ. eigenvalues --  -75.77465 -29.32469 -29.32404 -29.32309 -21.12979
 Alpha  occ. eigenvalues --  -13.23267 -13.17069 -13.11213 -11.61785  -8.10870
 Alpha  occ. eigenvalues --   -1.87924  -1.35323  -1.10021  -0.93052  -0.92796
 Alpha  occ. eigenvalues --   -0.73547  -0.57601  -0.50262  -0.49473  -0.45939
 Alpha  occ. eigenvalues --   -0.44636  -0.42193  -0.35997  -0.35403  -0.33562
 Alpha  occ. eigenvalues --   -0.28059  -0.25953  -0.25693  -0.22690
 Alpha virt. eigenvalues --    0.03065   0.07992   0.09056   0.11439   0.12427
 Alpha virt. eigenvalues --    0.12981   0.13134   0.16003   0.16871   0.19399
 Alpha virt. eigenvalues --    0.21302   0.21990   0.23059   0.24683   0.25869

 Mulliken charges:
               1
     1  S   -0.547465
     2  O   -2.572581
     3  C    0.319824
     4  F    0.660626
     5  F    0.544182
     6  F    0.542861
     7  H    1.052553
 Sum of Mulliken charges =   0.00000

 Dipole moment (field-independent basis, Debye):
    X=             -0.9037    Y=             -0.4050    Z=              1.6644  Tot=              1.9367

 Test job not archived.
 1\1\GINC-SE044\SP\RHF\Aug-CC-pVDZ\C1H1F3O1S1\OHZDE\08-Apr-2025\0\\#t h
 f aug-cc-pvdz iop(5/13=1,5/36=2,99/5=2) pseudo=read geom=check guess=(
 read,tcheck) scf=(maxcycle=1)\\title\\0,1\S,0,1.883925,-0.082151,0.019
 608\O,0,0.371601,-0.220475,-0.775873\C,0,-0.741373,-0.0045,-0.014655\F
 ,0,-1.791555,-0.176326,-0.814056\F,0,-0.781902,1.241794,0.4865\F,0,-0.
 838695,-0.85811,1.013851\H,0,2.042002,1.23898,-0.195483\\Version=ES64L
 -G16RevC.01\State=1-A\HF=-810.8893851\RMSD=5.177e-02\Dipole=-0.3555597
 ,-0.1593453,0.6548104\Quadrupole=2.5980807,0.1569994,-2.7550802,-0.448

 Normal termination of Gaussian 16 at Tue Apr  8 23:24:52 2025.
