 Gaussian 16, Revision C.01,

 ----------------------------------------------------------------------
 #t hf aug-cc-pvdz symm=none int=(grid=ultrafine) guess=(read,tcheck) s
 table=(opt,rrhf)
 ----------------------------------------------------------------------
 -----
 title
 -----
 Symbolic Z-matrix:
 Charge =  0 Multiplicity = 1

 SCF Done:  E(RHF) =  -1247.42923422     A.U. after   17 cycles
 Normal termination of Gaussian 16 at Tue Apr  8 22:49:53 2025.
 Gaussian 16:  ES64L-G16RevC.01  3-Jul-2019

 ----------------------------------------------------------------------
 #t hf aug-cc-pvdz iop(5/13=1,5/36=2,99/5=2) pseudo=read geom=check gue
 ss=(read,tcheck) scf=(maxcycle=1)
 ----------------------------------------------------------------------
 -----
 title
 -----
 Structure from the checkpoint file:  "BDE49_expt_1680_mol1.chk"
 Charge =  0 Multiplicity = 1

                         Standard orientation:
 ---------------------------------------------------------------------
 Center     Atomic      Atomic             Coordinates (Angstroms)
 Number     Number       Type             X           Y           Z
 ---------------------------------------------------------------------
      1          6           0       -0.003770   -1.670001   -0.000000
      2          6           0       -1.206238   -0.970340   -0.000000
      3          6           0       -1.213290    0.421219    0.000000
      4          6           0       -0.000000    1.106117    0.000000
      5          6           0        1.209638    0.428562   -0.000000
      6          6           0        1.194066   -0.961710   -0.000000
      7          1           0        0.002052   -2.751449   -0.000000
      8          1           0       -2.148341   -1.502838    0.000000
      9          1           0        2.134120    0.989561   -0.000000
     10         17           0        2.713841   -1.830428   -0.000000
     11          9           0        0.010105    2.446091    0.000000
     12         17           0       -2.711559    1.308476    0.000000
 ---------------------------------------------------------------------

 SCF Done:  E(RHF) =  -1249.33288466     A.U. after    2 cycles

 The electronic state is 1-A'.
 Alpha  occ. eigenvalues --  -99.91204 -99.91145 -29.30827 -11.56382 -11.50857
 Alpha  occ. eigenvalues --  -11.48632 -11.47031 -11.45303 -11.41462 -10.48558
 Alpha  occ. eigenvalues --  -10.48517  -9.68618  -9.68502  -9.67678  -9.67607
 Alpha  occ. eigenvalues --   -9.67508  -9.67434  -1.45606  -1.36413  -1.28143
 Alpha  occ. eigenvalues --   -1.17928  -1.10231  -0.96208  -0.90983  -0.78670
 Alpha  occ. eigenvalues --   -0.72323  -0.68207  -0.65353  -0.62811  -0.62090
 Alpha  occ. eigenvalues --   -0.57732  -0.56155  -0.53603  -0.51862  -0.50523
 Alpha  occ. eigenvalues --   -0.49453  -0.43820  -0.40371  -0.36212  -0.29757
 Alpha  occ. eigenvalues --   -0.25892
 Alpha virt. eigenvalues --    0.03038   0.05256   0.06126   0.06585   0.07807
 Alpha virt. eigenvalues --    0.07959   0.09101   0.10094   0.10586   0.11865
 Alpha virt. eigenvalues --    0.12019   0.12366   0.12787   0.13287   0.14161

 Mulliken charges:
               1
     1  C   -1.026439
     2  C    0.668187
     3  C   -6.367048
     4  C    5.394450
     5  C   -3.086897
     6  C   -0.533280
     7  H    1.754257
     8  H    1.847040
     9  H    1.840916
    10  Cl  -0.783746
    11  F    1.060538
    12  Cl  -0.767979
 Sum of Mulliken charges =   0.00000

 Dipole moment (field-independent basis, Debye):
    X=             -0.0189    Y=              2.1962    Z=             -0.0000  Tot=              2.1963

 Test job not archived.
 1\1\GINC-SE331\SP\RHF\Aug-CC-pVDZ\C6H3Cl2F1\OHZDE\08-Apr-2025\0\\#t hf
  aug-cc-pvdz iop(5/13=1,5/36=2,99/5=2) pseudo=read geom=check guess=(r
 ead,tcheck) scf=(maxcycle=1)\\title\\0,1\C,0,0.003771,-1.670001,0.\C,0
 ,1.206238,-0.97034,0.\C,0,1.21329,0.421219,0.\C,0,0.,1.106117,0.\C,0,-
 1.209638,0.428562,0.\C,0,-1.194066,-0.96171,0.\H,0,-0.002051,-2.751449
 ,0.\H,0,2.148342,-1.502837,0.\H,0,-2.13412,0.989561,0.\Cl,0,-2.71384,-
 1.830428,0.\F,0,-0.010105,2.446091,0.\Cl,0,2.711559,1.308477,0.\\Versi
 on=ES64L-G16RevC.01\State=1-A'\HF=-1249.3328847\RMSD=2.402e+00\Dipole=

 Normal termination of Gaussian 16 at Tue Apr  8 22:50:01 2025.
