 Gaussian 16, Revision C.01,

 ----------------------------------------------------------------------
 #t hf aug-cc-pvdz symm=none int=(grid=ultrafine) guess=(read,tcheck) s
 table=(opt,rrhf)
 ----------------------------------------------------------------------
 -----
 title
 -----
 Symbolic Z-matrix:
 Charge =  0 Multiplicity = 1

 SCF Done:  E(RHF) =  -694.586301503     A.U. after   14 cycles
 Normal termination of Gaussian 16 at Wed Apr  9 00:04:48 2025.
 Gaussian 16:  ES64L-G16RevC.01  3-Jul-2019

 ----------------------------------------------------------------------
 #t hf aug-cc-pvdz iop(5/13=1,5/36=2,99/5=2) pseudo=read geom=check gue
 ss=(read,tcheck) scf=(maxcycle=1)
 ----------------------------------------------------------------------
 -----
 title
 -----
 Structure from the checkpoint file:  "BDE49_nonexpt_2185_mol1.chk"
 Charge =  0 Multiplicity = 1

                         Standard orientation:
 ---------------------------------------------------------------------
 Center     Atomic      Atomic             Coordinates (Angstroms)
 Number     Number       Type             X           Y           Z
 ---------------------------------------------------------------------
      1          6           0        2.246316   -0.000002    0.109016
      2          6           0        1.583756    1.211656   -0.013244
      3          6           0        0.213811    1.209262   -0.261901
      4          6           0        1.583750   -1.211657   -0.013251
      5          6           0        0.213804   -1.209254   -0.261908
      6          6           0       -0.471521    0.000006   -0.383768
      7          9           0        3.578064   -0.000006    0.349996
      8          1           0        2.138102    2.136792    0.082821
      9          1           0       -0.328330    2.140292   -0.373076
     10          1           0        2.138091   -2.136796    0.082810
     11          1           0       -0.328340   -2.140281   -0.373088
     12          8           0       -1.817547    0.000011   -0.673098
     13         14           0       -3.081102   -0.000005    0.404367
     14          1           0       -4.299312   -0.000029   -0.424799
     15          1           0       -3.033257    1.204678    1.264666
     16          1           0       -3.033216   -1.204678    1.264677
 ---------------------------------------------------------------------

 SCF Done:  E(RHF) =  -696.482039465     A.U. after    2 cycles

 The electronic state is 1-A.
 Alpha  occ. eigenvalues --  -76.24965 -29.28187 -21.07028 -11.54508 -11.48034
 Alpha  occ. eigenvalues --  -11.45317 -11.43705 -11.41332 -11.38443  -5.58477
 Alpha  occ. eigenvalues --   -2.25156  -2.20303  -2.20057  -1.74104  -1.35709
 Alpha  occ. eigenvalues --   -1.13126  -1.11697  -0.90767  -0.90371  -0.77134
 Alpha  occ. eigenvalues --   -0.76892  -0.66303  -0.63263  -0.60642  -0.60111
 Alpha  occ. eigenvalues --   -0.57162  -0.51660  -0.51267  -0.49618  -0.48497
 Alpha  occ. eigenvalues --   -0.46373  -0.38363  -0.37004  -0.36324  -0.35033
 Alpha  occ. eigenvalues --   -0.27158  -0.21960
 Alpha virt. eigenvalues --    0.03338   0.04826   0.05114   0.06125   0.06235
 Alpha virt. eigenvalues --    0.06871   0.07463   0.07839   0.08614   0.09789
 Alpha virt. eigenvalues --    0.10603   0.10748   0.12431   0.12756   0.13425

 Mulliken charges:
               1
     1  C    2.610753
     2  C   -3.251313
     3  C   -2.189018
     4  C   -3.251365
     5  C   -2.188997
     6  C    4.214822
     7  F    0.594971
     8  H    1.691923
     9  H    1.820998
    10  H    1.691924
    11  H    1.821004
    12  O   -4.726551
    13  Si   6.334991
    14  H   -1.732234
    15  H   -1.720955
    16  H   -1.720955
 Sum of Mulliken charges =  -0.00000

 Dipole moment (field-independent basis, Debye):
    X=              1.9128    Y=             -0.0000    Z=              0.1267  Tot=              1.9169

 Test job not archived.
 1\1\GINC-SE179\SP\RHF\Aug-CC-pVDZ\C6H7F1O1Si1\OHZDE\09-Apr-2025\0\\#t
 hf aug-cc-pvdz iop(5/13=1,5/36=2,99/5=2) pseudo=read geom=check guess=
 (read,tcheck) scf=(maxcycle=1)\\title\\0,1\C,0,2.246316,-0.000002,0.10
 9016\C,0,1.583756,1.211656,-0.013244\C,0,0.213811,1.209262,-0.261901\C
 ,0,1.58375,-1.211657,-0.013251\C,0,0.213804,-1.209254,-0.261908\C,0,-0
 .471521,0.000006,-0.383768\F,0,3.578064,-0.000006,0.349996\H,0,2.13810
 2,2.136792,0.082821\H,0,-0.32833,2.140292,-0.373076\H,0,2.138091,-2.13
 6796,0.08281\H,0,-0.32834,-2.140281,-0.373088\O,0,-1.817547,0.000011,-

 Normal termination of Gaussian 16 at Wed Apr  9 00:04:55 2025.
