 Gaussian 16, Revision C.01,

 ----------------------------------------------------------------------
 #t hf aug-cc-pvdz symm=none int=(grid=ultrafine) guess=(read,tcheck) s
 table=(opt,rrhf)
 ----------------------------------------------------------------------
 -----
 title
 -----
 Symbolic Z-matrix:
 Charge =  0 Multiplicity = 1

 SCF Done:  E(RHF) =  -750.226076067     A.U. after   10 cycles
 Normal termination of Gaussian 16 at Tue Apr  8 22:59:35 2025.
 Gaussian 16:  ES64L-G16RevC.01  3-Jul-2019

 ----------------------------------------------------------------------
 #t hf aug-cc-pvdz iop(5/13=1,5/36=2,99/5=2) pseudo=read geom=check gue
 ss=(read,tcheck) scf=(maxcycle=1)
 ----------------------------------------------------------------------
 -----
 title
 -----
 Structure from the checkpoint file:  "BDE49_expt_1943_mol1.chk"
 Charge =  0 Multiplicity = 1

                         Standard orientation:
 ---------------------------------------------------------------------
 Center     Atomic      Atomic             Coordinates (Angstroms)
 Number     Number       Type             X           Y           Z
 ---------------------------------------------------------------------
      1         14           0       -1.000100    0.000007   -0.000001
      2         17           0        1.081033   -0.000005    0.000003
      3          1           0       -1.458794   -0.548431    1.289718
      4          1           0       -1.458725   -0.842778   -1.119805
      5          1           0       -1.458641    1.391193   -0.169944
 ---------------------------------------------------------------------

 SCF Done:  E(RHF) =  -750.637236638     A.U. after    2 cycles

 The electronic state is 1-A.
 Alpha  occ. eigenvalues --  -99.88517 -76.26979 -10.45937  -9.65796  -9.65095
 Alpha  occ. eigenvalues --   -9.65095  -5.60306  -2.22517  -2.22035  -2.22034
 Alpha  occ. eigenvalues --   -1.28927  -0.80003  -0.55570  -0.55337  -0.55337
 Alpha  occ. eigenvalues --   -0.47555  -0.47555
 Alpha virt. eigenvalues --    0.03746   0.04973   0.06112   0.06112   0.09626
 Alpha virt. eigenvalues --    0.09626   0.11685   0.13375   0.14920   0.15157
 Alpha virt. eigenvalues --    0.15157   0.17704   0.17704   0.20141   0.20141

 Mulliken charges:
               1
     1  Si   5.734503
     2  Cl  -0.838252
     3  H   -1.632081
     4  H   -1.632078
     5  H   -1.632092
 Sum of Mulliken charges =   0.00000

 Dipole moment (field-independent basis, Debye):
    X=             -1.5034    Y=              0.0001    Z=              0.0000  Tot=              1.5034

 Test job not archived.
 1\1\GINC-SE082\SP\RHF\Aug-CC-pVDZ\Cl1H3Si1\OHZDE\08-Apr-2025\0\\#t hf
 aug-cc-pvdz iop(5/13=1,5/36=2,99/5=2) pseudo=read geom=check guess=(re
 ad,tcheck) scf=(maxcycle=1)\\title\\0,1\Si,0,1.0001,-0.000007,-0.00000
 1\Cl,0,-1.081033,0.000005,0.000003\H,0,1.458795,0.549328,1.289336\H,0,
 1.458725,0.841999,-1.120391\H,0,1.458641,-1.391311,-0.168977\\Version=
 ES64L-G16RevC.01\State=1-A\HF=-750.6372366\RMSD=1.014e-01\Dipole=0.591
 4986,-0.0000404,0.0000135\Quadrupole=1.1214999,-0.5607756,-0.5607243,-
 0.0001698,-0.0000028,0.0000128\PG=C01 [X(Cl1H3Si1)]\\@

 Normal termination of Gaussian 16 at Tue Apr  8 22:59:37 2025.
