 Gaussian 16, Revision C.01,

 ----------------------------------------------------------------------
 #t hf aug-cc-pvdz symm=none int=(grid=ultrafine) guess=(read,tcheck) s
 table=(opt,rrhf)
 ----------------------------------------------------------------------
 -----
 title
 -----
 Symbolic Z-matrix:
 Charge =  0 Multiplicity = 1

 SCF Done:  E(RHF) =  -338.250266472     A.U. after   12 cycles
 Normal termination of Gaussian 16 at Wed Apr  9 00:34:47 2025.
 Gaussian 16:  ES64L-G16RevC.01  3-Jul-2019

 ----------------------------------------------------------------------
 #t hf aug-cc-pvdz iop(5/13=1,5/36=2,99/5=2) pseudo=read geom=check gue
 ss=(read,tcheck) scf=(maxcycle=1)
 ----------------------------------------------------------------------
 -----
 title
 -----
 Structure from the checkpoint file:  "BDE49_nonexpt_439_mol1.chk"
 Charge =  0 Multiplicity = 1

                         Standard orientation:
 ---------------------------------------------------------------------
 Center     Atomic      Atomic             Coordinates (Angstroms)
 Number     Number       Type             X           Y           Z
 ---------------------------------------------------------------------
      1          5           0       -0.530652   -0.025537   -0.000003
      2          9           0       -1.670640   -0.704698    0.000006
      3          9           0       -0.603139    1.308317   -0.000008
      4          8           0        0.630390   -0.690438    0.000003
      5          6           0        1.898676   -0.027174    0.000001
      6          1           0        2.449459   -0.338142    0.888891
      7          1           0        1.783176    1.057964   -0.000011
      8          1           0        2.449464   -0.338161   -0.888880
 ---------------------------------------------------------------------

 SCF Done:  E(RHF) =  -339.533089227     A.U. after    2 cycles

 The electronic state is 1-A.
 Alpha  occ. eigenvalues --  -29.25909 -29.25033 -21.05070 -11.42854  -7.71743
 Alpha  occ. eigenvalues --   -1.82389  -1.12342  -0.97269  -0.77709  -0.65903
 Alpha  occ. eigenvalues --   -0.63920  -0.60426  -0.53305  -0.52434  -0.45057
 Alpha  occ. eigenvalues --   -0.42159  -0.34917  -0.33963  -0.29428  -0.26235
 Alpha virt. eigenvalues --    0.00485   0.03087   0.04223   0.05727   0.06779
 Alpha virt. eigenvalues --    0.06824   0.07954   0.12068   0.14493   0.14812
 Alpha virt. eigenvalues --    0.15858   0.15876   0.21022   0.22614   0.23179

 Mulliken charges:
               1
     1  B    2.600347
     2  F    0.174333
     3  F   -1.100809
     4  O   -3.541130
     5  C   -2.362778
     6  H    1.235356
     7  H    1.759325
     8  H    1.235356
 Sum of Mulliken charges =   0.00000

 Dipole moment (field-independent basis, Debye):
    X=             -0.9621    Y=              1.8630    Z=             -0.0000  Tot=              2.0968

 Test job not archived.
 1\1\GINC-SE049\SP\RHF\Aug-CC-pVDZ\C1H3B1F2O1\OHZDE\09-Apr-2025\0\\#t h
 f aug-cc-pvdz iop(5/13=1,5/36=2,99/5=2) pseudo=read geom=check guess=(
 read,tcheck) scf=(maxcycle=1)\\title\\0,1\B,0,-0.530652,-0.025537,-0.0
 00003\F,0,-1.67064,-0.704699,0.000006\F,0,-0.603139,1.308317,-0.000008
 \O,0,0.63039,-0.690438,0.000003\C,0,1.898676,-0.027173,0.000001\H,0,2.
 449459,-0.338141,0.888891\H,0,1.783176,1.057964,-0.000011\H,0,2.449464
 ,-0.33816,-0.88888\\Version=ES64L-G16RevC.01\State=1-A\HF=-339.5330892
 \RMSD=2.491e-01\Dipole=-0.3785307,0.732952,-0.0000025\Quadrupole=2.006

 Normal termination of Gaussian 16 at Wed Apr  9 00:34:49 2025.
