 Gaussian 16, Revision C.01,

 ----------------------------------------------------------------------
 #t hf aug-cc-pvdz symm=none int=(grid=ultrafine) guess=(read,tcheck) s
 table=(opt,rrhf)
 ----------------------------------------------------------------------
 -----
 title
 -----
 Symbolic Z-matrix:
 Charge =  0 Multiplicity = 1

 SCF Done:  E(RHF) =  -2166.15857424     A.U. after   12 cycles
 Normal termination of Gaussian 16 at Tue Apr  8 23:50:23 2025.
 Gaussian 16:  ES64L-G16RevC.01  3-Jul-2019

 ----------------------------------------------------------------------
 #t hf aug-cc-pvdz iop(5/13=1,5/36=2,99/5=2) pseudo=read geom=check gue
 ss=(read,tcheck) scf=(maxcycle=1)
 ----------------------------------------------------------------------
 -----
 title
 -----
 Structure from the checkpoint file:  "BDE49_nonexpt_1847_mol1.chk"
 Charge =  0 Multiplicity = 1

                         Standard orientation:
 ---------------------------------------------------------------------
 Center     Atomic      Atomic             Coordinates (Angstroms)
 Number     Number       Type             X           Y           Z
 ---------------------------------------------------------------------
      1          6           0        1.062825   -0.000000    1.235349
      2         14           0       -0.385214    0.000000    0.048120
      3         17           0       -2.097485   -0.000001    1.192444
      4         17           0       -0.365934   -1.674164   -1.132315
      5         17           0        2.650768   -0.000000    0.376815
      6         17           0       -0.365935    1.674165   -1.132314
      7          1           0        1.025992   -0.887485    1.867750
      8          1           0        1.025992    0.887486    1.867749
 ---------------------------------------------------------------------

 SCF Done:  E(RHF) =  -2167.47566476     A.U. after    2 cycles

 The electronic state is 1-A.
 Alpha  occ. eigenvalues --  -99.91499 -99.91309 -99.91306 -99.90345 -76.35209
 Alpha  occ. eigenvalues --  -11.44344 -10.48982 -10.48842 -10.48753 -10.47542
 Alpha  occ. eigenvalues --   -9.68828  -9.68655  -9.68641  -9.68266  -9.68221
 Alpha  occ. eigenvalues --   -9.68104  -9.68012  -9.68011  -9.67877  -9.67357
 Alpha  occ. eigenvalues --   -9.66758  -9.66651  -5.69056  -2.31357  -2.30921
 Alpha  occ. eigenvalues --   -2.30808  -1.36095  -1.33198  -1.30868  -1.30833
 Alpha  occ. eigenvalues --   -1.03937  -0.79986  -0.67906  -0.65327  -0.62462
 Alpha  occ. eigenvalues --   -0.62154  -0.61122  -0.57177  -0.57061  -0.55135
 Alpha  occ. eigenvalues --   -0.54002  -0.53936  -0.52559  -0.50028  -0.45668
 Alpha virt. eigenvalues --    0.02039   0.05220   0.05444   0.05682   0.06762
 Alpha virt. eigenvalues --    0.06944   0.07736   0.09164   0.10525   0.10970
 Alpha virt. eigenvalues --    0.11098   0.12360   0.13192   0.13456   0.15166

 Mulliken charges:
               1
     1  C   -3.938627
     2  Si   3.320089
     3  Cl  -0.765880
     4  Cl  -0.732997
     5  Cl   0.026632
     6  Cl  -0.732997
     7  H    1.411889
     8  H    1.411890
 Sum of Mulliken charges =  -0.00000

 Dipole moment (field-independent basis, Debye):
    X=             -0.2955    Y=             -0.0000    Z=              1.6344  Tot=              1.6609

 Test job not archived.
 1\1\GINC-SE393\SP\RHF\Aug-CC-pVDZ\C1H2Cl4Si1\OHZDE\08-Apr-2025\0\\#t h
 f aug-cc-pvdz iop(5/13=1,5/36=2,99/5=2) pseudo=read geom=check guess=(
 read,tcheck) scf=(maxcycle=1)\\title\\0,1\C,0,1.062825,0.,1.235349\Si,
 0,-0.385214,0.,0.04812\Cl,0,-2.097485,-0.000001,1.192444\Cl,0,-0.36593
 4,-1.674164,-1.132315\Cl,0,2.650768,0.,0.376815\Cl,0,-0.365935,1.67416
 5,-1.132314\H,0,1.025992,-0.887485,1.86775\H,0,1.025992,0.887486,1.867
 749\\Version=ES64L-G16RevC.01\State=1-A\HF=-2167.4756648\RMSD=3.912e-0
 2\Dipole=-0.1162503,0.,0.6430104\Quadrupole=-2.8719877,0.513618,2.3583

 Normal termination of Gaussian 16 at Tue Apr  8 23:50:27 2025.
