 Gaussian 16, Revision C.01,

 ----------------------------------------------------------------------
 #t hf aug-cc-pvdz symm=none int=(grid=ultrafine) guess=(read,tcheck) s
 table=(opt,rrhf)
 ----------------------------------------------------------------------
 -----
 title
 -----
 Symbolic Z-matrix:
 Charge =  0 Multiplicity = 1

 SCF Done:  E(RHF) =  -591.545899552     A.U. after   12 cycles
 Normal termination of Gaussian 16 at Tue Apr  8 23:37:51 2025.
 Gaussian 16:  ES64L-G16RevC.01  3-Jul-2019

 ----------------------------------------------------------------------
 #t hf aug-cc-pvdz iop(5/13=1,5/36=2,99/5=2) pseudo=read geom=check gue
 ss=(read,tcheck) scf=(maxcycle=1)
 ----------------------------------------------------------------------
 -----
 title
 -----
 Structure from the checkpoint file:  "BDE49_nonexpt_1528_mol1.chk"
 Charge =  0 Multiplicity = 1

                         Standard orientation:
 ---------------------------------------------------------------------
 Center     Atomic      Atomic             Coordinates (Angstroms)
 Number     Number       Type             X           Y           Z
 ---------------------------------------------------------------------
      1          7           0        2.090508    0.162406    1.121019
      2          6           0       -0.045214   -0.052710   -0.649148
      3          6           0       -0.721080    1.188915   -0.041065
      4          6           0       -0.784352   -1.238453    0.019703
      5          6           0       -2.198343   -0.704864    0.394896
      6          1           0       -0.246011   -1.541048    0.922024
      7          1           0       -0.823571   -2.109101   -0.638312
      8          6           0       -2.206441    0.795241    0.006478
      9          1           0       -2.375395   -0.823502    1.467012
     10          1           0       -2.992003   -1.254110   -0.116838
     11          1           0       -2.789437    1.407171    0.699591
     12          1           0       -2.647675    0.925085   -0.987382
     13          1           0       -0.531486    2.099724   -0.615184
     14          1           0       -0.350795    1.349120    0.978179
     15         15           0        1.807837   -0.195762   -0.534259
     16          1           0       -0.248171   -0.063593   -1.729184
     17          1           0        2.080785    1.055022   -1.164394
     18          1           0        1.999346    1.112210    1.454869
     19          1           0        2.905880   -0.286170    1.511183
 ---------------------------------------------------------------------

 SCF Done:  E(RHF) =  -593.013876405     A.U. after    2 cycles

 The electronic state is 1-A.
 Alpha  occ. eigenvalues -- -105.17685 -15.73616 -11.45945 -11.42107 -11.37072
 Alpha  occ. eigenvalues --  -11.36744 -11.33340  -2.75499  -1.54107  -1.48194
 Alpha  occ. eigenvalues --   -1.43879  -1.29935  -1.16739  -1.03553  -1.01465
 Alpha  occ. eigenvalues --   -0.81674  -0.80566  -0.70433  -0.66123  -0.64430
 Alpha  occ. eigenvalues --   -0.60369  -0.57490  -0.54155  -0.45987  -0.44485
 Alpha  occ. eigenvalues --   -0.43825  -0.43538  -0.43120  -0.40719  -0.27591
 Alpha  occ. eigenvalues --   -0.20579  -0.00844
 Alpha virt. eigenvalues --    0.04559   0.05142   0.05713   0.05804   0.06029
 Alpha virt. eigenvalues --    0.06295   0.06383   0.06842   0.07283   0.08751
 Alpha virt. eigenvalues --    0.09293   0.09642   0.11376   0.11690   0.12933

 Mulliken charges:
               1
     1  N   -2.496838
     2  C   -0.825461
     3  C   -3.231188
     4  C   -3.859256
     5  C   -2.716018
     6  H    1.419782
     7  H    1.309293
     8  C   -3.078496
     9  H    1.330342
    10  H    1.373254
    11  H    1.204237
    12  H    1.302860
    13  H    1.399038
    14  H    1.629893
    15  P    3.557907
    16  H    1.492333
    17  H   -0.854993
    18  H    0.495937
    19  H    0.547374
 Sum of Mulliken charges =  -0.00000

 Dipole moment (field-independent basis, Debye):
    X=             -0.1215    Y=              1.0631    Z=              0.3231  Tot=              1.1178

 Test job not archived.
 1\1\GINC-SE339\SP\RHF\Aug-CC-pVDZ\C5H12N1P1\OHZDE\08-Apr-2025\0\\#t hf
  aug-cc-pvdz iop(5/13=1,5/36=2,99/5=2) pseudo=read geom=check guess=(r
 ead,tcheck) scf=(maxcycle=1)\\title\\0,1\N,0,2.090508,0.162406,1.12101
 9\C,0,-0.045214,-0.05271,-0.649148\C,0,-0.72108,1.188915,-0.041065\C,0
 ,-0.784352,-1.238453,0.019703\C,0,-2.198343,-0.704864,0.394896\H,0,-0.
 246011,-1.541048,0.922024\H,0,-0.823571,-2.109101,-0.638312\C,0,-2.206
 441,0.795241,0.006478\H,0,-2.375395,-0.823502,1.467012\H,0,-2.992003,-
 1.25411,-0.116838\H,0,-2.789437,1.407171,0.699591\H,0,-2.647675,0.9250

 Normal termination of Gaussian 16 at Tue Apr  8 23:37:59 2025.
