 Gaussian 16, Revision C.01,

 ----------------------------------------------------------------------
 #t hf aug-cc-pvdz symm=none int=(grid=ultrafine) guess=(read,tcheck) s
 table=(opt,rrhf)
 ----------------------------------------------------------------------
 -----
 title
 -----
 Symbolic Z-matrix:
 Charge =  0 Multiplicity = 1

 SCF Done:  E(RHF) =  -672.613327646     A.U. after   15 cycles
 Normal termination of Gaussian 16 at Wed Apr  9 00:06:48 2025.
 Gaussian 16:  ES64L-G16RevC.01  3-Jul-2019

 ----------------------------------------------------------------------
 #t hf aug-cc-pvdz iop(5/13=1,5/36=2,99/5=2) pseudo=read geom=check gue
 ss=(read,tcheck) scf=(maxcycle=1)
 ----------------------------------------------------------------------
 -----
 title
 -----
 Structure from the checkpoint file:  "BDE49_nonexpt_2202_mol1.chk"
 Charge =  0 Multiplicity = 1

                         Standard orientation:
 ---------------------------------------------------------------------
 Center     Atomic      Atomic             Coordinates (Angstroms)
 Number     Number       Type             X           Y           Z
 ---------------------------------------------------------------------
      1          6           0       -1.977198    1.870606    0.001610
      2          6           0       -2.129789    0.491074   -0.057211
      3          6           0       -1.029045   -0.377494   -0.068110
      4          6           0       -0.698047    2.420933    0.042145
      5          6           0        0.416009    1.588126    0.020163
      6          6           0        0.256462    0.202761   -0.035410
      7          1           0       -0.562778    3.495578    0.083560
      8          1           0        1.411950    2.016833    0.046668
      9          8           0        1.332184   -0.644660   -0.055603
     10         14           0        2.964358   -0.348467    0.037225
     11          1           0       -3.126419    0.069323   -0.114440
     12          1           0       -2.849565    2.513388    0.005545
     13          6           0       -1.168836   -1.840327   -0.125142
     14          6           0       -2.270334   -2.543346    0.151180
     15          1           0       -0.268097   -2.374148   -0.406957
     16          1           0       -3.195822   -2.081751    0.478062
     17          1           0       -2.273627   -3.623490    0.067595
     18          1           0        3.590992   -1.680710   -0.010331
     19          1           0        3.301067    0.345693    1.300669
     20          1           0        3.418481    0.481101   -1.102055
 ---------------------------------------------------------------------

 SCF Done:  E(RHF) =  -674.561789418     A.U. after    2 cycles

 The electronic state is 1-A.
 Alpha  occ. eigenvalues --  -76.24960 -21.07070 -11.53020 -11.46917 -11.44512
 Alpha  occ. eigenvalues --  -11.42362 -11.41331 -11.40788 -11.38796 -11.36744
 Alpha  occ. eigenvalues --   -5.58454  -2.25216  -2.20506  -2.19963  -1.74433
 Alpha  occ. eigenvalues --   -1.33453  -1.17845  -1.07977  -1.05236  -0.90069
 Alpha  occ. eigenvalues --   -0.86347  -0.79376  -0.76177  -0.69635  -0.64917
 Alpha  occ. eigenvalues --   -0.63103  -0.59957  -0.57227  -0.56180  -0.54067
 Alpha  occ. eigenvalues --   -0.50856  -0.49659  -0.49342  -0.45964  -0.44446
 Alpha  occ. eigenvalues --   -0.42827  -0.39924  -0.37534  -0.31176  -0.27420
 Alpha virt. eigenvalues --    0.03384   0.04360   0.04999   0.05778   0.06012
 Alpha virt. eigenvalues --    0.06072   0.06641   0.07079   0.07738   0.08569
 Alpha virt. eigenvalues --    0.08728   0.09561   0.09676   0.11194   0.11389

 Mulliken charges:
               1
     1  C   -4.114545
     2  C    0.269163
     3  C    2.011585
     4  C   -2.063264
     5  C   -5.303634
     6  C    7.031946
     7  H    1.481762
     8  H    1.980222
     9  O   -5.389340
    10  Si   6.293042
    11  H    1.862594
    12  H    1.498827
    13  C   -0.578917
    14  C   -4.224535
    15  H    1.750396
    16  H    1.463877
    17  H    1.283445
    18  H   -1.839312
    19  H   -1.701890
    20  H   -1.711422
 Sum of Mulliken charges =   0.00000

 Dipole moment (field-independent basis, Debye):
    X=             -0.0741    Y=              0.1884    Z=             -0.0009  Tot=              0.2024

 Test job not archived.
 1\1\GINC-SE393\SP\RHF\Aug-CC-pVDZ\C8H10O1Si1\OHZDE\09-Apr-2025\0\\#t h
 f aug-cc-pvdz iop(5/13=1,5/36=2,99/5=2) pseudo=read geom=check guess=(
 read,tcheck) scf=(maxcycle=1)\\title\\0,1\C,0,-1.977198,1.870606,0.001
 61\C,0,-2.129789,0.491074,-0.057211\C,0,-1.029045,-0.377494,-0.06811\C
 ,0,-0.698047,2.420933,0.042145\C,0,0.416009,1.588126,0.020163\C,0,0.25
 6462,0.202761,-0.03541\H,0,-0.562778,3.495578,0.08356\H,0,1.41195,2.01
 6833,0.046668\O,0,1.332184,-0.64466,-0.055603\Si,0,2.964358,-0.348467,
 0.037225\H,0,-3.126419,0.069323,-0.11444\H,0,-2.849565,2.513388,0.0055

 Normal termination of Gaussian 16 at Wed Apr  9 00:07:00 2025.
