 Gaussian 16, Revision C.01,

 ----------------------------------------------------------------------
 #t hf aug-cc-pvdz symm=none int=(grid=ultrafine) guess=(read,tcheck) s
 table=(opt,rrhf)
 ----------------------------------------------------------------------
 -----
 title
 -----
 Symbolic Z-matrix:
 Charge =  0 Multiplicity = 1

 SCF Done:  E(RHF) =  -2814.46926944     A.U. after   13 cycles
 Normal termination of Gaussian 16 at Tue Apr  8 23:32:53 2025.
 Gaussian 16:  ES64L-G16RevC.01  3-Jul-2019

 ----------------------------------------------------------------------
 #t hf aug-cc-pvdz iop(5/13=1,5/36=2,99/5=2) pseudo=read geom=check gue
 ss=(read,tcheck) scf=(maxcycle=1)
 ----------------------------------------------------------------------
 -----
 title
 -----
 Structure from the checkpoint file:  "BDE49_nonexpt_1370_mol1.chk"
 Charge =  0 Multiplicity = 1

                         Standard orientation:
 ---------------------------------------------------------------------
 Center     Atomic      Atomic             Coordinates (Angstroms)
 Number     Number       Type             X           Y           Z
 ---------------------------------------------------------------------
      1         17           0       -0.861614   -1.830895    1.355436
      2         15           0       -1.738200   -0.146056   -1.157953
      3          6           0       -0.721935   -1.534426   -0.418093
      4          9           0       -3.071129   -0.258154   -0.253258
      5         15           0        0.995593   -1.432291   -1.158118
      6          6           0       -0.967918    1.392440   -0.418030
      7          6           0        1.689864    0.142020   -0.418408
      8          9           0        1.759468   -2.530361   -0.253456
      9         17           0       -1.155075    1.661454    1.355511
     10         15           0        0.742587    1.578442   -1.158006
     11         17           0        2.016342    0.169298    1.355116
     12          9           0        1.312357    2.788601   -0.253273
     13          1           0       -1.143977   -2.431302   -0.881524
     14          1           0       -1.533725    2.206319   -0.881435
     15          1           0        2.677581    0.225034   -0.881884
 ---------------------------------------------------------------------

 SCF Done:  E(RHF) =  -2817.35202074     A.U. after    2 cycles

 The electronic state is 1-A.
 Alpha  occ. eigenvalues -- -105.28402-105.28402-105.27730 -99.90213 -99.90212
 Alpha  occ. eigenvalues --  -99.90209 -29.30339 -29.30334 -29.30334 -11.46765
 Alpha  occ. eigenvalues --  -11.46765 -11.46163 -10.47457 -10.47457 -10.47367
 Alpha  occ. eigenvalues --   -9.67351  -9.67311  -9.67310  -9.66747  -9.66747
 Alpha  occ. eigenvalues --   -9.66737  -9.66618  -9.66600  -9.66599  -2.87647
 Alpha  occ. eigenvalues --   -2.86787  -2.86787  -1.63524  -1.62445  -1.62442
 Alpha  occ. eigenvalues --   -1.59004  -1.59001  -1.56017  -1.55419  -1.53324
 Alpha  occ. eigenvalues --   -1.53324  -1.32800  -1.32799  -1.32707  -1.06906
 Alpha  occ. eigenvalues --   -0.97782  -0.97782  -0.81143  -0.81141  -0.79658
 Alpha  occ. eigenvalues --   -0.66839  -0.64585  -0.64583  -0.57601  -0.56344
 Alpha  occ. eigenvalues --   -0.56343  -0.55378  -0.54602  -0.54601  -0.52237
 Alpha  occ. eigenvalues --   -0.48848  -0.48848  -0.38570  -0.38569  -0.37061
 Alpha  occ. eigenvalues --   -0.35595  -0.34571  -0.34571  -0.33512  -0.33511
 Alpha  occ. eigenvalues --   -0.27717  -0.22150  -0.21062  -0.21061  -0.08891
 Alpha  occ. eigenvalues --   -0.02205  -0.02204
 Alpha virt. eigenvalues --    0.03693   0.05589   0.05590   0.05745   0.06485
 Alpha virt. eigenvalues --    0.06485   0.08601   0.09629   0.09630   0.10127
 Alpha virt. eigenvalues --    0.11178   0.11178   0.11258   0.12548   0.13269

 Mulliken charges:
               1
     1  Cl  -0.549838
     2  P    4.352764
     3  C   -4.625790
     4  F   -0.467668
     5  P    4.352647
     6  C   -4.625803
     7  C   -4.626122
     8  F   -0.467643
     9  Cl  -0.549823
    10  P    4.352640
    11  Cl  -0.549744
    12  F   -0.467627
    13  H    1.290679
    14  H    1.290715
    15  H    1.290613
 Sum of Mulliken charges =   0.00000

 Dipole moment (field-independent basis, Debye):
    X=              0.0007    Y=              0.0003    Z=             -8.3406  Tot=              8.3406

 Test job not archived.
 1\1\GINC-SE334\SP\RHF\Aug-CC-pVDZ\C3H3Cl3F3P3\OHZDE\08-Apr-2025\0\\#t
 hf aug-cc-pvdz iop(5/13=1,5/36=2,99/5=2) pseudo=read geom=check guess=
 (read,tcheck) scf=(maxcycle=1)\\title\\0,1\Cl,0,-0.862146,-1.830645,1.
 355436\P,0,-1.738242,-0.145551,-1.157953\C,0,-0.72238,-1.534216,-0.418
 093\F,0,-3.071204,-0.257262,-0.253258\P,0,0.995177,-1.43258,-1.158118\
 C,0,-0.967513,1.392721,-0.41803\C,0,1.689905,0.141529,-0.418408\F,0,1.
 758733,-2.530872,-0.253456\Cl,0,-1.154592,1.661789,1.355511\P,0,0.7430
 45,1.578226,-1.158006\Cl,0,2.016391,0.168712,1.355116\F,0,1.313167,2.7

 Normal termination of Gaussian 16 at Tue Apr  8 23:33:05 2025.
