 Gaussian 16, Revision C.01,

 ----------------------------------------------------------------------
 #t hf aug-cc-pvdz symm=none int=(grid=ultrafine) guess=(read,tcheck) s
 table=(opt,rrhf)
 ----------------------------------------------------------------------
 -----
 title
 -----
 Symbolic Z-matrix:
 Charge =  0 Multiplicity = 1

 SCF Done:  E(RHF) =  -552.566298852     A.U. after   12 cycles
 Normal termination of Gaussian 16 at Wed Apr  9 00:20:35 2025.
 Gaussian 16:  ES64L-G16RevC.01  3-Jul-2019

 ----------------------------------------------------------------------
 #t hf aug-cc-pvdz iop(5/13=1,5/36=2,99/5=2) pseudo=read geom=check gue
 ss=(read,tcheck) scf=(maxcycle=1)
 ----------------------------------------------------------------------
 -----
 title
 -----
 Structure from the checkpoint file:  "BDE49_nonexpt_2619_mol1.chk"
 Charge =  0 Multiplicity = 1

                         Standard orientation:
 ---------------------------------------------------------------------
 Center     Atomic      Atomic             Coordinates (Angstroms)
 Number     Number       Type             X           Y           Z
 ---------------------------------------------------------------------
      1          9           0        1.339373    0.519256   -0.000001
      2          7           0       -1.310394    0.372982    0.000017
      3         16           0        0.018236   -0.560608   -0.000007
      4          1           0       -1.586677    0.842766   -0.852926
      5          1           0       -1.586699    0.842792    0.852937
 ---------------------------------------------------------------------

 SCF Done:  E(RHF) =  -553.394605240     A.U. after    2 cycles

 The electronic state is 1-A.
 Alpha  occ. eigenvalues --  -75.77190 -29.24371 -15.80202 -13.24386 -13.15215
 Alpha  occ. eigenvalues --  -13.08619  -8.11143  -1.41442  -1.08033  -0.71666
 Alpha  occ. eigenvalues --   -0.70978  -0.52806  -0.45301  -0.38787  -0.30032
 Alpha  occ. eigenvalues --   -0.28388  -0.17196
 Alpha virt. eigenvalues --    0.03099   0.04975   0.07907   0.11534   0.14409
 Alpha virt. eigenvalues --    0.15107   0.17560   0.18020   0.21108   0.22991
 Alpha virt. eigenvalues --    0.24557   0.27804   0.28459   0.29367   0.30497

 Mulliken charges:
               1
     1  F   -0.113371
     2  N   -2.464423
     3  S    1.355001
     4  H    0.611398
     5  H    0.611396
 Sum of Mulliken charges =  -0.00000

 Dipole moment (field-independent basis, Debye):
    X=              1.2532    Y=              1.8235    Z=             -0.0000  Tot=              2.2126

 Test job not archived.
 1\1\GINC-SE460\SP\RHF\Aug-CC-pVDZ\F1H2N1S1\OHZDE\09-Apr-2025\0\\#t hf
 aug-cc-pvdz iop(5/13=1,5/36=2,99/5=2) pseudo=read geom=check guess=(re
 ad,tcheck) scf=(maxcycle=1)\\title\\0,1\F,0,1.339373,-0.519256,0.00000
 1\N,0,-1.310394,-0.372982,-0.000017\S,0,0.018236,0.560608,0.000007\H,0
 ,-1.586677,-0.842766,0.852926\H,0,-1.586699,-0.842792,-0.852937\\Versi
 on=ES64L-G16RevC.01\State=1-A\HF=-553.3946052\RMSD=4.056e-02\Dipole=0.
 4930528,-0.7174098,0.0000098\Quadrupole=0.9990817,-0.0708399,-0.928241
 8,1.6279964,0.0000542,0.0000929\PG=C01 [X(F1H2N1S1)]\\@

 Normal termination of Gaussian 16 at Wed Apr  9 00:20:36 2025.
