 Gaussian 16, Revision C.01,

 ----------------------------------------------------------------------
 #t hf aug-cc-pvdz symm=none int=(grid=ultrafine) guess=(read,tcheck) s
 table=(opt,rrhf)
 ----------------------------------------------------------------------
 -----
 title
 -----
 Symbolic Z-matrix:
 Charge =  0 Multiplicity = 1

 SCF Done:  E(RHF) =  -1209.20800113     A.U. after   10 cycles
 Normal termination of Gaussian 16 at Tue Apr  8 23:48:13 2025.
 Gaussian 16:  ES64L-G16RevC.01  3-Jul-2019

 ----------------------------------------------------------------------
 #t hf aug-cc-pvdz iop(5/13=1,5/36=2,99/5=2) pseudo=read geom=check gue
 ss=(read,tcheck) scf=(maxcycle=1)
 ----------------------------------------------------------------------
 -----
 title
 -----
 Structure from the checkpoint file:  "BDE49_nonexpt_1809_mol1.chk"
 Charge =  0 Multiplicity = 1

                         Standard orientation:
 ---------------------------------------------------------------------
 Center     Atomic      Atomic             Coordinates (Angstroms)
 Number     Number       Type             X           Y           Z
 ---------------------------------------------------------------------
      1         14           0       -0.000000   -0.000000    0.769881
      2         17           0        0.000000    1.694006   -0.409727
      3         17           0       -0.000000   -1.694006   -0.409727
      4          1           0       -1.227147    0.000000    1.576186
      5          1           0        1.227147   -0.000000    1.576186
 ---------------------------------------------------------------------

 SCF Done:  E(RHF) =  -1209.85180388     A.U. after    2 cycles

 The electronic state is 1-A1.
 Alpha  occ. eigenvalues --  -99.90027 -99.90024 -76.31326 -10.47508 -10.47480
 Alpha  occ. eigenvalues --   -9.67341  -9.67331  -9.66694  -9.66641  -9.66635
 Alpha  occ. eigenvalues --   -9.66605  -5.64760  -2.26991  -2.26297  -2.26122
 Alpha  occ. eigenvalues --   -1.32067  -1.29217  -0.81081  -0.59689  -0.59407
 Alpha  occ. eigenvalues --   -0.58834  -0.54353  -0.52818  -0.52456  -0.48319
 Alpha virt. eigenvalues --    0.04131   0.05042   0.05124   0.05821   0.09840
 Alpha virt. eigenvalues --    0.10024   0.10561   0.12468   0.12730   0.13280
 Alpha virt. eigenvalues --    0.14383   0.14979   0.15446   0.18342   0.19272

 Mulliken charges:
               1
     1  Si   5.135724
     2  Cl  -0.789326
     3  Cl  -0.789326
     4  H   -1.778536
     5  H   -1.778536
 Sum of Mulliken charges =  -0.00000

 Dipole moment (field-independent basis, Debye):
    X=              0.0000    Y=              0.0000    Z=              1.3310  Tot=              1.3310

 Test job not archived.
 1\1\GINC-SE070\SP\RHF\Aug-CC-pVDZ\Cl2H2Si1\OHZDE\08-Apr-2025\0\\#t hf
 aug-cc-pvdz iop(5/13=1,5/36=2,99/5=2) pseudo=read geom=check guess=(re
 ad,tcheck) scf=(maxcycle=1)\\title\\0,1\Si,0,0.,0.,0.769881\Cl,0,0.,1.
 694006,-0.409727\Cl,0,0.,-1.694006,-0.409727\H,0,-1.227147,0.,1.576186
 \H,0,1.227147,0.,1.576186\\Version=ES64L-G16RevC.01\State=1-A1\HF=-120
 9.8518039\RMSD=7.980e-02\Dipole=0.,0.,0.5236398\Quadrupole=-0.5482536,
 -0.6439749,1.1922285,0.,0.,0.\PG=C02V [C2(Si1),SGV(Cl2),SGV'(H2)]\\@

 Normal termination of Gaussian 16 at Tue Apr  8 23:48:15 2025.
