 Gaussian 16, Revision C.01,

 ----------------------------------------------------------------------
 #t hf aug-cc-pvdz symm=none int=(grid=ultrafine) guess=(read,tcheck) s
 table=(opt,rrhf)
 ----------------------------------------------------------------------
 -----
 title
 -----
 Symbolic Z-matrix:
 Charge =  0 Multiplicity = 1

 SCF Done:  E(RHF) =  -918.340249508     A.U. after   15 cycles
 Normal termination of Gaussian 16 at Wed Apr  9 00:16:16 2025.
 Gaussian 16:  ES64L-G16RevC.01  3-Jul-2019

 ----------------------------------------------------------------------
 #t hf aug-cc-pvdz iop(5/13=1,5/36=2,99/5=2) pseudo=read geom=check gue
 ss=(read,tcheck) scf=(maxcycle=1)
 ----------------------------------------------------------------------
 -----
 title
 -----
 Structure from the checkpoint file:  "BDE49_nonexpt_2509_mol1.chk"
 Charge =  0 Multiplicity = 1

                         Standard orientation:
 ---------------------------------------------------------------------
 Center     Atomic      Atomic             Coordinates (Angstroms)
 Number     Number       Type             X           Y           Z
 ---------------------------------------------------------------------
      1          6           0        2.939386    0.976486    0.000001
      2         16           0        2.209782   -0.715836    0.000001
      3          1           0        2.649580    1.525318   -0.894565
      4          1           0        2.649579    1.525318    0.894566
      5         14           0        0.135842   -0.249640    0.000000
      6          6           0       -0.560991    1.372955   -0.000001
      7          6           0       -1.959764    1.439494   -0.000001
      8          6           0       -1.137214   -1.473593    0.000000
      9          6           0       -2.449206   -0.993536   -0.000001
     10          6           0       -2.839387    0.352448   -0.000001
     11          1           0       -3.902142    0.566430   -0.000002
     12          1           0       -2.410969    2.430070   -0.000002
     13          1           0        0.001384    2.299005   -0.000001
     14          1           0       -0.971977   -2.544542    0.000001
     15          1           0       -3.249876   -1.730885    0.000000
     16          1           0        4.019171    0.832108    0.000001
 ---------------------------------------------------------------------

 SCF Done:  E(RHF) =  -919.846917601     A.U. after    2 cycles

 The electronic state is 1-A.
 Alpha  occ. eigenvalues --  -76.22449 -75.69511 -13.12412 -13.09563 -13.03406
 Alpha  occ. eigenvalues --  -11.46866 -11.42757 -11.41809 -11.38986 -11.38538
 Alpha  occ. eigenvalues --  -11.35658  -8.03593  -5.57171  -2.23009  -2.22046
 Alpha  occ. eigenvalues --   -2.15524  -1.26678  -1.19234  -1.09301  -0.98673
 Alpha  occ. eigenvalues --   -0.94840  -0.82450  -0.75326  -0.68773  -0.61684
 Alpha  occ. eigenvalues --   -0.60372  -0.58985  -0.58201  -0.52187  -0.49098
 Alpha  occ. eigenvalues --   -0.46711  -0.44901  -0.38715  -0.34742  -0.34064
 Alpha  occ. eigenvalues --   -0.30830  -0.23508
 Alpha virt. eigenvalues --    0.02325   0.03582   0.04819   0.05939   0.06034
 Alpha virt. eigenvalues --    0.06040   0.06593   0.07642   0.07956   0.08531
 Alpha virt. eigenvalues --    0.08808   0.09563   0.09765   0.11161   0.11985

 Mulliken charges:
               1
     1  C   -4.982479
     2  S   -1.118040
     3  H    1.548500
     4  H    1.548501
     5  Si   4.157299
     6  C   -3.673527
     7  C   -0.729252
     8  C   -3.759503
     9  C   -1.307084
    10  C   -0.096700
    11  H    1.494457
    12  H    1.437187
    13  H    1.395312
    14  H    1.292276
    15  H    1.453779
    16  H    1.339273
 Sum of Mulliken charges =   0.00000

 Dipole moment (field-independent basis, Debye):
    X=              3.2023    Y=             -0.5509    Z=              0.0000  Tot=              3.2493

 Test job not archived.
 1\1\GINC-SE361\SP\RHF\Aug-CC-pVDZ\C6H8S1Si1\OHZDE\09-Apr-2025\0\\#t hf
  aug-cc-pvdz iop(5/13=1,5/36=2,99/5=2) pseudo=read geom=check guess=(r
 ead,tcheck) scf=(maxcycle=1)\\title\\0,1\C,0,2.939386,0.976486,0.00000
 1\S,0,2.209782,-0.715836,0.000001\H,0,2.64958,1.525318,-0.894565\H,0,2
 .649579,1.525318,0.894566\Si,0,0.135842,-0.24964,0.\C,0,-0.560991,1.37
 2955,-0.000001\C,0,-1.959764,1.439494,-0.000001\C,0,-1.137214,-1.47359
 3,0.\C,0,-2.449206,-0.993536,-0.000001\C,0,-2.839387,0.352448,-0.00000
 1\H,0,-3.902142,0.56643,-0.000002\H,0,-2.410969,2.43007,-0.000002\H,0,

 Normal termination of Gaussian 16 at Wed Apr  9 00:16:22 2025.
