 Gaussian 16, Revision C.01,

 ----------------------------------------------------------------------
 #t hf aug-cc-pvdz symm=none int=(grid=ultrafine) guess=(read,tcheck) s
 table=(opt,rrhf)
 ----------------------------------------------------------------------
 -----
 title
 -----
 Symbolic Z-matrix:
 Charge =  0 Multiplicity = 1

 SCF Done:  E(RHF) =  -808.885510304     A.U. after   15 cycles
 Normal termination of Gaussian 16 at Tue Apr  8 23:30:20 2025.
 Gaussian 16:  ES64L-G16RevC.01  3-Jul-2019

 ----------------------------------------------------------------------
 #t hf aug-cc-pvdz iop(5/13=1,5/36=2,99/5=2) pseudo=read geom=check gue
 ss=(read,tcheck) scf=(maxcycle=1)
 ----------------------------------------------------------------------
 -----
 title
 -----
 Structure from the checkpoint file:  "BDE49_nonexpt_1317_mol1.chk"
 Charge =  0 Multiplicity = 1

                         Standard orientation:
 ---------------------------------------------------------------------
 Center     Atomic      Atomic             Coordinates (Angstroms)
 Number     Number       Type             X           Y           Z
 ---------------------------------------------------------------------
      1          6           0       -0.641456   -0.288344    0.458022
      2         15           0        1.945718   -0.203018   -0.558688
      3          9           0        1.909827    1.415663   -0.445256
      4          9           0        3.325884   -0.455542    0.260167
      5          6           0       -1.167829    1.006555    0.538256
      6          6           0       -1.460468   -1.315681   -0.023480
      7          6           0       -2.483266    1.262313    0.161542
      8          6           0       -3.291977    0.230154   -0.309967
      9          6           0       -2.775764   -1.060139   -0.402978
     10          1           0       -3.397492   -1.870148   -0.767460
     11          1           0       -1.068288   -2.325345   -0.092689
     12          1           0       -2.876659    2.269819    0.236695
     13          1           0       -4.316757    0.429859   -0.601431
     14          1           0       -0.542224    1.815657    0.898073
     15          6           0        0.792329   -0.559939    0.842450
     16          1           0        0.942544   -1.612977    1.100233
     17          1           0        1.122290    0.047801    1.689639
 ---------------------------------------------------------------------

 SCF Done:  E(RHF) =  -811.057931942     A.U. after    2 cycles

 The electronic state is 1-A.
 Alpha  occ. eigenvalues -- -105.28889 -29.28147 -29.28127 -11.52537 -11.44815
 Alpha  occ. eigenvalues --  -11.43869 -11.41710 -11.41255 -11.40714 -11.36941
 Alpha  occ. eigenvalues --   -2.88372  -1.61840  -1.59460  -1.56188  -1.35523
 Alpha  occ. eigenvalues --   -1.14900  -1.09924  -1.00633  -0.87267  -0.87237
 Alpha  occ. eigenvalues --   -0.82300  -0.71512  -0.65724  -0.63345  -0.58759
 Alpha  occ. eigenvalues --   -0.57984  -0.56204  -0.54090  -0.51955  -0.47092
 Alpha  occ. eigenvalues --   -0.45069  -0.44341  -0.39646  -0.36003  -0.34044
 Alpha  occ. eigenvalues --   -0.33574  -0.33214  -0.27701  -0.20744  -0.19362
 Alpha  occ. eigenvalues --   -0.00319
 Alpha virt. eigenvalues --    0.03745   0.04982   0.05025   0.05912   0.06495
 Alpha virt. eigenvalues --    0.07450   0.08058   0.08930   0.09461   0.11262
 Alpha virt. eigenvalues --    0.11325   0.11702   0.12375   0.13373   0.13698

 Mulliken charges:
               1
     1  C    5.950551
     2  P    3.813244
     3  F   -0.496976
     4  F   -0.394199
     5  C   -3.108675
     6  C   -4.111677
     7  C   -0.838253
     8  C   -3.600648
     9  C   -0.667834
    10  H    1.576222
    11  H    1.016153
    12  H    1.440459
    13  H    1.310523
    14  H    1.552614
    15  C   -5.651197
    16  H    1.220116
    17  H    0.989578
 Sum of Mulliken charges =   0.00000

 Dipole moment (field-independent basis, Debye):
    X=              6.2394    Y=              4.3102    Z=              2.0602  Tot=              7.8583

 Test job not archived.
 1\1\GINC-SE087\SP\RHF\Aug-CC-pVDZ\C7H7F2P1\OHZDE\08-Apr-2025\0\\#t hf
 aug-cc-pvdz iop(5/13=1,5/36=2,99/5=2) pseudo=read geom=check guess=(re
 ad,tcheck) scf=(maxcycle=1)\\title\\0,1\C,0,-0.641456,-0.288344,0.4580
 22\P,0,1.945718,-0.203018,-0.558688\F,0,1.909827,1.415663,-0.445256\F,
 0,3.325884,-0.455542,0.260167\C,0,-1.167829,1.006555,0.538256\C,0,-1.4
 60468,-1.315681,-0.02348\C,0,-2.483266,1.262313,0.161542\C,0,-3.291977
 ,0.230154,-0.309967\C,0,-2.775764,-1.060139,-0.402978\H,0,-3.397492,-1
 .870148,-0.76746\H,0,-1.068288,-2.325345,-0.092689\H,0,-2.876659,2.269

 Normal termination of Gaussian 16 at Tue Apr  8 23:30:30 2025.
