 Gaussian 16, Revision C.01,

 ----------------------------------------------------------------------
 #t hf aug-cc-pvdz symm=none int=(grid=ultrafine) guess=(read,tcheck) s
 table=(opt,rrhf)
 ----------------------------------------------------------------------
 -----
 title
 -----
 Symbolic Z-matrix:
 Charge =  0 Multiplicity = 1

 SCF Done:  E(RHF) =  -1204.13908671     A.U. after   20 cycles
 Normal termination of Gaussian 16 at Tue Apr  8 22:58:45 2025.
 Gaussian 16:  ES64L-G16RevC.01  3-Jul-2019

 ----------------------------------------------------------------------
 #t hf aug-cc-pvdz iop(5/13=1,5/36=2,99/5=2) pseudo=read geom=check gue
 ss=(read,tcheck) scf=(maxcycle=1)
 ----------------------------------------------------------------------
 -----
 title
 -----
 Structure from the checkpoint file:  "BDE49_expt_1756_mol1.chk"
 Charge =  0 Multiplicity = 1

                         Standard orientation:
 ---------------------------------------------------------------------
 Center     Atomic      Atomic             Coordinates (Angstroms)
 Number     Number       Type             X           Y           Z
 ---------------------------------------------------------------------
      1          6           0       -2.486610    1.531554    0.222505
      2          6           0       -1.392377    2.358138   -0.019715
      3          6           0       -0.167540    1.812170   -0.392804
      4          6           0       -2.333121    0.157091    0.084456
      5          6           0       -1.126691   -0.423336   -0.284907
      6          6           0       -0.050452    0.426297   -0.513522
      7          1           0       -1.496591    3.431555    0.077252
      8          1           0        0.688797    2.442722   -0.592502
      9          1           0       -1.045013   -1.494314   -0.403286
     10         16           0        1.516951   -0.276042   -1.006447
     11          8           0        1.300294   -1.637923   -1.413090
     12          8           0        2.204861    0.690388   -1.809152
     13          7           0        2.380988   -0.401176    0.479328
     14          7           0        2.808039    0.792483    0.988508
     15          8           0        3.349356    0.695733    2.062987
     16          6           0        2.512753   -1.648956    1.237995
     17          1           0        2.147631   -2.462258    0.618638
     18          1           0        1.946036   -1.582135    2.169361
     19          1           0        3.565321   -1.801824    1.478220
     20          7           0       -3.499209   -0.726588    0.334907
     21          8           0       -4.553478   -0.189980    0.639733
     22          8           0       -3.325001   -1.930328    0.222364
     23          1           0       -3.450156    1.929016    0.509482
 ---------------------------------------------------------------------

 SCF Done:  E(RHF) =  -1207.93829284     A.U. after    2 cycles

 The electronic state is 1-A.
 Alpha  occ. eigenvalues --  -75.94628 -21.12731 -21.11536 -21.11411 -21.08795
 Alpha  occ. eigenvalues --  -21.08584 -16.02192 -15.91952 -15.81184 -13.58692
 Alpha  occ. eigenvalues --  -13.48383 -13.45554 -11.58881 -11.51686 -11.50998
 Alpha  occ. eigenvalues --  -11.49421 -11.48248 -11.43959 -11.43517  -8.29783
 Alpha  occ. eigenvalues --   -2.01953  -1.90628  -1.87988  -1.71274  -1.69784
 Alpha  occ. eigenvalues --   -1.47908  -1.41423  -1.22004  -1.17844  -1.11539
 Alpha  occ. eigenvalues --   -1.05478  -1.03242  -0.93397  -0.88084  -0.82111
 Alpha  occ. eigenvalues --   -0.78046  -0.74488  -0.71567  -0.70005  -0.69758
 Alpha  occ. eigenvalues --   -0.67514  -0.66515  -0.66127  -0.63878  -0.60631
 Alpha  occ. eigenvalues --   -0.58349  -0.57037  -0.56433  -0.54197  -0.54045
 Alpha  occ. eigenvalues --   -0.52473  -0.47751  -0.44994  -0.43605  -0.42646
 Alpha  occ. eigenvalues --   -0.40357  -0.39626  -0.39173  -0.37226  -0.36531
 Alpha  occ. eigenvalues --   -0.33246  -0.33218  -0.31182
 Alpha virt. eigenvalues --    0.02303   0.04031   0.04715   0.05184   0.05250
 Alpha virt. eigenvalues --    0.06156   0.06507   0.06908   0.07479   0.09319
 Alpha virt. eigenvalues --    0.09525   0.10729   0.10892   0.10961   0.11403

 Mulliken charges:
               1
     1  C   -3.864291
     2  C    0.330628
     3  C   -4.335230
     4  C    3.299947
     5  C   -3.895115
     6  C    3.261300
     7  H    1.529955
     8  H    2.027961
     9  H    2.008899
    10  S    7.724977
    11  O   -3.037354
    12  O   -2.998877
    13  N   -1.302075
    14  N    0.755412
    15  O   -2.000239
    16  C   -3.385319
    17  H    1.565994
    18  H    1.507277
    19  H    1.426928
    20  N    3.626126
    21  O   -3.151934
    22  O   -2.963434
    23  H    1.868463
 Sum of Mulliken charges =   0.00000

 Dipole moment (field-independent basis, Debye):
    X=              0.1447    Y=              1.0409    Z=              1.2368  Tot=              1.6229

 Test job not archived.
 1\1\GINC-SE460\SP\RHF\Aug-CC-pVDZ\C7H7N3O5S1\OHZDE\08-Apr-2025\0\\#t h
 f aug-cc-pvdz iop(5/13=1,5/36=2,99/5=2) pseudo=read geom=check guess=(
 read,tcheck) scf=(maxcycle=1)\\title\\0,1\C,0,-2.48661,1.531554,0.2225
 05\C,0,-1.392377,2.358138,-0.019715\C,0,-0.16754,1.81217,-0.392804\C,0
 ,-2.333121,0.157091,0.084456\C,0,-1.126691,-0.423336,-0.284907\C,0,-0.
 050452,0.426297,-0.513522\H,0,-1.496591,3.431555,0.077252\H,0,0.688797
 ,2.442722,-0.592502\H,0,-1.045013,-1.494314,-0.403286\S,0,1.516951,-0.
 276042,-1.006447\O,0,1.300294,-1.637923,-1.41309\O,0,2.204861,0.690388

 Normal termination of Gaussian 16 at Tue Apr  8 22:59:08 2025.
