 Gaussian 16, Revision C.01,

 ----------------------------------------------------------------------
 #t hf aug-cc-pvdz symm=none int=(grid=ultrafine) guess=(read,tcheck) s
 table=opt
 ----------------------------------------------------------------------
 -----
 title
 -----
 Symbolic Z-matrix:
 Charge =  0 Multiplicity = 2

 SCF Done:  E(UHF) =  -200.892186112     A.U. after   14 cycles
 Normal termination of Gaussian 16 at Tue Apr  8 23:35:04 2025.
 Gaussian 16:  ES64L-G16RevC.01  3-Jul-2019

 ----------------------------------------------------------------------
 #t hf aug-cc-pvdz iop(5/13=1,5/36=2,99/5=2) pseudo=read geom=check gue
 ss=(read,tcheck) scf=(maxcycle=1)
 ----------------------------------------------------------------------
 -----
 title
 -----
 Structure from the checkpoint file:  "BDE49_nonexpt_146_mol2.chk"
 Charge =  0 Multiplicity = 2

                         Standard orientation:
 ---------------------------------------------------------------------
 Center     Atomic      Atomic             Coordinates (Angstroms)
 Number     Number       Type             X           Y           Z
 ---------------------------------------------------------------------
      1          5           0        1.730854   -0.000004   -0.091348
      2          5           0        0.087146   -0.000000   -0.002146
      3          8           0       -0.555732    1.216911    0.007659
      4          8           0       -0.555737   -1.216910    0.007659
      5          1           0       -1.517259    1.175606    0.013635
      6          1           0       -1.517263   -1.175601    0.013636
      7          1           0        2.836274   -0.000002    0.317657
 ---------------------------------------------------------------------

 SCF Done:  E(UHF) =  -201.692998300     A.U. after    2 cycles

 The electronic state is 2-A.
 Alpha  occ. eigenvalues --  -21.06483 -21.06446  -7.62830  -7.62129  -1.80843
 Alpha  occ. eigenvalues --   -1.65926  -0.86469  -0.69081  -0.66578  -0.54222
 Alpha  occ. eigenvalues --   -0.49609  -0.43924  -0.37263  -0.36793  -0.26842
 Alpha virt. eigenvalues --    0.02080   0.02747   0.04308   0.04461   0.07691
 Alpha virt. eigenvalues --    0.08083   0.09502   0.09823   0.10542   0.11252
 Alpha virt. eigenvalues --    0.12035   0.14447   0.19849   0.21011   0.22033

  Beta  occ. eigenvalues --  -21.06378 -21.06341  -7.62889  -7.60761  -1.80597
  Beta  occ. eigenvalues --   -1.65699  -0.82251  -0.66863  -0.66557  -0.54203
  Beta  occ. eigenvalues --   -0.48005  -0.42907  -0.37184  -0.36006
  Beta virt. eigenvalues --    0.02052   0.03165   0.03500   0.04397   0.07831
  Beta virt. eigenvalues --    0.07909   0.08859   0.10137   0.10565   0.11570
  Beta virt. eigenvalues --    0.12198   0.12203   0.15171   0.20417   0.22346

 Mulliken charges and spin densities:
               1          2
     1  B   -2.771912   0.909311
     2  B    7.672048   0.034182
     3  O   -3.284812   0.054109
     4  O   -3.284812   0.054109
     5  H    1.131282   0.002016
     6  H    1.131283   0.002016
     7  H   -0.593076  -0.055743
 Sum of Mulliken charges =  -0.00000   1.00000

 Dipole moment (field-independent basis, Debye):
    X=             -1.4353    Y=              0.0000    Z=              0.4044  Tot=              1.4912
                          Isotropic Fermi Contact Couplings
        Atom                 a.u.       MegaHertz       Gauss      10(-4) cm-1
     1  B(11)              0.07603     109.06142      38.91583      36.37897
     2  B(11)             -0.02143     -30.73471     -10.96691     -10.25199
     3  O(17)              0.00121      -0.73222      -0.26127      -0.24424
     4  O(17)              0.00121      -0.73219      -0.26126      -0.24423
     5  H(1)              -0.00092      -4.09507      -1.46122      -1.36597
     6  H(1)              -0.00092      -4.09508      -1.46123      -1.36597
     7  H(1)              -0.01465     -65.47027     -23.36142     -21.83853
 --------------------------------------------------------

 Normal termination of Gaussian 16 at Tue Apr  8 23:35:06 2025.
