 Gaussian 16, Revision C.01,

 ----------------------------------------------------------------------
 #t hf aug-cc-pvdz symm=none int=(grid=ultrafine) guess=(read,tcheck) s
 table=(opt,rrhf)
 ----------------------------------------------------------------------
 -----
 title
 -----
 Symbolic Z-matrix:
 Charge =  0 Multiplicity = 1

 SCF Done:  E(RHF) =  -1000.68828555     A.U. after   15 cycles
 Normal termination of Gaussian 16 at Wed Apr  9 00:03:04 2025.
 Gaussian 16:  ES64L-G16RevC.01  3-Jul-2019

 ----------------------------------------------------------------------
 #t hf aug-cc-pvdz iop(5/13=1,5/36=2,99/5=2) pseudo=read geom=check gue
 ss=(read,tcheck) scf=(maxcycle=1)
 ----------------------------------------------------------------------
 -----
 title
 -----
 Structure from the checkpoint file:  "BDE49_nonexpt_2156_mol1.chk"
 Charge =  0 Multiplicity = 1

                         Standard orientation:
 ---------------------------------------------------------------------
 Center     Atomic      Atomic             Coordinates (Angstroms)
 Number     Number       Type             X           Y           Z
 ---------------------------------------------------------------------
      1         14           0        0.000014    0.000021    0.423197
      2          7           0       -1.306409   -1.114999   -0.219915
      3          7           0       -0.312372    1.688824   -0.220188
      4          7           0        1.618720   -0.573903   -0.220240
      5          9           0        0.000092    0.000099    1.987815
      6          8           0        2.122503    0.017665   -1.159757
      7          8           0        0.322707    2.561124    0.359201
      8          8           0       -1.045987   -1.847784   -1.158869
      9          8           0       -1.077352    1.829727   -1.158990
     10          8           0       -2.379288   -1.001410    0.359675
     11          8           0        2.057344   -1.559402    0.359655
 ---------------------------------------------------------------------

 SCF Done:  E(RHF) =  -1003.69253942     A.U. after    2 cycles

 The electronic state is 1-A.
 Alpha  occ. eigenvalues --  -76.45142 -29.39592 -21.16942 -21.16906 -21.16905
 Alpha  occ. eigenvalues --  -21.16500 -21.16499 -21.16494 -16.04493 -16.04491
 Alpha  occ. eigenvalues --  -16.04491  -5.80139  -2.46188  -2.43386  -2.43385
 Alpha  occ. eigenvalues --   -2.04671  -2.04670  -2.04639  -1.75849  -1.75849
 Alpha  occ. eigenvalues --   -1.75630  -1.17565  -1.03965  -1.03965  -0.89158
 Alpha  occ. eigenvalues --   -0.78217  -0.77533  -0.77532  -0.72263  -0.72262
 Alpha  occ. eigenvalues --   -0.70938  -0.66965  -0.66965  -0.66583  -0.48204
 Alpha  occ. eigenvalues --   -0.48204  -0.47803  -0.41005  -0.39291  -0.39289
 Alpha  occ. eigenvalues --   -0.38455  -0.37787  -0.36376  -0.36375  -0.35834
 Alpha  occ. eigenvalues --   -0.35833
 Alpha virt. eigenvalues --    0.05622   0.05623   0.05828   0.07218   0.07254
 Alpha virt. eigenvalues --    0.07255   0.08777   0.13162   0.14198   0.14199
 Alpha virt. eigenvalues --    0.15107   0.15108   0.15440   0.17515   0.17516

 Mulliken charges:
               1
     1  Si   3.979646
     2  N    3.611501
     3  N    3.611856
     4  N    3.610865
     5  F   -1.133304
     6  O   -2.195100
     7  O   -2.365033
     8  O   -2.195159
     9  O   -2.195361
    10  O   -2.365090
    11  O   -2.364822
 Sum of Mulliken charges =   0.00000

 Dipole moment (field-independent basis, Debye):
    X=              0.0000    Y=              0.0004    Z=              3.5703  Tot=              3.5703

 Test job not archived.
 1\1\GINC-SE082\SP\RHF\Aug-CC-pVDZ\F1N3O6Si1\OHZDE\09-Apr-2025\0\\#t hf
  aug-cc-pvdz iop(5/13=1,5/36=2,99/5=2) pseudo=read geom=check guess=(r
 ead,tcheck) scf=(maxcycle=1)\\title\\0,1\Si,0,0.000014,0.000021,0.4231
 97\N,0,-1.311023,-1.10957,-0.219915\N,0,-0.305364,1.690105,-0.220188\N
 ,0,1.616325,-0.580613,-0.22024\F,0,0.000092,0.000099,1.987815\O,0,2.12
 2558,0.00886,-1.159757\O,0,0.333328,2.559763,0.359201\O,0,-1.053643,-1
 .843429,-1.158869\O,0,-1.069753,1.83418,-1.15899\O,0,-2.383422,-0.9915
 32,0.359675\O,0,2.050858,-1.567923,0.359655\\Version=ES64L-G16RevC.01\

 Normal termination of Gaussian 16 at Wed Apr  9 00:03:11 2025.
