 Gaussian 16, Revision C.01,

 ----------------------------------------------------------------------
 #t hf aug-cc-pvdz symm=none int=(grid=ultrafine) guess=(read,tcheck) s
 table=(opt,rrhf)
 ----------------------------------------------------------------------
 -----
 title
 -----
 Symbolic Z-matrix:
 Charge =  0 Multiplicity = 1

 SCF Done:  E(RHF) =  -217.148914947     A.U. after   12 cycles
 Normal termination of Gaussian 16 at Tue Apr  8 22:31:22 2025.
 Gaussian 16:  ES64L-G16RevC.01  3-Jul-2019

 ----------------------------------------------------------------------
 #t hf aug-cc-pvdz iop(5/13=1,5/36=2,99/5=2) pseudo=read geom=check gue
 ss=(read,tcheck) scf=(maxcycle=1)
 ----------------------------------------------------------------------
 -----
 title
 -----
 Structure from the checkpoint file:  "BDE49_expt_1025_mol1.chk"
 Charge =  0 Multiplicity = 1

                         Standard orientation:
 ---------------------------------------------------------------------
 Center     Atomic      Atomic             Coordinates (Angstroms)
 Number     Number       Type             X           Y           Z
 ---------------------------------------------------------------------
      1          6           0       -0.283082   -0.583114    1.275519
      2          1           0        0.576130   -1.258735    1.292090
      3          1           0       -1.196444   -1.179938    1.349402
      4          1           0       -0.225820    0.070479    2.148333
      5          6           0       -0.283082    0.239404   -0.000000
      6          6           0       -0.283082   -0.583114   -1.275519
      7          9           0        0.879402    1.039925   -0.000000
      8          1           0       -0.225820    0.070479   -2.148333
      9          1           0        0.576130   -1.258735   -1.292090
     10          1           0       -1.126871    0.938012   -0.000000
     11          1           0       -1.196444   -1.179938   -1.349402
 ---------------------------------------------------------------------

 SCF Done:  E(RHF) =  -218.106512005     A.U. after    2 cycles

 The electronic state is 1-A'.
 Alpha  occ. eigenvalues --  -29.23319 -11.46143 -11.39127 -11.36431  -1.26742
 Alpha  occ. eigenvalues --   -1.02372  -0.90842  -0.70061  -0.63961  -0.58964
 Alpha  occ. eigenvalues --   -0.54813  -0.52249  -0.49965  -0.48840  -0.34345
 Alpha  occ. eigenvalues --   -0.23932  -0.23477
 Alpha virt. eigenvalues --    0.04004   0.05628   0.05835   0.06057   0.06656
 Alpha virt. eigenvalues --    0.06716   0.07331   0.11200   0.13037   0.14283
 Alpha virt. eigenvalues --    0.14614   0.15477   0.16864   0.17299   0.18148

 Mulliken charges:
               1
     1  C   -3.783763
     2  H    1.261635
     3  H    1.235184
     4  H    1.190084
     5  C   -1.682844
     6  C   -3.783763
     7  F    0.257496
     8  H    1.190084
     9  H    1.261635
    10  H    1.619069
    11  H    1.235184
 Sum of Mulliken charges =  -0.00000

 Dipole moment (field-independent basis, Debye):
    X=              0.6297    Y=              0.6020    Z=              0.0000  Tot=              0.8712

 Test job not archived.
 1\1\GINC-SE072\SP\RHF\Aug-CC-pVDZ\C3H7F1\OHZDE\08-Apr-2025\0\\#t hf au
 g-cc-pvdz iop(5/13=1,5/36=2,99/5=2) pseudo=read geom=check guess=(read
 ,tcheck) scf=(maxcycle=1)\\title\\0,1\C,0,-0.283082,-0.583114,1.275519
 \H,0,0.57613,-1.258735,1.29209\H,0,-1.196444,-1.179938,1.349402\H,0,-0
 .22582,0.070479,2.148333\C,0,-0.283082,0.239404,0.\C,0,-0.283082,-0.58
 3114,-1.275519\F,0,0.879402,1.039925,0.\H,0,-0.22582,0.070479,-2.14833
 3\H,0,0.57613,-1.258735,-1.29209\H,0,-1.126871,0.938012,0.\H,0,-1.1964
 44,-1.179938,-1.349402\\Version=ES64L-G16RevC.01\State=1-A'\HF=-218.10

 Normal termination of Gaussian 16 at Tue Apr  8 22:31:24 2025.
