 Gaussian 16, Revision C.01,

 ----------------------------------------------------------------------
 #t hf aug-cc-pvdz symm=none int=(grid=ultrafine) guess=(read,tcheck) s
 table=(opt,rrhf)
 ----------------------------------------------------------------------
 -----
 title
 -----
 Symbolic Z-matrix:
 Charge =  0 Multiplicity = 1

 SCF Done:  E(RHF) =  -1018.85973173     A.U. after   15 cycles
 Normal termination of Gaussian 16 at Tue Apr  8 23:15:08 2025.
 Gaussian 16:  ES64L-G16RevC.01  3-Jul-2019

 ----------------------------------------------------------------------
 #t hf aug-cc-pvdz iop(5/13=1,5/36=2,99/5=2) pseudo=read geom=check gue
 ss=(read,tcheck) scf=(maxcycle=1)
 ----------------------------------------------------------------------
 -----
 title
 -----
 Structure from the checkpoint file:  "BDE49_expt_807_mol1.chk"
 Charge =  0 Multiplicity = 1

                         Standard orientation:
 ---------------------------------------------------------------------
 Center     Atomic      Atomic             Coordinates (Angstroms)
 Number     Number       Type             X           Y           Z
 ---------------------------------------------------------------------
      1         14           0       -1.328592    0.468412   -0.414893
      2          1           0       -1.549039    0.814066   -1.834823
      3         17           0       -2.398341   -1.306969   -0.071789
      4          6           0       -2.029385    1.771084    0.723824
      5          6           0        0.494471    0.165378   -0.151496
      6          1           0       -3.100563    1.900503    0.550643
      7          1           0       -1.531047    2.729331    0.548005
      8          1           0       -1.885159    1.499462    1.772684
      9          6           0        1.388159    0.276871   -1.227664
     10          6           0        2.756232    0.079603   -1.048342
     11          6           0        3.253414   -0.236024    0.213296
     12          6           0        2.380907   -0.354496    1.294881
     13          6           0        1.016090   -0.154876    1.112977
     14          1           0        0.351363   -0.258950    1.964919
     15          1           0        1.013630    0.517752   -2.217506
     16          1           0        3.431151    0.169221   -1.892287
     17          1           0        4.317124   -0.392060    0.354755
     18          1           0        2.765300   -0.603865    2.277666
 ---------------------------------------------------------------------

 SCF Done:  E(RHF) =  -1020.58395586     A.U. after    2 cycles

 The electronic state is 1-A.
 Alpha  occ. eigenvalues --  -99.86982 -76.24715 -11.51830 -11.43629 -11.43072
 Alpha  occ. eigenvalues --  -11.41234 -11.40854 -11.36704 -11.36011 -10.44336
 Alpha  occ. eigenvalues --   -9.64303  -9.63755  -9.63721  -5.58518  -2.23071
 Alpha  occ. eigenvalues --   -2.21790  -2.21052  -1.34362  -1.27217  -1.09876
 Alpha  occ. eigenvalues --   -1.09741  -1.04582  -0.86880  -0.86381  -0.75456
 Alpha  occ. eigenvalues --   -0.70078  -0.64123  -0.59467  -0.58236  -0.58032
 Alpha  occ. eigenvalues --   -0.56689  -0.54242  -0.53570  -0.52547  -0.50393
 Alpha  occ. eigenvalues --   -0.49766  -0.45439  -0.43519  -0.38940  -0.34295
 Alpha  occ. eigenvalues --   -0.33571
 Alpha virt. eigenvalues --    0.02911   0.04702   0.05004   0.05277   0.06107
 Alpha virt. eigenvalues --    0.06202   0.07137   0.07270   0.07955   0.08078
 Alpha virt. eigenvalues --    0.08806   0.09488   0.10801   0.11156   0.11259

 Mulliken charges:
               1
     1  Si   5.180924
     2  H   -2.032530
     3  Cl  -1.064740
     4  C   -5.187862
     5  C   -0.418417
     6  H    1.227281
     7  H    1.231538
     8  H    1.372060
     9  C   -3.193370
    10  C   -0.864196
    11  C   -1.999673
    12  C   -0.623322
    13  C   -1.898870
    14  H    1.792667
    15  H    1.871491
    16  H    1.558063
    17  H    1.531338
    18  H    1.517619
 Sum of Mulliken charges =   0.00000

 Dipole moment (field-independent basis, Debye):
    X=              2.1409    Y=              1.6960    Z=              0.5045  Tot=              2.7775

 Test job not archived.
 1\1\GINC-SE118\SP\RHF\Aug-CC-pVDZ\C7H9Cl1Si1\OHZDE\08-Apr-2025\0\\#t h
 f aug-cc-pvdz iop(5/13=1,5/36=2,99/5=2) pseudo=read geom=check guess=(
 read,tcheck) scf=(maxcycle=1)\\title\\0,1\Si,0,-1.328592,0.468412,-0.4
 14893\H,0,-1.549039,0.814066,-1.834823\Cl,0,-2.398341,-1.306969,-0.071
 789\C,0,-2.029385,1.771084,0.723824\C,0,0.494471,0.165378,-0.151496\H,
 0,-3.100563,1.900503,0.550643\H,0,-1.531047,2.729331,0.548005\H,0,-1.8
 85159,1.499462,1.772684\C,0,1.388159,0.276871,-1.227664\C,0,2.756232,0
 .079603,-1.048342\C,0,3.253414,-0.236024,0.213296\C,0,2.380907,-0.3544

 Normal termination of Gaussian 16 at Tue Apr  8 23:15:17 2025.
