 Gaussian 16, Revision C.01,

 ----------------------------------------------------------------------
 #t hf aug-cc-pvdz symm=none int=(grid=ultrafine) guess=(read,tcheck) s
 table=(opt,rrhf)
 ----------------------------------------------------------------------
 -----
 title
 -----
 Symbolic Z-matrix:
 Charge =  0 Multiplicity = 1

 SCF Done:  E(RHF) =  -596.288706458     A.U. after   15 cycles
 Normal termination of Gaussian 16 at Tue Apr  8 23:05:54 2025.
 Gaussian 16:  ES64L-G16RevC.01  3-Jul-2019

 ----------------------------------------------------------------------
 #t hf aug-cc-pvdz iop(5/13=1,5/36=2,99/5=2) pseudo=read geom=check gue
 ss=(read,tcheck) scf=(maxcycle=1)
 ----------------------------------------------------------------------
 -----
 title
 -----
 Structure from the checkpoint file:  "BDE49_expt_322_mol1.chk"
 Charge =  0 Multiplicity = 1

                         Standard orientation:
 ---------------------------------------------------------------------
 Center     Atomic      Atomic             Coordinates (Angstroms)
 Number     Number       Type             X           Y           Z
 ---------------------------------------------------------------------
      1          7           0        1.189102    0.404613    0.570324
      2          7           0        2.438136    0.245035   -0.021518
      3          8           0        2.614058   -0.772449   -0.675780
      4          8           0        3.225527    1.161699    0.136419
      5          6           0        0.374813   -0.789618    0.799662
      6          1           0        1.263669    1.097060    1.304007
      7          7           0       -1.360464   -0.116754   -0.892826
      8          7           0       -2.406348    0.276698   -0.072216
      9          8           0       -2.756026   -0.506825    0.801028
     10          8           0       -2.911476    1.357392   -0.328353
     11          6           0       -0.465405   -1.166578   -0.427508
     12          1           0       -0.965212    0.700640   -1.339575
     13          1           0        0.187292   -1.402033   -1.267749
     14          1           0       -1.062557   -2.048781   -0.199034
     15          1           0       -0.283619   -0.556168    1.637464
     16          1           0        1.004323   -1.639224    1.079099
 ---------------------------------------------------------------------

 SCF Done:  E(RHF) =  -598.860642990     A.U. after    2 cycles

 The electronic state is 1-A.
 Alpha  occ. eigenvalues --  -21.11295 -21.11107 -21.10544 -21.10360 -16.04377
 Alpha  occ. eigenvalues --  -16.03681 -15.83122 -15.82269 -11.50207 -11.43564
 Alpha  occ. eigenvalues --   -2.03733  -2.02757  -1.72329  -1.71512  -1.49121
 Alpha  occ. eigenvalues --   -1.43904  -1.16466  -1.01906  -0.91947  -0.87270
 Alpha  occ. eigenvalues --   -0.77643  -0.75492  -0.74150  -0.72417  -0.71191
 Alpha  occ. eigenvalues --   -0.68025  -0.62607  -0.62082  -0.58195  -0.56610
 Alpha  occ. eigenvalues --   -0.55579  -0.42384  -0.40559  -0.39024  -0.37610
 Alpha  occ. eigenvalues --   -0.34188  -0.33951  -0.33077  -0.32514
 Alpha virt. eigenvalues --    0.03668   0.04753   0.05198   0.05688   0.06404
 Alpha virt. eigenvalues --    0.06507   0.09816   0.10811   0.12201   0.12715
 Alpha virt. eigenvalues --    0.13023   0.13754   0.14499   0.14814   0.15323

 Mulliken charges:
               1
     1  N   -1.187791
     2  N    5.348015
     3  O   -2.921453
     4  O   -2.804671
     5  C   -2.489676
     6  H    0.745331
     7  N   -1.596673
     8  N    5.456403
     9  O   -2.918216
    10  O   -2.903367
    11  C   -1.752493
    12  H    0.783218
    13  H    1.619232
    14  H    1.505910
    15  H    1.622906
    16  H    1.493325
 Sum of Mulliken charges =  -0.00000

 Dipole moment (field-independent basis, Debye):
    X=              0.6393    Y=             -1.0259    Z=              0.8410  Tot=              1.4726

 Test job not archived.
 1\1\GINC-SE195\SP\RHF\Aug-CC-pVDZ\C2H6N4O4\OHZDE\08-Apr-2025\0\\#t hf
 aug-cc-pvdz iop(5/13=1,5/36=2,99/5=2) pseudo=read geom=check guess=(re
 ad,tcheck) scf=(maxcycle=1)\\title\\0,1\N,0,1.189102,0.404613,0.570324
 \N,0,2.438136,0.245035,-0.021518\O,0,2.614058,-0.772449,-0.67578\O,0,3
 .225527,1.161699,0.136419\C,0,0.374813,-0.789618,0.799662\H,0,1.263669
 ,1.09706,1.304007\N,0,-1.360464,-0.116754,-0.892826\N,0,-2.406348,0.27
 6698,-0.072216\O,0,-2.756026,-0.506825,0.801028\O,0,-2.911476,1.357392
 ,-0.328353\C,0,-0.465405,-1.166578,-0.427508\H,0,-0.965212,0.70064,-1.

 Normal termination of Gaussian 16 at Tue Apr  8 23:06:01 2025.
