 Gaussian 16, Revision C.01,

 ----------------------------------------------------------------------
 #t hf aug-cc-pvdz symm=none int=(grid=ultrafine) guess=(read,tcheck) s
 table=(opt,rrhf)
 ----------------------------------------------------------------------
 -----
 title
 -----
 Symbolic Z-matrix:
 Charge =  0 Multiplicity = 1

 SCF Done:  E(RHF) =  -640.450825826     A.U. after   13 cycles
 Normal termination of Gaussian 16 at Wed Apr  9 00:44:22 2025.
 Gaussian 16:  ES64L-G16RevC.01  3-Jul-2019

 ----------------------------------------------------------------------
 #t hf aug-cc-pvdz iop(5/13=1,5/36=2,99/5=2) pseudo=read geom=check gue
 ss=(read,tcheck) scf=(maxcycle=1)
 ----------------------------------------------------------------------
 -----
 title
 -----
 Structure from the checkpoint file:  "BDE49_nonexpt_756_mol1.chk"
 Charge =  0 Multiplicity = 1

                         Standard orientation:
 ---------------------------------------------------------------------
 Center     Atomic      Atomic             Coordinates (Angstroms)
 Number     Number       Type             X           Y           Z
 ---------------------------------------------------------------------
      1         15           0       -0.591606    0.021477    0.548449
      2          5           0        1.147068   -0.724167   -0.019914
      3          9           0       -1.512880   -0.897357   -0.438139
      4          9           0       -0.553639    1.389230   -0.333959
      5          8           0        2.181184    0.130943   -0.082390
      6          1           0        3.023298   -0.276110   -0.315171
      7          1           0        1.264652   -1.899613   -0.203992
 ---------------------------------------------------------------------

 SCF Done:  E(RHF) =  -641.731782033     A.U. after    2 cycles

 The electronic state is 1-A.
 Alpha  occ. eigenvalues -- -105.27216 -29.27757 -29.27688 -21.09878  -7.65981
 Alpha  occ. eigenvalues --   -2.86669  -1.78034  -1.60278  -1.56710  -1.53067
 Alpha  occ. eigenvalues --   -0.90721  -0.74293  -0.66428  -0.55899  -0.47112
 Alpha  occ. eigenvalues --   -0.46080  -0.43175  -0.38489  -0.34501  -0.33168
 Alpha  occ. eigenvalues --   -0.27709  -0.18683  -0.16384  -0.00474
 Alpha virt. eigenvalues --    0.02833   0.05030   0.05449   0.07726   0.09367
 Alpha virt. eigenvalues --    0.09641   0.10475   0.12615   0.13510   0.15897
 Alpha virt. eigenvalues --    0.17967   0.21343   0.22155   0.22680   0.24814

 Mulliken charges:
               1
     1  P    1.955877
     2  B    2.817371
     3  F   -0.541425
     4  F   -0.556217
     5  O   -2.775944
     6  H    1.354753
     7  H   -2.254415
 Sum of Mulliken charges =  -0.00000

 Dipole moment (field-independent basis, Debye):
    X=             -3.4518    Y=              3.2478    Z=             -5.7290  Tot=              7.4353

 Test job not archived.
 1\1\GINC-SE332\SP\RHF\Aug-CC-pVDZ\B1F2H2O1P1\OHZDE\09-Apr-2025\0\\#t h
 f aug-cc-pvdz iop(5/13=1,5/36=2,99/5=2) pseudo=read geom=check guess=(
 read,tcheck) scf=(maxcycle=1)\\title\\0,1\P,0,-0.591606,0.021477,0.548
 449\B,0,1.147068,-0.724167,-0.019914\F,0,-1.512879,-0.897358,-0.438139
 \F,0,-0.553639,1.38923,-0.333959\O,0,2.181184,0.130944,-0.08239\H,0,3.
 023298,-0.276109,-0.315171\H,0,1.264653,-1.899613,-0.203992\\Version=E
 S64L-G16RevC.01\State=1-A\HF=-641.731782\RMSD=1.375e-01\Dipole=-1.3580
 332,1.2777633,-2.2539687\Quadrupole=6.6381017,3.2724072,-9.9105089,0.6

 Normal termination of Gaussian 16 at Wed Apr  9 00:44:24 2025.
