 Gaussian 16, Revision C.01,

 ----------------------------------------------------------------------
 #t hf aug-cc-pvdz symm=none int=(grid=ultrafine) guess=(read,tcheck) s
 table=(opt,rrhf)
 ----------------------------------------------------------------------
 -----
 title
 -----
 Symbolic Z-matrix:
 Charge =  0 Multiplicity = 1

 SCF Done:  E(RHF) =  -752.307556217     A.U. after   14 cycles
 Normal termination of Gaussian 16 at Wed Apr  9 00:12:09 2025.
 Gaussian 16:  ES64L-G16RevC.01  3-Jul-2019

 ----------------------------------------------------------------------
 #t hf aug-cc-pvdz iop(5/13=1,5/36=2,99/5=2) pseudo=read geom=check gue
 ss=(read,tcheck) scf=(maxcycle=1)
 ----------------------------------------------------------------------
 -----
 title
 -----
 Structure from the checkpoint file:  "BDE49_nonexpt_2382_mol1.chk"
 Charge =  0 Multiplicity = 1

                         Standard orientation:
 ---------------------------------------------------------------------
 Center     Atomic      Atomic             Coordinates (Angstroms)
 Number     Number       Type             X           Y           Z
 ---------------------------------------------------------------------
      1         14           0        2.319015    0.195947   -0.479506
      2         14           0        0.505211   -0.410585    0.904796
      3          6           0       -1.173015   -0.409084   -0.052577
      4          1           0        0.468797    0.469834    2.098083
      5          1           0        0.720903   -1.800316    1.378180
      6          1           0        2.359092   -0.680631   -1.675430
      7          1           0        3.601074    0.052844    0.253097
      8          7           0       -1.893689    0.598147   -0.343610
      9          1           0        2.188774    1.601843   -0.932807
     10          6           0       -1.656324   -1.772106   -0.504922
     11          1           0       -0.900098   -2.273957   -1.119008
     12          1           0       -2.574161   -1.659766   -1.083748
     13          1           0       -1.845884   -2.423010    0.355044
     14          6           0       -1.505682    1.943440    0.029540
     15          1           0       -1.457343    2.557221   -0.874916
     16          1           0       -0.546005    2.025776    0.559123
     17          1           0       -2.288364    2.374569    0.661349
 ---------------------------------------------------------------------

 SCF Done:  E(RHF) =  -753.485163149     A.U. after    2 cycles

 The electronic state is 1-A.
 Alpha  occ. eigenvalues --  -76.22114 -76.22035 -15.73031 -11.42694 -11.38499
 Alpha  occ. eigenvalues --  -11.36641  -5.55662  -5.55505  -2.19667  -2.18367
 Alpha  occ. eigenvalues --   -2.17645  -2.17575  -2.17440  -2.16308  -1.38153
 Alpha  occ. eigenvalues --   -1.11010  -0.96509  -0.83709  -0.76106  -0.68259
 Alpha  occ. eigenvalues --   -0.61585  -0.60079  -0.59550  -0.56121  -0.50234
 Alpha  occ. eigenvalues --   -0.48803  -0.48226  -0.47349  -0.46488  -0.40068
 Alpha  occ. eigenvalues --   -0.35493  -0.31460
 Alpha virt. eigenvalues --    0.03857   0.04462   0.05273   0.05583   0.06263
 Alpha virt. eigenvalues --    0.06633   0.06905   0.07203   0.07553   0.08511
 Alpha virt. eigenvalues --    0.08836   0.08849   0.09153   0.09545   0.09828

 Mulliken charges:
               1
     1  Si   5.108275
     2  Si   4.040072
     3  C    1.495560
     4  H   -1.914686
     5  H   -1.943106
     6  H   -1.568432
     7  H   -1.652186
     8  N   -2.886843
     9  H   -1.581983
    10  C   -3.791099
    11  H    1.299079
    12  H    1.312866
    13  H    1.356460
    14  C   -3.520127
    15  H    1.419765
    16  H    1.439491
    17  H    1.386894
 Sum of Mulliken charges =   0.00000

 Dipole moment (field-independent basis, Debye):
    X=              0.2456    Y=              0.1341    Z=              0.2602  Tot=              0.3821

 Test job not archived.
 1\1\GINC-SE403\SP\RHF\Aug-CC-pVDZ\C3H11N1Si2\OHZDE\09-Apr-2025\0\\#t h
 f aug-cc-pvdz iop(5/13=1,5/36=2,99/5=2) pseudo=read geom=check guess=(
 read,tcheck) scf=(maxcycle=1)\\title\\0,1\Si,0,2.319015,0.195947,-0.47
 9506\Si,0,0.505211,-0.410585,0.904796\C,0,-1.173015,-0.409084,-0.05257
 7\H,0,0.468797,0.469834,2.098083\H,0,0.720903,-1.800316,1.37818\H,0,2.
 359092,-0.680631,-1.67543\H,0,3.601074,0.052844,0.253097\N,0,-1.893689
 ,0.598147,-0.34361\H,0,2.188774,1.601843,-0.932807\C,0,-1.656324,-1.77
 2106,-0.504922\H,0,-0.900098,-2.273957,-1.119008\H,0,-2.574161,-1.6597

 Normal termination of Gaussian 16 at Wed Apr  9 00:12:15 2025.
