 Gaussian 16, Revision C.01,

 ----------------------------------------------------------------------
 #t hf aug-cc-pvdz symm=none int=(grid=ultrafine) guess=(read,tcheck) s
 table=(opt,rrhf)
 ----------------------------------------------------------------------
 -----
 title
 -----
 Symbolic Z-matrix:
 Charge =  0 Multiplicity = 1

 SCF Done:  E(RHF) =  -613.230808931     A.U. after   14 cycles
 Normal termination of Gaussian 16 at Tue Apr  8 23:05:19 2025.
 Gaussian 16:  ES64L-G16RevC.01  3-Jul-2019

 ----------------------------------------------------------------------
 #t hf aug-cc-pvdz iop(5/13=1,5/36=2,99/5=2) pseudo=read geom=check gue
 ss=(read,tcheck) scf=(maxcycle=1)
 ----------------------------------------------------------------------
 -----
 title
 -----
 Structure from the checkpoint file:  "BDE49_expt_187_mol1.chk"
 Charge =  0 Multiplicity = 1

                         Standard orientation:
 ---------------------------------------------------------------------
 Center     Atomic      Atomic             Coordinates (Angstroms)
 Number     Number       Type             X           Y           Z
 ---------------------------------------------------------------------
      1          6           0        2.823755    0.971082    0.279931
      2          6           0        4.008708    0.366956    0.688730
      3          6           0        4.306743   -0.935712    0.288336
      4          6           0        3.408860   -1.631291   -0.516789
      5          6           0        2.218490   -1.026156   -0.918570
      6          6           0        1.916546    0.280752   -0.531038
      7          6           0        0.646106    0.959285   -1.007459
      8          8           0        0.000000    1.733699    0.000000
      9          1           0        3.629478   -2.647005   -0.826130
     10          1           0        1.516400   -1.576307   -1.537511
     11          1           0        2.585640    1.981070    0.594233
     12          1           0       -0.041312    0.214885   -1.428262
     13          1           0        0.880558    1.675721   -1.799915
     14          6           0       -0.646106    0.959285    1.007459
     15          1           0        4.703137    0.912680    1.318185
     16          1           0        5.230961   -1.405340    0.605988
     17          6           0       -1.916546    0.280752    0.531038
     18          1           0       -0.880558    1.675722    1.799915
     19          1           0        0.041312    0.214886    1.428262
     20          6           0       -2.823755    0.971082   -0.279931
     21          6           0       -4.008708    0.366956   -0.688730
     22          6           0       -4.306743   -0.935712   -0.288336
     23          6           0       -3.408860   -1.631291    0.516789
     24          6           0       -2.218490   -1.026156    0.918570
     25          1           0       -1.516399   -1.576307    1.537511
     26          1           0       -5.230961   -1.405340   -0.605988
     27          1           0       -3.629478   -2.647005    0.826131
     28          1           0       -2.585641    1.981070   -0.594233
     29          1           0       -4.703138    0.912680   -1.318185
 ---------------------------------------------------------------------

 SCF Done:  E(RHF) =  -616.148238655     A.U. after    2 cycles

 The electronic state is 1-A.
 Alpha  occ. eigenvalues --  -21.04438 -11.52179 -11.51535 -11.46613 -11.44464
 Alpha  occ. eigenvalues --  -11.43223 -11.43163 -11.42630 -11.42200 -11.40709
 Alpha  occ. eigenvalues --  -11.40673 -11.40471 -11.40363 -11.35962 -11.35935
 Alpha  occ. eigenvalues --   -1.75112  -1.34224  -1.33730  -1.13680  -1.11252
 Alpha  occ. eigenvalues --   -1.08937  -1.08818  -1.00085  -0.93152  -0.86521
 Alpha  occ. eigenvalues --   -0.85860  -0.83685  -0.81035  -0.71176  -0.70249
 Alpha  occ. eigenvalues --   -0.66110  -0.65557  -0.64219  -0.63024  -0.57984
 Alpha  occ. eigenvalues --   -0.57768  -0.57727  -0.56828  -0.54442  -0.53882
 Alpha  occ. eigenvalues --   -0.53132  -0.49241  -0.47758  -0.45989  -0.45208
 Alpha  occ. eigenvalues --   -0.43991  -0.43939  -0.36457  -0.32980  -0.32839
 Alpha  occ. eigenvalues --   -0.32266  -0.31911  -0.29560
 Alpha virt. eigenvalues --    0.03371   0.04221   0.04786   0.04803   0.05495
 Alpha virt. eigenvalues --    0.05691   0.05825   0.05925   0.07082   0.07145
 Alpha virt. eigenvalues --    0.07627   0.07719   0.08935   0.09332   0.10383

 Mulliken charges:
               1
     1  C   -2.103792
     2  C   -1.980363
     3  C   -2.729398
     4  C   -1.804507
     5  C   -1.726645
     6  C    3.408381
     7  C   -2.941126
     8  O   -3.436216
     9  H    1.532878
    10  H    1.814748
    11  H    1.986559
    12  H    1.882873
    13  H    1.292657
    14  C   -2.941128
    15  H    1.511074
    16  H    1.574769
    17  C    3.408381
    18  H    1.292656
    19  H    1.882875
    20  C   -2.103786
    21  C   -1.980370
    22  C   -2.729397
    23  C   -1.804505
    24  C   -1.726648
    25  H    1.814747
    26  H    1.574770
    27  H    1.532878
    28  H    1.986560
    29  H    1.511074
 Sum of Mulliken charges =   0.00000

 Dipole moment (field-independent basis, Debye):
    X=             -0.0000    Y=             -0.2225    Z=              0.0000  Tot=              0.2225

 Test job not archived.
 1\1\GINC-SE070\SP\RHF\Aug-CC-pVDZ\C14H14O1\OHZDE\08-Apr-2025\0\\#t hf
 aug-cc-pvdz iop(5/13=1,5/36=2,99/5=2) pseudo=read geom=check guess=(re
 ad,tcheck) scf=(maxcycle=1)\\title\\0,1\C,0,2.823755,0.971082,0.279931
 \C,0,4.008708,0.366956,0.68873\C,0,4.306743,-0.935712,0.288336\C,0,3.4
 0886,-1.631291,-0.516789\C,0,2.21849,-1.026156,-0.91857\C,0,1.916546,0
 .280752,-0.531038\C,0,0.646106,0.959285,-1.007459\O,0,0.,1.733699,0.\H
 ,0,3.629478,-2.647005,-0.82613\H,0,1.5164,-1.576307,-1.537511\H,0,2.58
 564,1.98107,0.594233\H,0,-0.041312,0.214885,-1.428262\H,0,0.880558,1.6

 Normal termination of Gaussian 16 at Tue Apr  8 23:05:51 2025.
