 Gaussian 16, Revision C.01,

 ----------------------------------------------------------------------
 #t hf aug-cc-pvdz symm=none int=(grid=ultrafine) guess=(read,tcheck) s
 table=(opt,rrhf)
 ----------------------------------------------------------------------
 -----
 title
 -----
 Symbolic Z-matrix:
 Charge =  0 Multiplicity = 1

 SCF Done:  E(RHF) =  -807.443172758     A.U. after   12 cycles

 1\1\GINC-SE103\Stability\RHF\Aug-CC-pVDZ\B2Cl1F3\OHZDE\08-Apr-2025\0\\
 #t hf aug-cc-pvdz symm=none int=(grid=ultrafine) guess=(read,tcheck) s
 table=(opt,rrhf)\\title\\0,1\B,0,1.180725,-0.04275,-0.00001\B,0,-0.449
 389,0.454424,-0.000138\F,0,-0.814545,1.723492,-0.000399\F,0,1.840216,-
 0.256546,1.128062\Cl,0,-1.732273,-0.761376,0.000204\F,0,1.840103,-0.25
 7498,-1.127968\\Version=ES64L-G16RevC.01\HF=-807.4431728\RMSD=7.729e-0
 9\Dipole=-0.0738881,0.0525153,-0.000058\Quadrupole=-1.7386554,0.938906
 8,0.7997486,1.4251444,-0.0004288,-0.0007083\PG=Unknown\\@

 Normal termination of Gaussian 16 at Tue Apr  8 23:52:19 2025.
 Gaussian 16:  ES64L-G16RevC.01  3-Jul-2019

 ----------------------------------------------------------------------
 #t hf aug-cc-pvdz iop(5/13=1,5/36=2,99/5=2) pseudo=read geom=check gue
 ss=(read,tcheck) scf=(maxcycle=1)
 ----------------------------------------------------------------------
 -----
 title
 -----
 Structure from the checkpoint file:  "BDE49_nonexpt_18_mol1.chk"
 Charge =  0 Multiplicity = 1

                         Standard orientation:
 ---------------------------------------------------------------------
 Center     Atomic      Atomic             Coordinates (Angstroms)
 Number     Number       Type             X           Y           Z
 ---------------------------------------------------------------------
      1          5           0        1.180725   -0.042750   -0.000010
      2          5           0       -0.449389    0.454424   -0.000138
      3          9           0       -0.814545    1.723492   -0.000399
      4          9           0        1.840216   -0.256546    1.128062
      5         17           0       -1.732273   -0.761377    0.000204
      6          9           0        1.840103   -0.257498   -1.127968
 ---------------------------------------------------------------------

 SCF Done:  E(RHF) =  -808.889277521     A.U. after    2 cycles

 The electronic state is 1-A.
 Alpha  occ. eigenvalues --  -99.91503 -29.28629 -29.27779 -29.27680 -10.48820
 Alpha  occ. eigenvalues --   -9.68756  -9.68308  -9.68093  -7.72482  -7.71521
 Alpha  occ. eigenvalues --   -1.37836  -1.15992  -0.97852  -0.76564  -0.69232
 Alpha  occ. eigenvalues --   -0.65519  -0.57907  -0.53718  -0.51372  -0.46780
 Alpha  occ. eigenvalues --   -0.46684  -0.43805  -0.41908  -0.38748  -0.35768
 Alpha  occ. eigenvalues --   -0.35025  -0.24642
 Alpha virt. eigenvalues --    0.02610   0.03340   0.03778   0.07010   0.08721
 Alpha virt. eigenvalues --    0.09432   0.09717   0.10242   0.11863   0.12801
 Alpha virt. eigenvalues --    0.15999   0.16424   0.16524   0.18404   0.19740

 Mulliken charges:
               1
     1  B    0.982717
     2  B    0.503752
     3  F   -0.042232
     4  F   -0.077071
     5  Cl  -1.290058
     6  F   -0.077108
 Sum of Mulliken charges =  -0.00000

 Dipole moment (field-independent basis, Debye):
    X=              2.6434    Y=              3.3405    Z=             -0.0008  Tot=              4.2598

 Test job not archived.
 1\1\GINC-SE103\SP\RHF\Aug-CC-pVDZ\B2Cl1F3\OHZDE\08-Apr-2025\0\\#t hf a
 ug-cc-pvdz iop(5/13=1,5/36=2,99/5=2) pseudo=read geom=check guess=(rea
 d,tcheck) scf=(maxcycle=1)\\title\\0,1\B,0,1.180725,-0.04275,-0.00001\
 B,0,-0.449389,0.454424,-0.000138\F,0,-0.814545,1.723492,-0.000399\F,0,
 1.840216,-0.256546,1.128062\Cl,0,-1.732273,-0.761376,0.000204\F,0,1.84
 0103,-0.257498,-1.127968\\Version=ES64L-G16RevC.01\State=1-A\HF=-808.8
 892775\RMSD=3.278e-01\Dipole=1.0399896,1.3142427,-0.0003028\Quadrupole
 =-2.2810937,1.3158005,0.9652932,-3.3849914,0.0010248,0.0008484\PG=C01

 Normal termination of Gaussian 16 at Tue Apr  8 23:52:22 2025.
