 Gaussian 16, Revision C.01,

 ----------------------------------------------------------------------
 #t hf aug-cc-pvdz symm=none int=(grid=ultrafine) guess=(read,tcheck) s
 table=opt
 ----------------------------------------------------------------------
 -----
 title
 -----
 Symbolic Z-matrix:
 Charge =  0 Multiplicity = 2

 SCF Done:  E(UHF) =  -485.825862897     A.U. after   15 cycles
 Normal termination of Gaussian 16 at Tue Apr  8 23:46:19 2025.
 Gaussian 16:  ES64L-G16RevC.01  3-Jul-2019

 ----------------------------------------------------------------------
 #t hf aug-cc-pvdz iop(5/13=1,5/36=2,99/5=2) pseudo=read geom=check gue
 ss=(read,tcheck) scf=(maxcycle=1)
 ----------------------------------------------------------------------
 -----
 title
 -----
 Structure from the checkpoint file:  "BDE49_nonexpt_1732_mol2.chk"
 Charge =  0 Multiplicity = 2

                         Standard orientation:
 ---------------------------------------------------------------------
 Center     Atomic      Atomic             Coordinates (Angstroms)
 Number     Number       Type             X           Y           Z
 ---------------------------------------------------------------------
      1         14           0       -3.090802   -0.114048    0.000000
      2          6           0       -1.383945    0.704188   -0.000001
      3          6           0       -0.203043   -0.290322    0.000000
      4          1           0       -1.318835    1.360145    0.875930
      5          1           0       -1.318835    1.360143   -0.875934
      6          6           0        1.167780    0.401595   -0.000001
      7          1           0       -0.274973   -0.945491   -0.876148
      8          1           0       -0.274973   -0.945489    0.876150
      9          6           0        2.346796   -0.578408    0.000001
     10          1           0        1.240256    1.057226    0.877217
     11          1           0        1.240256    1.057224   -0.877220
     12          6           0        3.710842    0.117935    0.000000
     13          1           0        2.271226   -1.233460   -0.876282
     14          1           0        2.271226   -1.233458    0.876285
     15          1           0        3.830527    0.753567   -0.882894
     16          1           0        4.529157   -0.607222    0.000001
     17          1           0        3.830527    0.753569    0.882892
     18          1           0       -3.292457   -0.954999    1.211388
     19          1           0       -3.292456   -0.955004   -1.211384
 ---------------------------------------------------------------------

 SCF Done:  E(UHF) =  -487.001610099     A.U. after    2 cycles

 The electronic state is 2-A.
 Alpha  occ. eigenvalues --  -76.21668 -11.42124 -11.40870 -11.37833 -11.36027
 Alpha  occ. eigenvalues --  -11.34060  -5.55048  -2.18876  -2.17069  -2.16568
 Alpha  occ. eigenvalues --   -1.25703  -1.12397  -0.98844  -0.87439  -0.82315
 Alpha  occ. eigenvalues --   -0.73068  -0.65854  -0.60213  -0.58395  -0.55250
 Alpha  occ. eigenvalues --   -0.53501  -0.50025  -0.47896  -0.46225  -0.46075
 Alpha  occ. eigenvalues --   -0.45272  -0.44286  -0.38210  -0.25865
 Alpha virt. eigenvalues --    0.04055   0.04886   0.05117   0.05260   0.05902
 Alpha virt. eigenvalues --    0.05927   0.06033   0.06424   0.07761   0.08014
 Alpha virt. eigenvalues --    0.08366   0.09155   0.09541   0.10587   0.11134

  Beta  occ. eigenvalues --  -76.21123 -11.42067 -11.40843 -11.37812 -11.35999
  Beta  occ. eigenvalues --  -11.34027  -5.54195  -2.18115  -2.16429  -2.13161
  Beta  occ. eigenvalues --   -1.25548  -1.12162  -0.98575  -0.87091  -0.82244
  Beta  occ. eigenvalues --   -0.69012  -0.65810  -0.60151  -0.58243  -0.54872
  Beta  occ. eigenvalues --   -0.53433  -0.49770  -0.47787  -0.45964  -0.45481
  Beta  occ. eigenvalues --   -0.45259  -0.44143  -0.36968
  Beta virt. eigenvalues --    0.03643   0.04467   0.05074   0.05251   0.05293
  Beta virt. eigenvalues --    0.05913   0.05992   0.06430   0.07062   0.07888
  Beta virt. eigenvalues --    0.08522   0.09228   0.09576   0.09952   0.10978

 Mulliken charges and spin densities:
               1          2
     1  Si   3.780022   1.168759
     2  C   -4.085520  -0.062491
     3  C   -2.615245   0.009176
     4  H    1.439438  -0.018954
     5  H    1.439437  -0.018954
     6  C   -2.351975   0.007139
     7  H    1.648846  -0.021568
     8  H    1.648844  -0.021568
     9  C   -2.889715  -0.022900
    10  H    1.507718  -0.000488
    11  H    1.507719  -0.000488
    12  C   -4.361507   0.003353
    13  H    1.430533   0.000970
    14  H    1.430533   0.000970
    15  H    1.318959   0.000676
    16  H    1.075023   0.000109
    17  H    1.318960   0.000676
    18  H   -1.621035  -0.012209
    19  H   -1.621036  -0.012209
 Sum of Mulliken charges =   0.00000   1.00000

 Dipole moment (field-independent basis, Debye):
    X=              0.9991    Y=              0.5879    Z=             -0.0000  Tot=              1.1592
                          Isotropic Fermi Contact Couplings
        Atom                 a.u.       MegaHertz       Gauss      10(-4) cm-1
     1  Si(29)             0.44466    -395.18564    -141.01206    -131.81974
     2  C(13)              0.01467      16.49312       5.88516       5.50151
     3  C(13)              0.01866      20.97774       7.48538       6.99742
     4  H(1)               0.00032       1.43632       0.51252       0.47911
     5  H(1)               0.00032       1.43636       0.51253       0.47912
     6  C(13)              0.00485       5.45691       1.94716       1.82023
     7  H(1)              -0.00016      -0.70755      -0.25247      -0.23601
     8  H(1)              -0.00016      -0.70755      -0.25247      -0.23601

 Normal termination of Gaussian 16 at Tue Apr  8 23:46:27 2025.
