 Gaussian 16, Revision C.01,

 ----------------------------------------------------------------------
 #t hf aug-cc-pvdz symm=none int=(grid=ultrafine) guess=(read,tcheck) s
 table=(opt,rrhf)
 ----------------------------------------------------------------------
 -----
 title
 -----
 Symbolic Z-matrix:
 Charge =  0 Multiplicity = 1

 SCF Done:  E(RHF) =  -767.875446525     A.U. after   13 cycles
 Normal termination of Gaussian 16 at Wed Apr  9 00:51:54 2025.
 Gaussian 16:  ES64L-G16RevC.01  3-Jul-2019

 ----------------------------------------------------------------------
 #t hf aug-cc-pvdz iop(5/13=1,5/36=2,99/5=2) pseudo=read geom=check gue
 ss=(read,tcheck) scf=(maxcycle=1)
 ----------------------------------------------------------------------
 -----
 title
 -----
 Structure from the checkpoint file:  "BDE49_nonexpt_907_mol1.chk"
 Charge =  0 Multiplicity = 1

                         Standard orientation:
 ---------------------------------------------------------------------
 Center     Atomic      Atomic             Coordinates (Angstroms)
 Number     Number       Type             X           Y           Z
 ---------------------------------------------------------------------
      1          8           0        0.927270    1.395382   -0.024407
      2         16           0        2.750808   -0.696380    0.008894
      3          8           0        0.025633   -0.840549    0.006621
      4          6           0       -0.390206    1.964854   -0.014518
      5          6           0       -1.411924    1.017401   -0.632202
      6          6           0       -1.356144   -0.387615   -0.004456
      7          6           0       -1.860982   -0.405343    1.441889
      8          6           0       -2.121213   -1.397254   -0.857973
      9          5           0        1.062949    0.039486   -0.002537
     10          1           0       -0.336121    2.897431   -0.579395
     11          1           0       -0.648757    2.216435    1.019108
     12          1           0       -1.211335    0.928978   -1.705149
     13          1           0       -2.416981    1.436046   -0.522315
     14          1           0       -2.921535   -0.142329    1.484820
     15          1           0       -1.306395    0.294049    2.071375
     16          1           0       -1.733965   -1.404549    1.862882
     17          1           0       -1.715000   -1.423030   -1.871382
     18          1           0       -2.029833   -2.396905   -0.428142
     19          1           0       -3.181451   -1.135537   -0.912136
     20          1           0        3.393293    0.483132   -0.003438
 ---------------------------------------------------------------------

 SCF Done:  E(RHF) =  -769.807052192     A.U. after    2 cycles

 The electronic state is 1-A.
 Alpha  occ. eigenvalues --  -75.66796 -21.03293 -21.02387 -13.14720 -13.09034
 Alpha  occ. eigenvalues --  -13.02650 -11.47709 -11.46179 -11.41602 -11.40465
 Alpha  occ. eigenvalues --  -11.36766  -8.00736  -7.66344  -1.85407  -1.70363
 Alpha  occ. eigenvalues --   -1.25995  -1.10701  -1.08629  -1.02292  -0.92537
 Alpha  occ. eigenvalues --   -0.82446  -0.70131  -0.66778  -0.63443  -0.61872
 Alpha  occ. eigenvalues --   -0.60183  -0.58373  -0.56204  -0.54102  -0.52416
 Alpha  occ. eigenvalues --   -0.49553  -0.47934  -0.46900  -0.43824  -0.42661
 Alpha  occ. eigenvalues --   -0.34673  -0.33341  -0.32263  -0.25189
 Alpha virt. eigenvalues --    0.02846   0.04311   0.04487   0.04931   0.04988
 Alpha virt. eigenvalues --    0.05488   0.05620   0.05824   0.06192   0.08066
 Alpha virt. eigenvalues --    0.08893   0.08972   0.09386   0.09560   0.11598

 Mulliken charges:
               1
     1  O   -4.373374
     2  S   -3.576027
     3  O   -5.731460
     4  C   -0.615788
     5  C   -4.330473
     6  C    6.745130
     7  C   -5.021028
     8  C   -4.389347
     9  B    7.930403
    10  H    1.234402
    11  H    1.554592
    12  H    1.132307
    13  H    1.369357
    14  H    1.119694
    15  H    1.334013
    16  H    1.329550
    17  H    1.309729
    18  H    1.214793
    19  H    1.211695
    20  H    0.551831
 Sum of Mulliken charges =  -0.00000

 Dipole moment (field-independent basis, Debye):
    X=             -1.7495    Y=             -0.4517    Z=             -0.0771  Tot=              1.8085

 Test job not archived.
 1\1\GINC-SE123\SP\RHF\Aug-CC-pVDZ\C5H11B1O2S1\OHZDE\09-Apr-2025\0\\#t
 hf aug-cc-pvdz iop(5/13=1,5/36=2,99/5=2) pseudo=read geom=check guess=
 (read,tcheck) scf=(maxcycle=1)\\title\\0,1\O,0,0.92727,1.395382,-0.024
 407\S,0,2.750808,-0.69638,0.008894\O,0,0.025633,-0.840549,0.006621\C,0
 ,-0.390206,1.964854,-0.014518\C,0,-1.411924,1.017401,-0.632202\C,0,-1.
 356144,-0.387615,-0.004456\C,0,-1.860982,-0.405343,1.441889\C,0,-2.121
 213,-1.397254,-0.857973\B,0,1.062949,0.039486,-0.002537\H,0,-0.336121,
 2.897431,-0.579395\H,0,-0.648757,2.216435,1.019108\H,0,-1.211335,0.928

 Normal termination of Gaussian 16 at Wed Apr  9 00:52:05 2025.
