 Gaussian 16, Revision C.01,

 ----------------------------------------------------------------------
 #t hf aug-cc-pvdz symm=none int=(grid=ultrafine) guess=(read,tcheck) s
 table=(opt,rrhf)
 ----------------------------------------------------------------------
 -----
 title
 -----
 Symbolic Z-matrix:
 Charge =  0 Multiplicity = 1

 SCF Done:  E(RHF) =  -719.722511733     A.U. after   18 cycles
 Normal termination of Gaussian 16 at Tue Apr  8 23:07:20 2025.
 Gaussian 16:  ES64L-G16RevC.01  3-Jul-2019

 ----------------------------------------------------------------------
 #t hf aug-cc-pvdz iop(5/13=1,5/36=2,99/5=2) pseudo=read geom=check gue
 ss=(read,tcheck) scf=(maxcycle=1)
 ----------------------------------------------------------------------
 -----
 title
 -----
 Structure from the checkpoint file:  "BDE49_expt_1770_mol1.chk"
 Charge =  0 Multiplicity = 1

                         Standard orientation:
 ---------------------------------------------------------------------
 Center     Atomic      Atomic             Coordinates (Angstroms)
 Number     Number       Type             X           Y           Z
 ---------------------------------------------------------------------
      1          6           0       -3.460737    0.840571   -0.991492
      2          6           0       -3.856784   -0.466287   -0.710903
      3          6           0       -2.971767   -1.339917   -0.094362
      4          6           0       -2.178192    1.259431   -0.655141
      5          6           0       -1.292328    0.382062   -0.031083
      6          6           0       -1.668758   -0.944548    0.254577
      7          1           0       -4.147426    1.532484   -1.464659
      8          1           0       -4.855301   -0.800616   -0.967489
      9          1           0       -3.283322   -2.354402    0.129676
     10          1           0       -1.856675    2.274492   -0.850334
     11          6           0        1.494249   -1.058135    0.229637
     12          6           0        1.201324    0.282928   -0.077322
     13          7           0       -0.019590    0.870856    0.386323
     14          7           0       -0.057783    1.958595    1.224742
     15          8           0        1.015094    2.414643    1.541674
     16          6           0        2.746964   -1.559938   -0.166010
     17          6           0        3.656680   -0.773393   -0.857270
     18          6           0        3.336248    0.547205   -1.171470
     19          6           0        2.110677    1.072556   -0.780547
     20          1           0        2.991854   -2.589915    0.069698
     21          1           0        4.614886   -1.186341   -1.150661
     22          1           0        4.042902    1.170101   -1.706984
     23          1           0        1.862269    2.103330   -0.994382
     24          6           0       -0.787684   -1.909820    0.905362
     25          6           0        0.559048   -1.953759    0.904324
     26          1           0       -1.302706   -2.735401    1.388202
     27          1           0        1.020732   -2.810750    1.386289
 ---------------------------------------------------------------------

 SCF Done:  E(RHF) =  -723.067577794     A.U. after    2 cycles

 The electronic state is 1-A.
 Alpha  occ. eigenvalues --  -21.08871 -15.88682 -15.78318 -11.55325 -11.54169
 Alpha  occ. eigenvalues --  -11.49050 -11.48639 -11.48088 -11.45753 -11.44808
 Alpha  occ. eigenvalues --  -11.43407 -11.42845 -11.42613 -11.42209 -11.41069
 Alpha  occ. eigenvalues --  -11.39688 -11.37891  -1.86547  -1.51309  -1.34926
 Alpha  occ. eigenvalues --   -1.32883  -1.20830  -1.12771  -1.12184  -1.09244
 Alpha  occ. eigenvalues --   -1.05429  -0.95517  -0.93207  -0.88045  -0.87785
 Alpha  occ. eigenvalues --   -0.80817  -0.79733  -0.71923  -0.70569  -0.67427
 Alpha  occ. eigenvalues --   -0.66664  -0.65781  -0.63405  -0.61187  -0.59619
 Alpha  occ. eigenvalues --   -0.58689  -0.57838  -0.53885  -0.53492  -0.52934
 Alpha  occ. eigenvalues --   -0.52163  -0.50915  -0.47508  -0.46321  -0.44967
 Alpha  occ. eigenvalues --   -0.44056  -0.42437  -0.38492  -0.35193  -0.33476
 Alpha  occ. eigenvalues --   -0.30606  -0.28423  -0.27114
 Alpha virt. eigenvalues --    0.03194   0.04776   0.04793   0.05055   0.05481
 Alpha virt. eigenvalues --    0.05537   0.06631   0.07131   0.07560   0.07985
 Alpha virt. eigenvalues --    0.08776   0.09495   0.09690   0.09894   0.09926

 Mulliken charges:
               1
     1  C   -1.569049
     2  C   -2.666286
     3  C   -3.065458
     4  C   -2.361844
     5  C   -1.108529
     6  C    4.361618
     7  H    1.524938
     8  H    1.493585
     9  H    1.707058
    10  H    1.859587
    11  C    3.901229
    12  C   -0.289913
    13  N   -2.740476
    14  N    0.695267
    15  O   -2.131621
    16  C   -2.711765
    17  C   -2.671822
    18  C   -1.469260
    19  C   -2.616638
    20  H    1.711081
    21  H    1.496742
    22  H    1.528968
    23  H    1.950405
    24  C    0.199579
    25  C    0.084049
    26  H    1.449612
    27  H    1.438942
 Sum of Mulliken charges =   0.00000

 Dipole moment (field-independent basis, Debye):
    X=              0.1943    Y=             -1.6076    Z=             -1.5331  Tot=              2.2299

 Test job not archived.
 1\1\GINC-SE227\SP\RHF\Aug-CC-pVDZ\C14H10N2O1\OHZDE\08-Apr-2025\0\\#t h
 f aug-cc-pvdz iop(5/13=1,5/36=2,99/5=2) pseudo=read geom=check guess=(
 read,tcheck) scf=(maxcycle=1)\\title\\0,1\C,0,-3.460737,0.840571,-0.99
 1492\C,0,-3.856784,-0.466287,-0.710903\C,0,-2.971767,-1.339917,-0.0943
 62\C,0,-2.178192,1.259431,-0.655141\C,0,-1.292328,0.382062,-0.031083\C
 ,0,-1.668758,-0.944548,0.254577\H,0,-4.147426,1.532484,-1.464659\H,0,-
 4.855301,-0.800616,-0.967489\H,0,-3.283322,-2.354402,0.129676\H,0,-1.8
 56675,2.274492,-0.850334\C,0,1.494249,-1.058135,0.229637\C,0,1.201324,

 Normal termination of Gaussian 16 at Tue Apr  8 23:07:56 2025.
