 Gaussian 16, Revision C.01,

 ----------------------------------------------------------------------
 #t hf aug-cc-pvdz symm=none int=(grid=ultrafine) guess=(read,tcheck) s
 table=(opt,rrhf)
 ----------------------------------------------------------------------
 -----
 title
 -----
 Symbolic Z-matrix:
 Charge =  0 Multiplicity = 1

 SCF Done:  E(RHF) =  -191.957486384     A.U. after   13 cycles
 Normal termination of Gaussian 16 at Tue Apr  8 22:41:27 2025.
 Gaussian 16:  ES64L-G16RevC.01  3-Jul-2019

 ----------------------------------------------------------------------
 #t hf aug-cc-pvdz iop(5/13=1,5/36=2,99/5=2) pseudo=read geom=check gue
 ss=(read,tcheck) scf=(maxcycle=1)
 ----------------------------------------------------------------------
 -----
 title
 -----
 Structure from the checkpoint file:  "BDE49_expt_1333_mol1.chk"
 Charge =  0 Multiplicity = 1

                         Standard orientation:
 ---------------------------------------------------------------------
 Center     Atomic      Atomic             Coordinates (Angstroms)
 Number     Number       Type             X           Y           Z
 ---------------------------------------------------------------------
      1          6           0        0.593583    0.344962   -0.000001
      2          8           0        1.861704   -0.178099    0.000001
      3          1           0        2.497288    0.540908   -0.000035
      4          6           0       -0.491596   -0.423123   -0.000002
      5          6           0       -1.893548    0.111737    0.000005
      6          1           0        0.524564    1.431461    0.000003
      7          1           0       -0.353123   -1.501096   -0.000007
      8          1           0       -1.906804    1.205387    0.000006
      9          1           0       -2.453089   -0.226667    0.879496
     10          1           0       -2.453098   -0.226666   -0.879479
 ---------------------------------------------------------------------

 SCF Done:  E(RHF) =  -192.850629401     A.U. after    2 cycles

 The electronic state is 1-A.
 Alpha  occ. eigenvalues --  -21.09458 -11.44446 -11.39076 -11.35822  -1.73884
 Alpha  occ. eigenvalues --   -1.17134  -0.96571  -0.78830  -0.66838  -0.59946
 Alpha  occ. eigenvalues --   -0.56137  -0.49813  -0.49582  -0.46596  -0.42771
 Alpha  occ. eigenvalues --   -0.26911
 Alpha virt. eigenvalues --    0.03663   0.04962   0.06062   0.06523   0.06839
 Alpha virt. eigenvalues --    0.07460   0.10619   0.11994   0.12717   0.14626
 Alpha virt. eigenvalues --    0.14865   0.15595   0.17605   0.18343   0.18848

 Mulliken charges:
               1
     1  C    0.324235
     2  O   -3.128142
     3  H    0.890366
     4  C   -0.415000
     5  C   -4.110721
     6  H    1.525085
     7  H    1.362767
     8  H    1.243677
     9  H    1.153866
    10  H    1.153867
 Sum of Mulliken charges =   0.00000

 Dipole moment (field-independent basis, Debye):
    X=              0.5243    Y=              0.9134    Z=             -0.0000  Tot=              1.0532

 Test job not archived.
 1\1\GINC-SE044\SP\RHF\Aug-CC-pVDZ\C3H6O1\OHZDE\08-Apr-2025\0\\#t hf au
 g-cc-pvdz iop(5/13=1,5/36=2,99/5=2) pseudo=read geom=check guess=(read
 ,tcheck) scf=(maxcycle=1)\\title\\0,1\C,0,0.593583,0.344962,-0.000001\
 O,0,1.861704,-0.178099,0.000001\H,0,2.497288,0.540908,-0.000035\C,0,-0
 .491596,-0.423123,-0.000002\C,0,-1.893548,0.111737,0.000005\H,0,0.5245
 64,1.431461,0.000003\H,0,-0.353123,-1.501096,-0.000007\H,0,-1.906804,1
 .205387,0.000006\H,0,-2.453089,-0.226667,0.879496\H,0,-2.453098,-0.226
 666,-0.879479\\Version=ES64L-G16RevC.01\State=1-A\HF=-192.8506294\RMSD

 Normal termination of Gaussian 16 at Tue Apr  8 22:41:30 2025.
