 Gaussian 16, Revision C.01,

 ----------------------------------------------------------------------
 #t hf aug-cc-pvdz symm=none int=(grid=ultrafine) guess=(read,tcheck) s
 table=(opt,rrhf)
 ----------------------------------------------------------------------
 -----
 title
 -----
 Symbolic Z-matrix:
 Charge =  0 Multiplicity = 1

 SCF Done:  E(RHF) =  -217.283775466     A.U. after   13 cycles
 Normal termination of Gaussian 16 at Wed Apr  9 00:27:46 2025.
 Gaussian 16:  ES64L-G16RevC.01  3-Jul-2019

 ----------------------------------------------------------------------
 #t hf aug-cc-pvdz iop(5/13=1,5/36=2,99/5=2) pseudo=read geom=check gue
 ss=(read,tcheck) scf=(maxcycle=1)
 ----------------------------------------------------------------------
 -----
 title
 -----
 Structure from the checkpoint file:  "BDE49_nonexpt_280_mol1.chk"
 Charge =  0 Multiplicity = 1

                         Standard orientation:
 ---------------------------------------------------------------------
 Center     Atomic      Atomic             Coordinates (Angstroms)
 Number     Number       Type             X           Y           Z
 ---------------------------------------------------------------------
      1          6           0        0.036972    0.388525    0.643239
      2          5           0       -1.235296    0.371717   -0.284206
      3          8           0       -2.220892   -0.524640   -0.030231
      4          6           0        1.320495    0.411401   -0.143939
      5          6           0        2.231661   -0.558103   -0.163244
      6          1           0        0.020460   -0.452561    1.343236
      7          1           0       -0.025941    1.310022    1.244961
      8          1           0        1.484378    1.294312   -0.759945
      9          1           0        2.115979   -1.460820    0.429248
     10          1           0        3.127492   -0.481820   -0.769164
     11          1           0       -2.961444   -0.459255   -0.640583
     12          1           0       -1.352077    1.137720   -1.201217
 ---------------------------------------------------------------------

 SCF Done:  E(RHF) =  -218.297197355     A.U. after    2 cycles

 The electronic state is 1-A.
 Alpha  occ. eigenvalues --  -21.06609 -11.41515 -11.37071 -11.34192  -7.61837
 Alpha  occ. eigenvalues --   -1.74629  -1.20301  -1.00746  -0.79754  -0.74462
 Alpha  occ. eigenvalues --   -0.64099  -0.62437  -0.55719  -0.52869  -0.48470
 Alpha  occ. eigenvalues --   -0.45244  -0.41942  -0.39330  -0.32472
 Alpha virt. eigenvalues --    0.03332   0.04084   0.04499   0.04618   0.06485
 Alpha virt. eigenvalues --    0.06972   0.07870   0.08661   0.09615   0.10648
 Alpha virt. eigenvalues --    0.11238   0.11580   0.13859   0.14547   0.15628

 Mulliken charges:
               1
     1  C   -5.173957
     2  B    7.468551
     3  O   -3.545022
     4  C   -0.310806
     5  C   -3.143574
     6  H    1.377442
     7  H    1.223180
     8  H    1.420496
     9  H    1.422812
    10  H    1.355274
    11  H    1.163992
    12  H   -3.258389
 Sum of Mulliken charges =  -0.00000

 Dipole moment (field-independent basis, Debye):
    X=             -1.1545    Y=              0.1341    Z=             -0.2496  Tot=              1.1887

 Test job not archived.
 1\1\GINC-SE109\SP\RHF\Aug-CC-pVDZ\C3H7B1O1\OHZDE\09-Apr-2025\0\\#t hf
 aug-cc-pvdz iop(5/13=1,5/36=2,99/5=2) pseudo=read geom=check guess=(re
 ad,tcheck) scf=(maxcycle=1)\\title\\0,1\C,0,0.036972,0.388525,0.643239
 \B,0,-1.235296,0.371717,-0.284206\O,0,-2.220892,-0.52464,-0.030231\C,0
 ,1.320495,0.411401,-0.143939\C,0,2.231661,-0.558103,-0.163244\H,0,0.02
 046,-0.452561,1.343236\H,0,-0.025941,1.310022,1.244961\H,0,1.484378,1.
 294312,-0.759945\H,0,2.115979,-1.46082,0.429248\H,0,3.127492,-0.48182,
 -0.769164\H,0,-2.961444,-0.459255,-0.640583\H,0,-1.352077,1.13772,-1.2

 Normal termination of Gaussian 16 at Wed Apr  9 00:27:50 2025.
