 Gaussian 16, Revision C.01,

 ----------------------------------------------------------------------
 #t hf aug-cc-pvdz symm=none int=(grid=ultrafine) guess=(read,tcheck) s
 table=(opt,rrhf)
 ----------------------------------------------------------------------
 -----
 title
 -----
 Symbolic Z-matrix:
 Charge =  0 Multiplicity = 1

 SCF Done:  E(RHF) =  -746.427812713     A.U. after   15 cycles
 Normal termination of Gaussian 16 at Tue Apr  8 23:20:51 2025.
 Gaussian 16:  ES64L-G16RevC.01  3-Jul-2019

 ----------------------------------------------------------------------
 #t hf aug-cc-pvdz iop(5/13=1,5/36=2,99/5=2) pseudo=read geom=check gue
 ss=(read,tcheck) scf=(maxcycle=1)
 ----------------------------------------------------------------------
 -----
 title
 -----
 Structure from the checkpoint file:  "BDE49_nonexpt_1133_mol1.chk"
 Charge =  0 Multiplicity = 1

                         Standard orientation:
 ---------------------------------------------------------------------
 Center     Atomic      Atomic             Coordinates (Angstroms)
 Number     Number       Type             X           Y           Z
 ---------------------------------------------------------------------
      1          9           0        2.142765   -0.361106   -0.000000
      2          8           0        0.766027   -0.764280   -0.000000
      3          6           0       -0.000366    0.363007   -0.000000
      4          8           0        0.323769    1.489481    0.000001
      5         17           0       -1.647121   -0.278217   -0.000000
 ---------------------------------------------------------------------

 SCF Done:  E(RHF) =  -747.761416146     A.U. after    2 cycles

 The electronic state is 1-A.
 Alpha  occ. eigenvalues --  -99.95285 -29.35283 -21.23299 -21.13385 -11.61108
 Alpha  occ. eigenvalues --  -10.52649  -9.72465  -9.71644  -9.71555  -1.93135
 Alpha  occ. eigenvalues --   -1.75859  -1.37188  -0.93743  -0.74760  -0.71401
 Alpha  occ. eigenvalues --   -0.68399  -0.59558  -0.55783  -0.55465  -0.45875
 Alpha  occ. eigenvalues --   -0.40724  -0.38228  -0.31642  -0.27824
 Alpha virt. eigenvalues --    0.05278   0.07134   0.10553   0.10706   0.11491
 Alpha virt. eigenvalues --    0.11647   0.14978   0.15567   0.16478   0.17795
 Alpha virt. eigenvalues --    0.20272   0.21142   0.23347   0.25166   0.27363

 Mulliken charges:
               1
     1  F    0.025999
     2  O   -1.118748
     3  C    3.014414
     4  O   -1.951787
     5  Cl   0.030122
 Sum of Mulliken charges =  -0.00000

 Dipole moment (field-independent basis, Debye):
    X=              3.2782    Y=              0.1680    Z=              0.0000  Tot=              3.2825

 Test job not archived.
 1\1\GINC-SE393\SP\RHF\Aug-CC-pVDZ\C1Cl1F1O2\OHZDE\08-Apr-2025\0\\#t hf
  aug-cc-pvdz iop(5/13=1,5/36=2,99/5=2) pseudo=read geom=check guess=(r
 ead,tcheck) scf=(maxcycle=1)\\title\\0,1\F,0,-2.142765,-0.361106,0.\O,
 0,-0.766027,-0.76428,0.\C,0,0.000366,0.363007,0.\O,0,-0.323769,1.48948
 1,-0.000001\Cl,0,1.647121,-0.278217,0.\\Version=ES64L-G16RevC.01\State
 =1-A\HF=-747.7614161\RMSD=4.222e-02\Dipole=-1.289757,0.0661091,-0.0000
 001\Quadrupole=2.7688376,-1.8489303,-0.9199073,0.1730277,-0.0000005,0.
 0000005\PG=C01 [X(C1Cl1F1O2)]\\@

 Normal termination of Gaussian 16 at Tue Apr  8 23:20:53 2025.
