 Gaussian 16, Revision C.01,

 ----------------------------------------------------------------------
 #t hf aug-cc-pvdz symm=none int=(grid=ultrafine) guess=(read,tcheck) s
 table=(opt,rrhf)
 ----------------------------------------------------------------------
 -----
 title
 -----
 Symbolic Z-matrix:
 Charge =  0 Multiplicity = 1

 SCF Done:  E(RHF) =  -320.258169103     A.U. after   15 cycles

 1\1\GINC-SE116\Stability\RHF\Aug-CC-pVDZ\C7H10B2\OHZDE\09-Apr-2025\0\\
 #t hf aug-cc-pvdz symm=none int=(grid=ultrafine) guess=(read,tcheck) s
 table=(opt,rrhf)\\title\\0,1\B,0,-2.372867,-0.466194,-0.41174\B,0,-3.3
 19363,0.808507,-0.827406\C,0,-1.53359,-0.630758,0.922869\C,0,-0.119682
 ,-0.28338,0.475889\C,0,0.73132,-1.26393,-0.051063\C,0,0.348586,1.03474
 3,0.544336\C,0,2.017737,-0.941221,-0.472783\C,0,2.475526,0.372456,-0.3
 8709\C,0,1.635359,1.359714,0.122501\H,0,0.382469,-2.289011,-0.120993\H
 ,0,2.664525,-1.717255,-0.867013\H,0,3.477814,0.6239,-0.714709\H,0,1.98

 Normal termination of Gaussian 16 at Wed Apr  9 00:38:21 2025.
 Gaussian 16:  ES64L-G16RevC.01  3-Jul-2019

 ----------------------------------------------------------------------
 #t hf aug-cc-pvdz iop(5/13=1,5/36=2,99/5=2) pseudo=read geom=check gue
 ss=(read,tcheck) scf=(maxcycle=1)
 ----------------------------------------------------------------------
 -----
 title
 -----
 Structure from the checkpoint file:  "BDE49_nonexpt_54_mol1.chk"
 Charge =  0 Multiplicity = 1

                         Standard orientation:
 ---------------------------------------------------------------------
 Center     Atomic      Atomic             Coordinates (Angstroms)
 Number     Number       Type             X           Y           Z
 ---------------------------------------------------------------------
      1          5           0       -2.372867   -0.466194   -0.411740
      2          5           0       -3.319363    0.808507   -0.827406
      3          6           0       -1.533590   -0.630758    0.922869
      4          6           0       -0.119682   -0.283380    0.475889
      5          6           0        0.731320   -1.263930   -0.051063
      6          6           0        0.348586    1.034743    0.544336
      7          6           0        2.017737   -0.941221   -0.472783
      8          6           0        2.475526    0.372456   -0.387090
      9          6           0        1.635359    1.359714    0.122501
     10          1           0        0.382469   -2.289011   -0.120993
     11          1           0        2.664525   -1.717255   -0.867013
     12          1           0        3.477814    0.623900   -0.714709
     13          1           0        1.981516    2.384903    0.193737
     14          1           0       -0.298112    1.810014    0.942656
     15          1           0       -1.559697   -1.658812    1.294487
     16          1           0       -1.839830    0.034710    1.733024
     17          1           0       -2.911733    1.800578   -1.355798
     18          1           0       -4.501049    0.774705   -0.629785
     19          1           0       -2.266295   -1.361039   -1.207824
 ---------------------------------------------------------------------

 SCF Done:  E(RHF) =  -321.807968734     A.U. after    2 cycles

 The electronic state is 1-A.
 Alpha  occ. eigenvalues --  -11.51525 -11.43888 -11.43036 -11.40590 -11.40299
 Alpha  occ. eigenvalues --  -11.37288 -11.35671  -7.59160  -7.58450  -1.35318
 Alpha  occ. eigenvalues --   -1.16235  -1.08792  -1.01984  -0.89055  -0.86080
 Alpha  occ. eigenvalues --   -0.82634  -0.70680  -0.69579  -0.64343  -0.60959
 Alpha  occ. eigenvalues --   -0.57619  -0.55513  -0.52449  -0.50967  -0.47564
 Alpha  occ. eigenvalues --   -0.45594  -0.43879  -0.42355  -0.37040  -0.32786
 Alpha  occ. eigenvalues --   -0.30756
 Alpha virt. eigenvalues --    0.02514   0.02850   0.02960   0.03731   0.05579
 Alpha virt. eigenvalues --    0.05664   0.06438   0.07148   0.07360   0.07960
 Alpha virt. eigenvalues --    0.08626   0.08757   0.09671   0.10461   0.10899

 Mulliken charges:
               1
     1  B    4.476015
     2  B    4.762520
     3  C   -4.830117
     4  C    4.428317
     5  C   -3.220123
     6  C   -2.396012
     7  C   -1.374567
     8  C   -2.926501
     9  C   -1.234254
    10  H    1.757515
    11  H    1.516514
    12  H    1.527011
    13  H    1.513193
    14  H    1.843155
    15  H    1.198051
    16  H    1.351765
    17  H   -2.553121
    18  H   -2.677053
    19  H   -3.162308
 Sum of Mulliken charges =  -0.00000

 Dipole moment (field-independent basis, Debye):
    X=              0.5029    Y=             -0.1706    Z=              0.5848  Tot=              0.7899

 Test job not archived.
 1\1\GINC-SE116\SP\RHF\Aug-CC-pVDZ\C7H10B2\OHZDE\09-Apr-2025\0\\#t hf a
 ug-cc-pvdz iop(5/13=1,5/36=2,99/5=2) pseudo=read geom=check guess=(rea
 d,tcheck) scf=(maxcycle=1)\\title\\0,1\B,0,-2.372867,-0.466194,-0.4117
 4\B,0,-3.319363,0.808507,-0.827406\C,0,-1.53359,-0.630758,0.922869\C,0
 ,-0.119682,-0.28338,0.475889\C,0,0.73132,-1.26393,-0.051063\C,0,0.3485
 86,1.034743,0.544336\C,0,2.017737,-0.941221,-0.472783\C,0,2.475526,0.3
 72456,-0.38709\C,0,1.635359,1.359714,0.122501\H,0,0.382469,-2.289011,-
 0.120993\H,0,2.664525,-1.717255,-0.867013\H,0,3.477814,0.6239,-0.71470

 Normal termination of Gaussian 16 at Wed Apr  9 00:38:31 2025.
