 Gaussian 16, Revision C.01,

 ----------------------------------------------------------------------
 #t hf aug-cc-pvdz symm=none int=(grid=ultrafine) guess=(read,tcheck) s
 table=opt
 ----------------------------------------------------------------------
 -----
 title
 -----
 Symbolic Z-matrix:
 Charge =  0 Multiplicity = 2

 SCF Done:  E(UHF) =  -580.727264816     A.U. after   14 cycles
 Normal termination of Gaussian 16 at Tue Apr  8 22:59:38 2025.
 Gaussian 16:  ES64L-G16RevC.01  3-Jul-2019

 ----------------------------------------------------------------------
 #t hf aug-cc-pvdz iop(5/13=1,5/36=2,99/5=2) pseudo=read geom=check gue
 ss=(read,tcheck) scf=(maxcycle=1)
 ----------------------------------------------------------------------
 -----
 title
 -----
 Structure from the checkpoint file:  "BDE49_expt_1939_mol2.chk"
 Charge =  0 Multiplicity = 2

                         Standard orientation:
 ---------------------------------------------------------------------
 Center     Atomic      Atomic             Coordinates (Angstroms)
 Number     Number       Type             X           Y           Z
 ---------------------------------------------------------------------
      1         14           0       -0.035083    1.217959    0.000000
      2         14           0       -0.035083   -1.127023   -0.000000
      3          1           0        0.569933    1.825276    1.212986
      4          1           0        0.569933    1.825276   -1.212986
      5          1           0       -0.746523   -1.611690    1.206397
      6          1           0        1.335495   -1.700279   -0.000000
      7          1           0       -0.746523   -1.611690   -1.206397
 ---------------------------------------------------------------------

 SCF Done:  E(UHF) =  -581.034800030     A.U. after    2 cycles

 The electronic state is 2-A'.
 Alpha  occ. eigenvalues --  -76.22915 -76.22364  -5.56293  -5.55747  -2.18211
 Alpha  occ. eigenvalues --   -2.17761  -2.17693  -2.17601  -2.16846  -2.16321
 Alpha  occ. eigenvalues --   -0.81744  -0.71365  -0.48852  -0.48001  -0.46366
 Alpha  occ. eigenvalues --   -0.37587  -0.26490
 Alpha virt. eigenvalues --    0.04168   0.04314   0.06610   0.07208   0.07574
 Alpha virt. eigenvalues --    0.08004   0.08163   0.09607   0.09611   0.09755
 Alpha virt. eigenvalues --    0.10042   0.13654   0.14172   0.14280   0.15745

  Beta  occ. eigenvalues --  -76.22390 -76.22351  -5.55751  -5.55460  -2.17800
  Beta  occ. eigenvalues --   -2.17724  -2.17481  -2.17026  -2.16431  -2.13002
  Beta  occ. eigenvalues --   -0.79723  -0.68206  -0.48668  -0.47170  -0.46315
  Beta  occ. eigenvalues --   -0.35905
  Beta virt. eigenvalues --    0.02779   0.04344   0.04625   0.06673   0.07737
  Beta virt. eigenvalues --    0.07839   0.08068   0.08902   0.09646   0.10012
  Beta virt. eigenvalues --    0.10147   0.11017   0.14484   0.14859   0.15467

 Mulliken charges and spin densities:
               1          2
     1  Si   2.768239   1.172591
     2  Si   4.263347  -0.114164
     3  H   -1.327238  -0.042156
     4  H   -1.327238  -0.042156
     5  H   -1.447835  -0.001532
     6  H   -1.481438   0.028949
     7  H   -1.447835  -0.001532
 Sum of Mulliken charges =   0.00000   1.00000

 Dipole moment (field-independent basis, Debye):
    X=             -0.2947    Y=              0.0855    Z=              0.0000  Tot=              0.3069
                          Isotropic Fermi Contact Couplings
        Atom                 a.u.       MegaHertz       Gauss      10(-4) cm-1
     1  Si(29)             0.36621    -325.46140    -116.13272    -108.56224
     2  Si(29)             0.01279     -11.36641      -4.05582      -3.79142
     3  H(1)              -0.00278     -12.43573      -4.43738      -4.14811
     4  H(1)              -0.00278     -12.43573      -4.43738      -4.14811
     5  H(1)              -0.00112      -4.99395      -1.78197      -1.66580
     6  H(1)               0.01003      44.81498      15.99110      14.94867
     7  H(1)              -0.00112      -4.99395      -1.78197      -1.66580
 --------------------------------------------------------

 Normal termination of Gaussian 16 at Tue Apr  8 22:59:40 2025.
