 Gaussian 16, Revision C.01,

 ----------------------------------------------------------------------
 #t hf aug-cc-pvdz symm=none int=(grid=ultrafine) guess=(read,tcheck) s
 table=(opt,rrhf)
 ----------------------------------------------------------------------
 -----
 title
 -----
 Symbolic Z-matrix:
 Charge =  0 Multiplicity = 1

 SCF Done:  E(RHF) =  -776.715005586     A.U. after   15 cycles
 Normal termination of Gaussian 16 at Tue Apr  8 23:39:31 2025.
 Gaussian 16:  ES64L-G16RevC.01  3-Jul-2019

 ----------------------------------------------------------------------
 #t hf aug-cc-pvdz iop(5/13=1,5/36=2,99/5=2) pseudo=read geom=check gue
 ss=(read,tcheck) scf=(maxcycle=1)
 ----------------------------------------------------------------------
 -----
 title
 -----
 Structure from the checkpoint file:  "BDE49_nonexpt_1555_mol1.chk"
 Charge =  0 Multiplicity = 1

                         Standard orientation:
 ---------------------------------------------------------------------
 Center     Atomic      Atomic             Coordinates (Angstroms)
 Number     Number       Type             X           Y           Z
 ---------------------------------------------------------------------
      1          6           0       -2.370988   -1.240690   -0.312927
      2          6           0       -1.081687   -1.251740    0.211205
      3          6           0       -3.039168   -0.030998   -0.496244
      4          6           0       -2.413461    1.167665   -0.159753
      5          6           0       -1.119013    1.158495    0.356322
      6          6           0       -0.436813   -0.053013    0.552932
      7          1           0       -0.637407    2.094773    0.614509
      8          1           0       -4.046419   -0.022883   -0.897389
      9          1           0       -2.931710    2.109738   -0.299742
     10          1           0       -2.856812   -2.174621   -0.572059
     11          1           0       -0.568502   -2.195468    0.360216
     12          7           0        2.293679    0.187444   -0.201910
     13          8           0        2.306678   -1.027331   -0.964806
     14          8           0        1.832444    1.217455   -1.044268
     15          1           0        0.937614    0.958604   -1.328455
     16          1           0        3.204882   -1.048763   -1.317275
     17         15           0        1.276644   -0.149333    1.222648
     18          1           0        1.346741    1.187203    1.677238
 ---------------------------------------------------------------------

 SCF Done:  E(RHF) =  -778.871913792     A.U. after    2 cycles

 The electronic state is 1-A.
 Alpha  occ. eigenvalues -- -105.20603 -21.09867 -21.09484 -15.79558 -11.52795
 Alpha  occ. eigenvalues --  -11.44408 -11.44072 -11.42091 -11.41633 -11.37502
 Alpha  occ. eigenvalues --   -2.78221  -1.85579  -1.67424  -1.53922  -1.50164
 Alpha  occ. eigenvalues --   -1.48137  -1.33818  -1.10409  -1.09218  -1.02119
 Alpha  occ. eigenvalues --   -0.87493  -0.85519  -0.75298  -0.70217  -0.66405
 Alpha  occ. eigenvalues --   -0.63634  -0.59497  -0.57845  -0.55767  -0.52826
 Alpha  occ. eigenvalues --   -0.51948  -0.50813  -0.46362  -0.45746  -0.35256
 Alpha  occ. eigenvalues --   -0.34642  -0.34250  -0.31230  -0.26299  -0.23345
 Alpha  occ. eigenvalues --   -0.02093
 Alpha virt. eigenvalues --    0.03416   0.04940   0.05118   0.06063   0.06676
 Alpha virt. eigenvalues --    0.07025   0.07774   0.07967   0.09560   0.09937
 Alpha virt. eigenvalues --    0.10693   0.11159   0.12491   0.13057   0.13618

 Mulliken charges:
               1
     1  C   -0.738869
     2  C   -3.840260
     3  C   -2.008698
     4  C   -0.519079
     5  C   -3.991279
     6  C    2.499326
     7  H    1.925129
     8  H    1.456532
     9  H    1.473843
    10  H    1.551051
    11  H    1.955888
    12  N    2.107074
    13  O   -2.578930
    14  O   -2.451917
    15  H    0.975125
    16  H    0.943392
    17  P    2.615554
    18  H   -1.373881
 Sum of Mulliken charges =  -0.00000

 Dipole moment (field-independent basis, Debye):
    X=             -1.0315    Y=             -0.9326    Z=             -1.2504  Tot=              1.8701

 Test job not archived.
 1\1\GINC-SE341\SP\RHF\Aug-CC-pVDZ\C6H8N1O2P1\OHZDE\08-Apr-2025\0\\#t h
 f aug-cc-pvdz iop(5/13=1,5/36=2,99/5=2) pseudo=read geom=check guess=(
 read,tcheck) scf=(maxcycle=1)\\title\\0,1\C,0,2.370988,1.24069,-0.3129
 27\C,0,1.081687,1.25174,0.211205\C,0,3.039168,0.030998,-0.496244\C,0,2
 .413461,-1.167665,-0.159753\C,0,1.119013,-1.158495,0.356322\C,0,0.4368
 13,0.053013,0.552932\H,0,0.637407,-2.094773,0.614509\H,0,4.046419,0.02
 2883,-0.897389\H,0,2.93171,-2.109738,-0.299742\H,0,2.856812,2.174621,-
 0.572059\H,0,0.568502,2.195468,0.360216\N,0,-2.293679,-0.187444,-0.201

 Normal termination of Gaussian 16 at Tue Apr  8 23:39:40 2025.
