 Gaussian 16, Revision C.01,

 ----------------------------------------------------------------------
 #t hf aug-cc-pvdz symm=none int=(grid=ultrafine) guess=(read,tcheck) s
 table=(opt,rrhf)
 ----------------------------------------------------------------------
 -----
 title
 -----
 Symbolic Z-matrix:
 Charge =  0 Multiplicity = 1

 SCF Done:  E(RHF) =  -349.949792799     A.U. after   14 cycles
 Normal termination of Gaussian 16 at Wed Apr  9 00:40:21 2025.
 Gaussian 16:  ES64L-G16RevC.01  3-Jul-2019

 ----------------------------------------------------------------------
 #t hf aug-cc-pvdz iop(5/13=1,5/36=2,99/5=2) pseudo=read geom=check gue
 ss=(read,tcheck) scf=(maxcycle=1)
 ----------------------------------------------------------------------
 -----
 title
 -----
 Structure from the checkpoint file:  "BDE49_nonexpt_640_mol1.chk"
 Charge =  0 Multiplicity = 1

                         Standard orientation:
 ---------------------------------------------------------------------
 Center     Atomic      Atomic             Coordinates (Angstroms)
 Number     Number       Type             X           Y           Z
 ---------------------------------------------------------------------
      1          9           0        1.794120   -0.069862   -0.000026
      2          8           0        0.597345   -0.868938   -0.000002
      3          5           0       -0.499788    0.018967    0.000022
      4          8           0       -1.684371   -0.633853    0.000007
      5          1           0       -2.432315   -0.029425    0.000003
      6          8           0       -0.381879    1.365887    0.000009
      7          1           0        0.535413    1.658579    0.000003
 ---------------------------------------------------------------------

 SCF Done:  E(RHF) =  -351.277550939     A.U. after    2 cycles

 The electronic state is 1-A.
 Alpha  occ. eigenvalues --  -29.31290 -21.14286 -21.08360 -21.08068  -7.69460
 Alpha  occ. eigenvalues --   -1.92951  -1.72843  -1.69605  -0.82559  -0.71401
 Alpha  occ. eigenvalues --   -0.65149  -0.63665  -0.58393  -0.48575  -0.46445
 Alpha  occ. eigenvalues --   -0.40433  -0.39078  -0.36949  -0.27301  -0.24830
 Alpha virt. eigenvalues --    0.02941   0.04924   0.05020   0.06809   0.06999
 Alpha virt. eigenvalues --    0.09111   0.14030   0.18431   0.20369   0.20611
 Alpha virt. eigenvalues --    0.20896   0.21456   0.23160   0.23370   0.23442

 Mulliken charges:
               1
     1  F   -0.095922
     2  O   -1.808521
     3  B    7.119581
     4  O   -3.688461
     5  H    0.804390
     6  O   -3.437690
     7  H    1.106623
 Sum of Mulliken charges =   0.00000

 Dipole moment (field-independent basis, Debye):
    X=              1.2346    Y=              1.5102    Z=             -0.0000  Tot=              1.9506

 Test job not archived.
 1\1\GINC-SE253\SP\RHF\Aug-CC-pVDZ\B1F1H2O3\OHZDE\09-Apr-2025\0\\#t hf
 aug-cc-pvdz iop(5/13=1,5/36=2,99/5=2) pseudo=read geom=check guess=(re
 ad,tcheck) scf=(maxcycle=1)\\title\\0,1\F,0,1.79412,-0.069862,-0.00002
 6\O,0,0.597345,-0.868938,-0.000002\B,0,-0.499788,0.018967,0.000022\O,0
 ,-1.684371,-0.633853,0.000007\H,0,-2.432315,-0.029426,0.000003\O,0,-0.
 381879,1.365887,0.000009\H,0,0.535413,1.658579,0.000003\\Version=ES64L
 -G16RevC.01\State=1-A\HF=-351.2775509\RMSD=1.206e-01\Dipole=0.4857441,
 0.5941481,0.\Quadrupole=3.4554435,-2.3423558,-1.1130877,0.3535854,-0.0

 Normal termination of Gaussian 16 at Wed Apr  9 00:40:23 2025.
