 Gaussian 16, Revision C.01,

 ----------------------------------------------------------------------
 #t hf aug-cc-pvdz symm=none int=(grid=ultrafine) guess=(read,tcheck) s
 table=(opt,rrhf)
 ----------------------------------------------------------------------
 -----
 title
 -----
 Symbolic Z-matrix:
 Charge =  0 Multiplicity = 1

 SCF Done:  E(RHF) =  -995.020782791     A.U. after   14 cycles
 Normal termination of Gaussian 16 at Wed Apr  9 00:13:47 2025.
 Gaussian 16:  ES64L-G16RevC.01  3-Jul-2019

 ----------------------------------------------------------------------
 #t hf aug-cc-pvdz iop(5/13=1,5/36=2,99/5=2) pseudo=read geom=check gue
 ss=(read,tcheck) scf=(maxcycle=1)
 ----------------------------------------------------------------------
 -----
 title
 -----
 Structure from the checkpoint file:  "BDE49_nonexpt_2371_mol1.chk"
 Charge =  0 Multiplicity = 1

                         Standard orientation:
 ---------------------------------------------------------------------
 Center     Atomic      Atomic             Coordinates (Angstroms)
 Number     Number       Type             X           Y           Z
 ---------------------------------------------------------------------
      1         14           0       -1.154448   -1.567201   -0.450269
      2         14           0        0.924553   -1.502649    0.673302
      3          6           0        1.829348    0.128143    0.178272
      4          1           0        1.798200   -2.669441    0.368676
      5          1           0        0.748756   -1.432357    2.143698
      6          8           0        1.196030    1.187795    0.214226
      7          7           0        3.133115    0.073089   -0.192890
      8          6           0       -2.298497   -0.033588   -0.183489
      9          1           0       -1.902578   -2.754918    0.014480
     10          1           0       -0.890976   -1.703202   -1.903969
     11          8           0       -3.495341   -0.221058   -0.376700
     12          7           0       -1.751238    1.151603    0.176228
     13          6           0        3.909551    1.246321   -0.577625
     14          1           0        3.585948   -0.827506   -0.191952
     15          1           0        3.243357    2.106078   -0.546576
     16          1           0        4.306341    1.132944   -1.589640
     17          1           0        4.738954    1.410486    0.115443
     18          6           0       -2.551241    2.358609    0.334377
     19          1           0       -0.737854    1.224805    0.251361
     20          1           0       -2.325865    3.086787   -0.450944
     21          1           0       -2.357753    2.819973    1.306116
     22          1           0       -3.601612    2.080598    0.268069
 ---------------------------------------------------------------------

 SCF Done:  E(RHF) =  -997.192778158     A.U. after    2 cycles

 The electronic state is 1-A.
 Alpha  occ. eigenvalues --  -76.23591 -76.22609 -21.04189 -21.01176 -15.78613
 Alpha  occ. eigenvalues --  -15.74327 -11.47808 -11.45069 -11.41147 -11.38228
 Alpha  occ. eigenvalues --   -5.57226  -5.56187  -2.21159  -2.20038  -2.19567
 Alpha  occ. eigenvalues --   -2.19004  -2.18348  -2.17536  -1.71765  -1.68182
 Alpha  occ. eigenvalues --   -1.40274  -1.36667  -1.03959  -1.00758  -0.86098
 Alpha  occ. eigenvalues --   -0.81197  -0.79092  -0.74324  -0.66155  -0.63226
 Alpha  occ. eigenvalues --   -0.62982  -0.60160  -0.59706  -0.56145  -0.54569
 Alpha  occ. eigenvalues --   -0.52581  -0.51454  -0.50375  -0.48618  -0.48233
 Alpha  occ. eigenvalues --   -0.46190  -0.44546  -0.37766  -0.32604  -0.29255
 Alpha  occ. eigenvalues --   -0.28950  -0.24964
 Alpha virt. eigenvalues --    0.02835   0.04296   0.04671   0.05121   0.05349
 Alpha virt. eigenvalues --    0.05631   0.06355   0.06867   0.07052   0.07446
 Alpha virt. eigenvalues --    0.07936   0.08101   0.08572   0.09303   0.09460

 Mulliken charges:
               1
     1  Si   4.629349
     2  Si   4.568256
     3  C    3.422317
     4  H   -1.828595
     5  H   -1.969942
     6  O   -2.973801
     7  N   -3.195029
     8  C    2.681008
     9  H   -1.828608
    10  H   -1.764422
    11  O   -2.810780
    12  N   -2.806976
    13  C   -3.513310
    14  H    0.880436
    15  H    1.489060
    16  H    1.365844
    17  H    1.373486
    18  C   -3.431437
    19  H    1.496625
    20  H    1.407120
    21  H    1.412994
    22  H    1.396403
 Sum of Mulliken charges =  -0.00000

 Dipole moment (field-independent basis, Debye):
    X=              4.0685    Y=              1.1841    Z=             -0.0955  Tot=              4.2384

 Test job not archived.
 1\1\GINC-SE094\SP\RHF\Aug-CC-pVDZ\C4H12N2O2Si2\OHZDE\09-Apr-2025\0\\#t
  hf aug-cc-pvdz iop(5/13=1,5/36=2,99/5=2) pseudo=read geom=check guess
 =(read,tcheck) scf=(maxcycle=1)\\title\\0,1\Si,0,-1.154448,-1.567201,-
 0.450269\Si,0,0.924553,-1.502649,0.673302\C,0,1.829348,0.128143,0.1782
 72\H,0,1.7982,-2.669441,0.368676\H,0,0.748756,-1.432357,2.143698\O,0,1
 .19603,1.187795,0.214226\N,0,3.133115,0.073089,-0.19289\C,0,-2.298497,
 -0.033588,-0.183489\H,0,-1.902578,-2.754918,0.01448\H,0,-0.890976,-1.7
 03202,-1.903969\O,0,-3.495341,-0.221058,-0.3767\N,0,-1.751238,1.151603

 Normal termination of Gaussian 16 at Wed Apr  9 00:14:00 2025.
