 Gaussian 16, Revision C.01,

 ----------------------------------------------------------------------
 #t hf aug-cc-pvdz symm=none int=(grid=ultrafine) guess=(read,tcheck) s
 table=(opt,rrhf)
 ----------------------------------------------------------------------
 -----
 title
 -----
 Symbolic Z-matrix:
 Charge =  0 Multiplicity = 1

 SCF Done:  E(RHF) =  -932.219399231     A.U. after   12 cycles
 Normal termination of Gaussian 16 at Tue Apr  8 23:58:02 2025.
 Gaussian 16:  ES64L-G16RevC.01  3-Jul-2019

 ----------------------------------------------------------------------
 #t hf aug-cc-pvdz iop(5/13=1,5/36=2,99/5=2) pseudo=read geom=check gue
 ss=(read,tcheck) scf=(maxcycle=1)
 ----------------------------------------------------------------------
 -----
 title
 -----
 Structure from the checkpoint file:  "BDE49_nonexpt_2040_mol1.chk"
 Charge =  0 Multiplicity = 1

                         Standard orientation:
 ---------------------------------------------------------------------
 Center     Atomic      Atomic             Coordinates (Angstroms)
 Number     Number       Type             X           Y           Z
 ---------------------------------------------------------------------
      1         14           0       -2.230034   -0.013183   -0.018411
      2         15           0        0.751853   -0.032930    0.101441
      3          8           0        0.790311   -0.532012    1.478014
      4          8           0        1.693615   -0.827575   -0.918250
      5          1           0        1.858425   -1.726023   -0.609005
      6          8           0        1.188970    1.481293   -0.134989
      7          1           0        1.966551    1.716938    0.384614
      8          8           0       -0.657879   -0.033125   -0.599301
      9          1           0       -3.072035    0.248849   -1.198278
     10          1           0       -2.380268    1.057183    0.985235
     11          1           0       -2.550141   -1.327077    0.569783
 ---------------------------------------------------------------------

 SCF Done:  E(RHF) =  -933.818942184     A.U. after    2 cycles

 The electronic state is 1-A.
 Alpha  occ. eigenvalues -- -105.33160 -76.26124 -21.12250 -21.12082 -21.08925
 Alpha  occ. eigenvalues --  -21.02847  -5.59520  -2.96719  -2.25919  -2.21386
 Alpha  occ. eigenvalues --   -2.21161  -2.00872  -1.93196  -1.91803  -1.74801
 Alpha  occ. eigenvalues --   -1.41284  -1.40345  -1.25802  -0.78188  -0.68602
 Alpha  occ. eigenvalues --   -0.61401  -0.56425  -0.52920  -0.52047  -0.47361
 Alpha  occ. eigenvalues --   -0.45332  -0.44640  -0.39566  -0.35213  -0.34840
 Alpha  occ. eigenvalues --   -0.31021  -0.29578  -0.17365
 Alpha virt. eigenvalues --    0.03626   0.04846   0.05864   0.06372   0.06743
 Alpha virt. eigenvalues --    0.08125   0.09544   0.09672   0.11684   0.11802
 Alpha virt. eigenvalues --    0.13663   0.14557   0.15253   0.17218   0.18204

 Mulliken charges:
               1
     1  Si   6.207182
     2  P    8.696787
     3  O   -2.722452
     4  O   -2.502904
     5  H    0.791415
     6  O   -2.548705
     7  H    0.823054
     8  O   -3.877908
     9  H   -1.673055
    10  H   -1.571825
    11  H   -1.621589
 Sum of Mulliken charges =   0.00000

 Dipole moment (field-independent basis, Debye):
    X=              0.6385    Y=              0.6362    Z=             -2.4072  Tot=              2.5704

 Test job not archived.
 1\1\GINC-SE106\SP\RHF\Aug-CC-pVDZ\H5O4P1Si1\OHZDE\08-Apr-2025\0\\#t hf
  aug-cc-pvdz iop(5/13=1,5/36=2,99/5=2) pseudo=read geom=check guess=(r
 ead,tcheck) scf=(maxcycle=1)\\title\\0,1\Si,0,-2.230034,-0.013183,-0.0
 18411\P,0,0.751853,-0.03293,0.101441\O,0,0.790311,-0.532012,1.478014\O
 ,0,1.693615,-0.827575,-0.91825\H,0,1.858425,-1.726023,-0.609005\O,0,1.
 18897,1.481293,-0.134989\H,0,1.966551,1.716938,0.384614\O,0,-0.657879,
 -0.033125,-0.599301\H,0,-3.072035,0.248849,-1.198278\H,0,-2.380268,1.0
 57183,0.985235\H,0,-2.550141,-1.327077,0.569783\\Version=ES64L-G16RevC

 Normal termination of Gaussian 16 at Tue Apr  8 23:58:06 2025.
