 Gaussian 16, Revision C.01,

 ----------------------------------------------------------------------
 #t hf aug-cc-pvdz symm=none int=(grid=ultrafine) guess=(read,tcheck) s
 table=(opt,rrhf)
 ----------------------------------------------------------------------
 -----
 title
 -----
 Symbolic Z-matrix:
 Charge =  0 Multiplicity = 1

 SCF Done:  E(RHF) =  -705.573859013     A.U. after   14 cycles
 Normal termination of Gaussian 16 at Tue Apr  8 23:51:50 2025.
 Gaussian 16:  ES64L-G16RevC.01  3-Jul-2019

 ----------------------------------------------------------------------
 #t hf aug-cc-pvdz iop(5/13=1,5/36=2,99/5=2) pseudo=read geom=check gue
 ss=(read,tcheck) scf=(maxcycle=1)
 ----------------------------------------------------------------------
 -----
 title
 -----
 Structure from the checkpoint file:  "BDE49_nonexpt_1879_mol1.chk"
 Charge =  0 Multiplicity = 1

                         Standard orientation:
 ---------------------------------------------------------------------
 Center     Atomic      Atomic             Coordinates (Angstroms)
 Number     Number       Type             X           Y           Z
 ---------------------------------------------------------------------
      1          6           0        1.058359   -0.867983    0.694642
      2         14           0       -0.623089   -1.198386   -0.163197
      3          6           0        1.791813    0.288615    0.068677
      4          8           0        1.305778    1.392923   -0.041950
      5          8           0        3.030308    0.071803   -0.408788
      6          6           0       -1.850929    0.280014   -0.031987
      7          1           0       -1.243279   -2.355752    0.507040
      8          1           0       -0.379600   -1.493754   -1.591890
      9          8           0       -3.019790    0.005019   -0.154017
     10          8           0       -1.437872    1.536928    0.178371
     11          1           0        3.307386   -0.834133   -0.230911
     12          1           0       -0.457215    1.587629    0.172193
     13          1           0        1.645658   -1.790247    0.722463
     14          1           0        0.827451   -0.593597    1.728940
 ---------------------------------------------------------------------

 SCF Done:  E(RHF) =  -707.469940722     A.U. after    2 cycles

 The electronic state is 1-A.
 Alpha  occ. eigenvalues --  -76.25680 -21.16153 -21.10373 -21.08317 -21.05219
 Alpha  occ. eigenvalues --  -11.57105 -11.48514 -11.42598  -5.59304  -2.23423
 Alpha  occ. eigenvalues --   -2.22108  -2.21641  -1.86516  -1.80626  -1.69406
 Alpha  occ. eigenvalues --   -1.64551  -1.15010  -0.87129  -0.83557  -0.75059
 Alpha  occ. eigenvalues --   -0.72130  -0.66724  -0.64686  -0.59909  -0.55268
 Alpha  occ. eigenvalues --   -0.54378  -0.52738  -0.50972  -0.48783  -0.44901
 Alpha  occ. eigenvalues --   -0.44022  -0.37197  -0.33531  -0.32460  -0.27452
 Alpha virt. eigenvalues --    0.01732   0.04203   0.04340   0.05037   0.06296
 Alpha virt. eigenvalues --    0.07232   0.07730   0.08450   0.09388   0.10797
 Alpha virt. eigenvalues --    0.11104   0.11777   0.12293   0.12996   0.13233

 Mulliken charges:
               1
     1  C   -4.208742
     2  Si   5.664029
     3  C    5.413032
     4  O   -3.137891
     5  O   -2.901911
     6  C    3.045730
     7  H   -1.740951
     8  H   -1.909195
     9  O   -2.550092
    10  O   -2.955186
    11  H    0.848560
    12  H    1.594789
    13  H    1.393964
    14  H    1.443862
 Sum of Mulliken charges =  -0.00000

 Dipole moment (field-independent basis, Debye):
    X=              3.6509    Y=             -1.9279    Z=              0.8545  Tot=              4.2161

 Test job not archived.
 1\1\GINC-SE419\SP\RHF\Aug-CC-pVDZ\C3H6O4Si1\OHZDE\08-Apr-2025\0\\#t hf
  aug-cc-pvdz iop(5/13=1,5/36=2,99/5=2) pseudo=read geom=check guess=(r
 ead,tcheck) scf=(maxcycle=1)\\title\\0,1\C,0,1.058359,-0.867983,0.6946
 42\Si,0,-0.623089,-1.198386,-0.163197\C,0,1.791813,0.288615,0.068677\O
 ,0,1.305778,1.392923,-0.04195\O,0,3.030308,0.071803,-0.408788\C,0,-1.8
 50929,0.280014,-0.031987\H,0,-1.243279,-2.355752,0.50704\H,0,-0.3796,-
 1.493754,-1.59189\O,0,-3.01979,0.005019,-0.154017\O,0,-1.437872,1.5369
 28,0.178371\H,0,3.307386,-0.834133,-0.230911\H,0,-0.457215,1.587629,0.

 Normal termination of Gaussian 16 at Tue Apr  8 23:51:55 2025.
