 Gaussian 16, Revision C.01,

 ----------------------------------------------------------------------
 #t hf aug-cc-pvdz symm=none int=(grid=ultrafine) guess=(read,tcheck) s
 table=(opt,rrhf)
 ----------------------------------------------------------------------
 -----
 title
 -----
 Symbolic Z-matrix:
 Charge =  0 Multiplicity = 1

 SCF Done:  E(RHF) =  -853.933637827     A.U. after   14 cycles
 Normal termination of Gaussian 16 at Tue Apr  8 23:22:41 2025.
 Gaussian 16:  ES64L-G16RevC.01  3-Jul-2019

 ----------------------------------------------------------------------
 #t hf aug-cc-pvdz iop(5/13=1,5/36=2,99/5=2) pseudo=read geom=check gue
 ss=(read,tcheck) scf=(maxcycle=1)
 ----------------------------------------------------------------------
 -----
 title
 -----
 Structure from the checkpoint file:  "BDE49_expt_809_mol1.chk"
 Charge =  0 Multiplicity = 1

                         Standard orientation:
 ---------------------------------------------------------------------
 Center     Atomic      Atomic             Coordinates (Angstroms)
 Number     Number       Type             X           Y           Z
 ---------------------------------------------------------------------
      1         14           0       -0.616798    1.412407    0.097798
      2          6           0       -1.915332    0.321275   -0.751645
      3          6           0        1.043105    0.534449    0.305704
      4          6           0        1.688206   -0.062107   -0.789146
      5          6           0        2.919084   -0.673393   -0.615818
      6          6           0        3.556072   -0.723015    0.615190
      7          6           0        2.924349   -0.132321    1.706128
      8          6           0        1.684900    0.488195    1.553175
      9          1           0        1.210838    0.940285    2.417755
     10          1           0        1.252707   -0.063271   -1.782794
     11          1           0        3.402833   -0.158310    2.678764
     12          6           0       -0.378650    2.959407   -0.950368
     13          1           0       -1.042205    1.816736    1.462375
     14          1           0       -0.056812    2.705848   -1.965080
     15          1           0        0.381149    3.613498   -0.514392
     16          1           0       -1.310801    3.527128   -1.027534
     17          6           0       -2.682230   -0.783530    0.028425
     18          1           0       -1.411419   -0.141171   -1.612155
     19          1           0       -2.651389    1.008794   -1.190137
     20          6           0       -1.706350   -1.778767    0.681964
     21          1           0       -1.041309   -2.228815   -0.060999
     22          1           0       -2.255298   -2.587883    1.173741
     23          1           0       -1.079621   -1.297670    1.437748
     24          6           0       -3.575991   -0.151701    1.112218
     25          1           0       -2.987659    0.385960    1.859716
     26          1           0       -4.152740   -0.922093    1.633236
     27          1           0       -4.286862    0.555376    0.672617
     28          6           0       -3.579157   -1.548045   -0.966348
     29          1           0       -2.980894   -2.029269   -1.746260
     30          1           0       -4.288317   -0.873571   -1.456242
     31          1           0       -4.154875   -2.327444   -0.456917
     32          1           0        4.517796   -1.213119    0.702293
     33          9           0        3.522448   -1.243044   -1.685752
 ---------------------------------------------------------------------

 SCF Done:  E(RHF) =  -856.781166628     A.U. after    2 cycles

 The electronic state is 1-A.
 Alpha  occ. eigenvalues --  -76.19845 -29.28077 -11.53765 -11.46857 -11.43632
 Alpha  occ. eigenvalues --  -11.42334 -11.42132 -11.41332 -11.38712 -11.38569
 Alpha  occ. eigenvalues --  -11.38271 -11.37220 -11.34917 -11.34000  -5.53776
 Alpha  occ. eigenvalues --   -2.19191  -2.17899  -2.17480  -1.36670  -1.28444
 Alpha  occ. eigenvalues --   -1.14630  -1.10736  -1.04204  -0.99979  -0.99957
 Alpha  occ. eigenvalues --   -0.99169  -0.91483  -0.88288  -0.77943  -0.75541
 Alpha  occ. eigenvalues --   -0.69128  -0.67893  -0.62391  -0.62136  -0.60735
 Alpha  occ. eigenvalues --   -0.60340  -0.59411  -0.56698  -0.55593  -0.55456
 Alpha  occ. eigenvalues --   -0.54485  -0.53861  -0.52649  -0.51124  -0.50690
 Alpha  occ. eigenvalues --   -0.47584  -0.45861  -0.44724  -0.42358  -0.41571
 Alpha  occ. eigenvalues --   -0.41367  -0.39531  -0.37479  -0.36510  -0.33627
 Alpha  occ. eigenvalues --   -0.26785  -0.23105
 Alpha virt. eigenvalues --    0.03556   0.04366   0.04923   0.05128   0.05393
 Alpha virt. eigenvalues --    0.05633   0.05892   0.06083   0.06217   0.06433
 Alpha virt. eigenvalues --    0.06678   0.07445   0.07861   0.08158   0.08597

 Mulliken charges:
               1
     1  Si   8.055539
     2  C   -5.904634
     3  C    0.436383
     4  C   -4.552069
     5  C    3.537685
     6  C   -5.263719
     7  C    0.188038
     8  C   -3.861118
     9  H    1.801844
    10  H    2.019751
    11  H    1.602358
    12  C   -5.811691
    13  H   -2.719237
    14  H    1.403212
    15  H    1.108442
    16  H    1.158218
    17  C    6.585827
    18  H    1.533030
    19  H    1.478888
    20  C   -5.789747
    21  H    1.383255
    22  H    1.046087
    23  H    1.561424
    24  C   -5.476986
    25  H    1.432448
    26  H    1.178645
    27  H    1.201755
    28  C   -5.276460
    29  H    1.228321
    30  H    1.176236
    31  H    1.250276
    32  H    1.807574
    33  F    0.480423
 Sum of Mulliken charges =  -0.00000

 Dipole moment (field-independent basis, Debye):
    X=              1.0143    Y=             -1.1275    Z=             -1.8579  Tot=              2.3983

 Test job not archived.
 1\1\GINC-SE162\SP\RHF\Aug-CC-pVDZ\C12H19F1Si1\OHZDE\08-Apr-2025\0\\#t
 hf aug-cc-pvdz iop(5/13=1,5/36=2,99/5=2) pseudo=read geom=check guess=
 (read,tcheck) scf=(maxcycle=1)\\title\\0,1\Si,0,-0.616798,1.412407,0.0
 97798\C,0,-1.915332,0.321275,-0.751645\C,0,1.043105,0.534449,0.305704\
 C,0,1.688206,-0.062107,-0.789146\C,0,2.919084,-0.673393,-0.615818\C,0,
 3.556072,-0.723015,0.61519\C,0,2.924349,-0.132321,1.706128\C,0,1.6849,
 0.488195,1.553175\H,0,1.210838,0.940285,2.417755\H,0,1.252707,-0.06327
 1,-1.782794\H,0,3.402833,-0.15831,2.678764\C,0,-0.37865,2.959407,-0.95

 Normal termination of Gaussian 16 at Tue Apr  8 23:23:23 2025.
