 Gaussian 16, Revision C.01,

 ----------------------------------------------------------------------
 #t hf aug-cc-pvdz symm=none int=(grid=ultrafine) guess=(read,tcheck) s
 table=opt
 ----------------------------------------------------------------------
 -----
 title
 -----
 Symbolic Z-matrix:
 Charge =  0 Multiplicity = 2

 SCF Done:  E(UHF) =  -539.848383348     A.U. after   15 cycles
 Normal termination of Gaussian 16 at Tue Apr  8 23:41:08 2025.
 Gaussian 16:  ES64L-G16RevC.01  3-Jul-2019

 ----------------------------------------------------------------------
 #t hf aug-cc-pvdz iop(5/13=1,5/36=2,99/5=2) pseudo=read geom=check gue
 ss=(read,tcheck) scf=(maxcycle=1)
 ----------------------------------------------------------------------
 -----
 title
 -----
 Structure from the checkpoint file:  "BDE49_nonexpt_163_mol2.chk"
 Charge =  0 Multiplicity = 2

                         Standard orientation:
 ---------------------------------------------------------------------
 Center     Atomic      Atomic             Coordinates (Angstroms)
 Number     Number       Type             X           Y           Z
 ---------------------------------------------------------------------
      1         17           0       -1.102394    0.068958   -0.000006
      2          7           0        1.685415    0.142116    0.000008
      3          5           0        0.529700   -0.608331    0.000004
      4          1           0        1.694012    1.155610    0.000006
      5          1           0        2.600284   -0.281048    0.000014
 ---------------------------------------------------------------------

 SCF Done:  E(UHF) =  -540.428732573     A.U. after    2 cycles

 The electronic state is 2-A.
 Alpha  occ. eigenvalues --  -99.88415 -15.74991 -10.45702  -9.65667  -9.65130
 Alpha  occ. eigenvalues --   -9.64930  -7.67608  -1.38325  -1.27706  -0.79146
 Alpha  occ. eigenvalues --   -0.70170  -0.61214  -0.54528  -0.52328  -0.42600
 Alpha  occ. eigenvalues --   -0.33998
 Alpha virt. eigenvalues --    0.03052   0.03959   0.04553   0.05287   0.08900
 Alpha virt. eigenvalues --    0.10492   0.12256   0.14425   0.17275   0.17430
 Alpha virt. eigenvalues --    0.17634   0.18451   0.19962   0.20220   0.22513

  Beta  occ. eigenvalues --  -99.88317 -15.75081 -10.45586  -9.65476  -9.64895
  Beta  occ. eigenvalues --   -9.64873  -7.65498  -1.37261  -1.27232  -0.76402
  Beta  occ. eigenvalues --   -0.68624  -0.59013  -0.54189  -0.51061  -0.43283
  Beta virt. eigenvalues --    0.02254   0.04010   0.04124   0.04635   0.07578
  Beta virt. eigenvalues --    0.09245   0.12962   0.14753   0.15104   0.17440
  Beta virt. eigenvalues --    0.17571   0.17833   0.18843   0.20068   0.21032

 Mulliken charges and spin densities:
               1          2
     1  Cl  -0.808721   0.062121
     2  N   -2.152852  -0.151823
     3  B    1.126956   1.056144
     4  H    0.781315  -0.001900
     5  H    1.053302   0.035458
 Sum of Mulliken charges =   0.00000   1.00000

 Dipole moment (field-independent basis, Debye):
    X=              2.4459    Y=              0.8564    Z=              0.0000  Tot=              2.5915
                          Isotropic Fermi Contact Couplings
        Atom                 a.u.       MegaHertz       Gauss      10(-4) cm-1
     1  Cl(35)             0.15733      68.98553      24.61575      23.01110
     2  N(14)              0.05349      17.28304       6.16702       5.76500
     3  B(11)              0.31731     455.13326     162.40287     151.81611
     4  H(1)               0.01130      50.49387      18.01747      16.84294
     5  H(1)               0.00372      16.64502       5.93936       5.55218
 --------------------------------------------------------
       Center         ----  Spin Dipole Couplings  ----
                      3XX-RR        3YY-RR        3ZZ-RR

 Normal termination of Gaussian 16 at Tue Apr  8 23:41:10 2025.
