 Gaussian 16, Revision C.01,

 ----------------------------------------------------------------------
 #t hf aug-cc-pvdz symm=none int=(grid=ultrafine) guess=(read,tcheck) s
 table=opt
 ----------------------------------------------------------------------
 -----
 title
 -----
 Symbolic Z-matrix:
 Charge =  0 Multiplicity = 2

 SCF Done:  E(UHF) =  -989.624694159     A.U. after   19 cycles
 Normal termination of Gaussian 16 at Tue Apr  8 23:07:00 2025.
 Gaussian 16:  ES64L-G16RevC.01  3-Jul-2019

 ----------------------------------------------------------------------
 #t hf aug-cc-pvdz iop(5/13=1,5/36=2,99/5=2) pseudo=read geom=check gue
 ss=(read,tcheck) scf=(maxcycle=1)
 ----------------------------------------------------------------------
 -----
 title
 -----
 Structure from the checkpoint file:  "BDE49_expt_379_mol2.chk"
 Charge =  0 Multiplicity = 2

                         Standard orientation:
 ---------------------------------------------------------------------
 Center     Atomic      Atomic             Coordinates (Angstroms)
 Number     Number       Type             X           Y           Z
 ---------------------------------------------------------------------
      1         16           0        0.275285   -1.442329   -0.392413
      2          6           0        1.801099   -0.663731    0.288814
      3          6           0        1.744681    0.792359   -0.015253
      4          1           0        2.656632   -1.148489   -0.188070
      5          1           0        1.853412   -0.876761    1.363803
      6         16           0        0.192049    1.517050   -0.195469
      7          1           0        2.609941    1.379789   -0.288571
      8          6           0       -0.825297   -0.034040    0.072223
      9          6           0       -2.031549   -0.004964   -0.869864
     10          1           0       -1.718518    0.056161   -1.912210
     11          1           0       -2.670606    0.853078   -0.643019
     12          1           0       -2.632493   -0.908899   -0.735616
     13          6           0       -1.262659   -0.114055    1.539335
     14          1           0       -0.405833   -0.141730    2.213801
     15          1           0       -1.856608   -1.017864    1.700390
     16          1           0       -1.870928    0.755763    1.804065
 ---------------------------------------------------------------------

 SCF Done:  E(UHF) =  -991.058929176     A.U. after    2 cycles

 The electronic state is 2-A.
 Alpha  occ. eigenvalues --  -75.68811 -75.67967 -13.14994 -13.13284 -13.12650
 Alpha  occ. eigenvalues --  -13.09313 -13.05268 -13.04100 -11.45801 -11.43510
 Alpha  occ. eigenvalues --  -11.39884 -11.39175 -11.37259  -8.03067  -8.01997
 Alpha  occ. eigenvalues --   -1.35874  -1.18048  -1.11524  -1.02119  -0.99398
 Alpha  occ. eigenvalues --   -0.83532  -0.77655  -0.65494  -0.62877  -0.60628
 Alpha  occ. eigenvalues --   -0.60213  -0.57945  -0.55043  -0.48759  -0.45680
 Alpha  occ. eigenvalues --   -0.43778  -0.41797  -0.37731  -0.32417  -0.22850
 Alpha  occ. eigenvalues --   -0.18467
 Alpha virt. eigenvalues --    0.03312   0.03597   0.05230   0.05583   0.06225
 Alpha virt. eigenvalues --    0.06806   0.07135   0.07474   0.08408   0.09059
 Alpha virt. eigenvalues --    0.10298   0.10954   0.11930   0.12810   0.13782

  Beta  occ. eigenvalues --  -75.68734 -75.67922 -13.15072 -13.13092 -13.12771
  Beta  occ. eigenvalues --  -13.09254 -13.04492 -13.04073 -11.45804 -11.43277
  Beta  occ. eigenvalues --  -11.39863 -11.37523 -11.37174  -8.02977  -8.01946
  Beta  occ. eigenvalues --   -1.34821  -1.16313  -1.10497  -1.02087  -0.98118
  Beta  occ. eigenvalues --   -0.80051  -0.76726  -0.64593  -0.61745  -0.60461
  Beta  occ. eigenvalues --   -0.59189  -0.57309  -0.54976  -0.48665  -0.42937
  Beta  occ. eigenvalues --   -0.42043  -0.40952  -0.33326  -0.27256  -0.22310
  Beta virt. eigenvalues --    0.03357   0.03615   0.05192   0.05604   0.06227
  Beta virt. eigenvalues --    0.06751   0.07133   0.07483   0.08417   0.09065
  Beta virt. eigenvalues --    0.09611   0.10491   0.11765   0.12164   0.12891

 Mulliken charges and spin densities:
               1          2
     1  S    0.726622   0.048875
     2  C   -4.164346  -0.380561
     3  C   -1.987431   1.359649
     4  H    1.364851   0.000464
     5  H    1.533105   0.012787
     6  S    0.842292   0.045029
     7  H    1.436558  -0.032836
     8  C    0.555324  -0.050635
     9  C   -4.163004  -0.012021
    10  H    1.442916   0.004496
    11  H    1.234818  -0.004105
    12  H    1.258308   0.001377
    13  C   -4.042647   0.012701
    14  H    1.406728  -0.003599
    15  H    1.278618  -0.001154
    16  H    1.277290  -0.000466
 Sum of Mulliken charges =  -0.00000   1.00000

 Dipole moment (field-independent basis, Debye):
    X=             -0.5254    Y=             -0.0413    Z=             -0.6564  Tot=              0.8418
                          Isotropic Fermi Contact Couplings
        Atom                 a.u.       MegaHertz       Gauss      10(-4) cm-1
     1  S(33)              0.00724       2.48614       0.88712       0.82929
     2  C(13)             -0.03725     -41.87572     -14.94230     -13.96824
     3  C(13)              0.13767     154.76283      55.22323      51.62332
     4  H(1)               0.00503      22.49367       8.02630       7.50308
     5  H(1)               0.01667      74.50807      26.58633      24.85322
     6  S(33)              0.07428      25.51380       9.10396       8.51049
     7  H(1)              -0.01712     -76.54428     -27.31290     -25.53242
     8  C(13)             -0.00040      -0.44881      -0.16015      -0.14971

 Normal termination of Gaussian 16 at Tue Apr  8 23:07:07 2025.
