 Gaussian 16, Revision C.01,

 ----------------------------------------------------------------------
 #t hf aug-cc-pvdz symm=none int=(grid=ultrafine) guess=(read,tcheck) s
 table=(opt,rrhf)
 ----------------------------------------------------------------------
 -----
 title
 -----
 Symbolic Z-matrix:
 Charge =  0 Multiplicity = 1

 SCF Done:  E(RHF) =  -1317.02085199     A.U. after   15 cycles
 Normal termination of Gaussian 16 at Tue Apr  8 23:32:46 2025.
 Gaussian 16:  ES64L-G16RevC.01  3-Jul-2019

 ----------------------------------------------------------------------
 #t hf aug-cc-pvdz iop(5/13=1,5/36=2,99/5=2) pseudo=read geom=check gue
 ss=(read,tcheck) scf=(maxcycle=1)
 ----------------------------------------------------------------------
 -----
 title
 -----
 Structure from the checkpoint file:  "BDE49_nonexpt_1363_mol1.chk"
 Charge =  0 Multiplicity = 1

                         Standard orientation:
 ---------------------------------------------------------------------
 Center     Atomic      Atomic             Coordinates (Angstroms)
 Number     Number       Type             X           Y           Z
 ---------------------------------------------------------------------
      1          9           0        1.439309   -1.559252   -1.216758
      2          9           0        1.439322   -1.559428    1.216516
      3         16           0        0.837923    1.027538    0.000069
      4          8           0        1.109371    1.678551   -1.271665
      5          8           0        1.109386    1.678367    1.271894
      6         15           0        2.162192   -0.794966   -0.000070
      7          6           0       -1.473394    0.184026   -1.219739
      8          6           0       -2.776016   -0.304383   -1.211320
      9          6           0       -3.422784   -0.549176   -0.000019
     10          6           0       -2.775998   -0.304565    1.211309
     11          6           0       -1.473376    0.183843    1.219782
     12          6           0       -0.840932    0.426924    0.000036
     13          1           0       -0.955672    0.393994   -2.146411
     14          1           0       -3.286680   -0.490422   -2.148663
     15          1           0       -4.437746   -0.929849   -0.000040
     16          1           0       -3.286648   -0.490745    2.148632
     17          1           0       -0.955640    0.393672    2.146479
 ---------------------------------------------------------------------

 SCF Done:  E(RHF) =  -1319.86404323     A.U. after    2 cycles

 The electronic state is 1-A.
 Alpha  occ. eigenvalues -- -105.34587 -75.89395 -29.32577 -29.32569 -21.06006
 Alpha  occ. eigenvalues --  -21.05949 -13.51866 -13.40101 -13.35650 -11.54700
 Alpha  occ. eigenvalues --  -11.46756 -11.46448 -11.44547 -11.43546 -11.39683
 Alpha  occ. eigenvalues --   -8.24476  -2.93700  -1.83695  -1.67994  -1.65978
 Alpha  occ. eigenvalues --   -1.63814  -1.56273  -1.37432  -1.15274  -1.12399
 Alpha  occ. eigenvalues --   -1.00119  -0.92683  -0.89839  -0.84014  -0.74162
 Alpha  occ. eigenvalues --   -0.66779  -0.61858  -0.61627  -0.61013  -0.59601
 Alpha  occ. eigenvalues --   -0.57711  -0.52988  -0.49414  -0.48892  -0.46302
 Alpha  occ. eigenvalues --   -0.46008  -0.43293  -0.41488  -0.40792  -0.38098
 Alpha  occ. eigenvalues --   -0.37586  -0.36669  -0.35698  -0.35010  -0.31090
 Alpha  occ. eigenvalues --   -0.22401  -0.18616  -0.03085
 Alpha virt. eigenvalues --    0.03105   0.04860   0.04922   0.06234   0.06662
 Alpha virt. eigenvalues --    0.07143   0.08868   0.09796   0.10051   0.10780
 Alpha virt. eigenvalues --    0.11247   0.12642   0.13230   0.13247   0.13412

 Mulliken charges:
               1
     1  F   -0.560396
     2  F   -0.560397
     3  S    5.175379
     4  O   -2.905060
     5  O   -2.905058
     6  P    2.497246
     7  C   -3.701455
     8  C   -0.341182
     9  C   -2.681375
    10  C   -0.341172
    11  C   -3.701383
    12  C    1.728952
    13  H    1.846173
    14  H    1.529562
    15  H    1.544428
    16  H    1.529562
    17  H    1.846174
 Sum of Mulliken charges =   0.00000

 Dipole moment (field-independent basis, Debye):
    X=             -2.1976    Y=             -7.6435    Z=             -0.0005  Tot=              7.9532

 Test job not archived.
 1\1\GINC-SE094\SP\RHF\Aug-CC-pVDZ\C6H5F2O2P1S1\OHZDE\08-Apr-2025\0\\#t
  hf aug-cc-pvdz iop(5/13=1,5/36=2,99/5=2) pseudo=read geom=check guess
 =(read,tcheck) scf=(maxcycle=1)\\title\\0,1\F,0,1.439309,-1.559252,-1.
 216758\F,0,1.439322,-1.559428,1.216516\S,0,0.837923,1.027538,0.000069\
 O,0,1.109371,1.678551,-1.271665\O,0,1.109386,1.678367,1.271894\P,0,2.1
 62192,-0.794966,-0.00007\C,0,-1.473394,0.184026,-1.219739\C,0,-2.77601
 6,-0.304383,-1.21132\C,0,-3.422784,-0.549176,-0.000019\C,0,-2.775998,-
 0.304565,1.211309\C,0,-1.473376,0.183843,1.219782\C,0,-0.840932,0.4269

 Normal termination of Gaussian 16 at Tue Apr  8 23:32:58 2025.
