 Gaussian 16, Revision C.01,

 ----------------------------------------------------------------------
 #t hf aug-cc-pvdz symm=none int=(grid=ultrafine) guess=(read,tcheck) s
 table=(opt,rrhf)
 ----------------------------------------------------------------------
 -----
 title
 -----
 Symbolic Z-matrix:
 Charge =  0 Multiplicity = 1

 SCF Done:  E(RHF) =  -640.030182902     A.U. after   14 cycles
 Normal termination of Gaussian 16 at Tue Apr  8 23:38:16 2025.
 Gaussian 16:  ES64L-G16RevC.01  3-Jul-2019

 ----------------------------------------------------------------------
 #t hf aug-cc-pvdz iop(5/13=1,5/36=2,99/5=2) pseudo=read geom=check gue
 ss=(read,tcheck) scf=(maxcycle=1)
 ----------------------------------------------------------------------
 -----
 title
 -----
 Structure from the checkpoint file:  "BDE49_nonexpt_1534_mol1.chk"
 Charge =  0 Multiplicity = 1

                         Standard orientation:
 ---------------------------------------------------------------------
 Center     Atomic      Atomic             Coordinates (Angstroms)
 Number     Number       Type             X           Y           Z
 ---------------------------------------------------------------------
      1          7           0       -0.133475    0.419696    0.000137
      2         15           0       -1.778772   -0.159741   -0.000000
      3          7           0        0.956185   -0.456698    0.000335
      4          8           0        0.705974   -1.651729   -0.000253
      5          8           0        2.067114    0.054363   -0.000236
      6          6           0        0.206636    1.845301    0.000053
      7          1           0       -0.729595    2.400688   -0.000127
      8          1           0        0.787142    2.105880   -0.886483
      9          1           0        0.786899    2.106038    0.886701
     10          1           0       -1.673296   -1.125085    1.030813
     11          1           0       -1.673064   -1.125275   -1.030612
 ---------------------------------------------------------------------

 SCF Done:  E(RHF) =  -641.527243384     A.U. after    2 cycles

 The electronic state is 1-A.
 Alpha  occ. eigenvalues -- -105.23437 -21.09260 -21.09100 -16.02352 -15.79580
 Alpha  occ. eigenvalues --  -11.42530  -2.80081  -2.01577  -1.70408  -1.60183
 Alpha  occ. eigenvalues --   -1.49402  -1.47805  -1.35988  -1.06821  -0.87210
 Alpha  occ. eigenvalues --   -0.74930  -0.72024  -0.69628  -0.62069  -0.60321
 Alpha  occ. eigenvalues --   -0.57972  -0.42301  -0.39116  -0.33024  -0.32920
 Alpha  occ. eigenvalues --   -0.30676  -0.26658  -0.04613
 Alpha virt. eigenvalues --    0.03692   0.05159   0.06413   0.06439   0.07816
 Alpha virt. eigenvalues --    0.08691   0.09702   0.11421   0.13463   0.14635
 Alpha virt. eigenvalues --    0.15430   0.15680   0.16626   0.16917   0.17821

 Mulliken charges:
               1
     1  N   -0.289595
     2  P    1.571140
     3  N    5.029233
     4  O   -2.741144
     5  O   -2.821501
     6  C   -2.971275
     7  H    1.324506
     8  H    1.453473
     9  H    1.453445
    10  H   -1.004245
    11  H   -1.004039
 Sum of Mulliken charges =   0.00000

 Dipole moment (field-independent basis, Debye):
    X=             -1.6900    Y=              2.4224    Z=             -0.0007  Tot=              2.9537

 Test job not archived.
 1\1\GINC-SE116\SP\RHF\Aug-CC-pVDZ\C1H5N2O2P1\OHZDE\08-Apr-2025\0\\#t h
 f aug-cc-pvdz iop(5/13=1,5/36=2,99/5=2) pseudo=read geom=check guess=(
 read,tcheck) scf=(maxcycle=1)\\title\\0,1\N,0,-0.133475,0.419696,0.000
 137\P,0,-1.778772,-0.159741,0.\N,0,0.956185,-0.456698,0.000335\O,0,0.7
 05974,-1.651729,-0.000253\O,0,2.067114,0.054363,-0.000236\C,0,0.206636
 ,1.845301,0.000053\H,0,-0.729595,2.400688,-0.000127\H,0,0.787142,2.105
 88,-0.886483\H,0,0.786899,2.106038,0.886701\H,0,-1.673296,-1.125085,1.
 030813\H,0,-1.673064,-1.125275,-1.030612\\Version=ES64L-G16RevC.01\Sta

 Normal termination of Gaussian 16 at Tue Apr  8 23:38:21 2025.
