 Gaussian 16, Revision C.01,

 ----------------------------------------------------------------------
 #t hf aug-cc-pvdz symm=none int=(grid=ultrafine) guess=(read,tcheck) s
 table=(opt,rrhf)
 ----------------------------------------------------------------------
 -----
 title
 -----
 Symbolic Z-matrix:
 Charge =  0 Multiplicity = 1

 SCF Done:  E(RHF) =  -1012.01298006     A.U. after   15 cycles
 Normal termination of Gaussian 16 at Tue Apr  8 23:42:52 2025.
 Gaussian 16:  ES64L-G16RevC.01  3-Jul-2019

 ----------------------------------------------------------------------
 #t hf aug-cc-pvdz iop(5/13=1,5/36=2,99/5=2) pseudo=read geom=check gue
 ss=(read,tcheck) scf=(maxcycle=1)
 ----------------------------------------------------------------------
 -----
 title
 -----
 Structure from the checkpoint file:  "BDE49_nonexpt_1651_mol1.chk"
 Charge =  0 Multiplicity = 1

                         Standard orientation:
 ---------------------------------------------------------------------
 Center     Atomic      Atomic             Coordinates (Angstroms)
 Number     Number       Type             X           Y           Z
 ---------------------------------------------------------------------
      1          6           0        2.841738    0.920989   -0.584831
      2          6           0        1.468157    1.108716   -0.448264
      3          6           0        0.653777    0.099176    0.089735
      4         14           0       -1.185500    0.331183    0.280128
      5          8           0       -1.702541   -0.038341    1.806342
      6         15           0       -2.361491   -1.147544   -0.980429
      7          6           0        3.425285   -0.280717   -0.188347
      8          6           0        2.633016   -1.295212    0.346733
      9          6           0        1.260471   -1.105623    0.483673
     10          1           0        0.656386   -1.904144    0.903625
     11          1           0        3.456815    1.711742   -1.000317
     12          1           0        1.017892    2.045713   -0.754962
     13          1           0        4.494417   -0.427283   -0.296449
     14          1           0        3.084250   -2.231693    0.655586
     15          1           0       -2.112917   -0.455597   -2.195133
     16          1           0       -3.613119   -0.512322   -0.757189
     17          1           0       -1.235084    0.370356    2.540748
     18          8           0       -1.433032    1.922019   -0.096235
     19          1           0       -2.339346    2.226436   -0.184318
 ---------------------------------------------------------------------

 SCF Done:  E(RHF) =  -1014.09025513     A.U. after    2 cycles

 The electronic state is 1-A.
 Alpha  occ. eigenvalues -- -105.17048 -76.24784 -21.07983 -21.07650 -11.51473
 Alpha  occ. eigenvalues --  -11.42998 -11.42555 -11.40790 -11.40488 -11.36117
 Alpha  occ. eigenvalues --   -5.59244  -2.73663  -2.27255  -2.24652  -2.21049
 Alpha  occ. eigenvalues --   -1.68514  -1.64310  -1.43819  -1.43324  -1.41580
 Alpha  occ. eigenvalues --   -1.33498  -1.09123  -1.09017  -0.86258  -0.85964
 Alpha  occ. eigenvalues --   -0.76551  -0.71445  -0.67441  -0.63606  -0.61761
 Alpha  occ. eigenvalues --   -0.58305  -0.56764  -0.54309  -0.50774  -0.49139
 Alpha  occ. eigenvalues --   -0.45033  -0.44042  -0.43342  -0.37485  -0.35919
 Alpha  occ. eigenvalues --   -0.33659  -0.33023  -0.25774  -0.15013  -0.02670
 Alpha virt. eigenvalues --    0.03224   0.05247   0.05350   0.05717   0.06197
 Alpha virt. eigenvalues --    0.06740   0.07259   0.07911   0.07983   0.08649
 Alpha virt. eigenvalues --    0.09248   0.09970   0.11129   0.11244   0.11449

 Mulliken charges:
               1
     1  C   -1.308082
     2  C   -3.122808
     3  C    0.118155
     4  Si   5.732697
     5  O   -3.285905
     6  P    0.984231
     7  C   -2.279662
     8  C   -0.937934
     9  C   -1.448623
    10  H    1.867416
    11  H    1.556446
    12  H    1.841098
    13  H    1.529449
    14  H    1.506549
    15  H   -0.967186
    16  H   -0.830422
    17  H    1.036165
    18  O   -3.079284
    19  H    1.087698
 Sum of Mulliken charges =   0.00000

 Dipole moment (field-independent basis, Debye):
    X=              0.7311    Y=             -4.6836    Z=              0.5397  Tot=              4.7709

 Test job not archived.
 1\1\GINC-SE070\SP\RHF\Aug-CC-pVDZ\C6H9O2P1Si1\OHZDE\08-Apr-2025\0\\#t
 hf aug-cc-pvdz iop(5/13=1,5/36=2,99/5=2) pseudo=read geom=check guess=
 (read,tcheck) scf=(maxcycle=1)\\title\\0,1\C,0,2.841738,0.920989,-0.58
 4831\C,0,1.468157,1.108716,-0.448264\C,0,0.653777,0.099176,0.089735\Si
 ,0,-1.1855,0.331183,0.280128\O,0,-1.702541,-0.038341,1.806342\P,0,-2.3
 61491,-1.147544,-0.980429\C,0,3.425285,-0.280717,-0.188347\C,0,2.63301
 6,-1.295212,0.346733\C,0,1.260471,-1.105623,0.483673\H,0,0.656386,-1.9
 04144,0.903625\H,0,3.456815,1.711742,-1.000317\H,0,1.017892,2.045713,-

 Normal termination of Gaussian 16 at Tue Apr  8 23:43:04 2025.
