 Gaussian 16, Revision C.01,

 ----------------------------------------------------------------------
 #t hf aug-cc-pvdz symm=none int=(grid=ultrafine) guess=(read,tcheck) s
 table=(opt,rrhf)
 ----------------------------------------------------------------------
 -----
 title
 -----
 Symbolic Z-matrix:
 Charge =  0 Multiplicity = 1

 SCF Done:  E(RHF) =  -749.956144466     A.U. after   18 cycles
 Normal termination of Gaussian 16 at Wed Apr  9 00:45:17 2025.
 Gaussian 16:  ES64L-G16RevC.01  3-Jul-2019

 ----------------------------------------------------------------------
 #t hf aug-cc-pvdz iop(5/13=1,5/36=2,99/5=2) pseudo=read geom=check gue
 ss=(read,tcheck) scf=(maxcycle=1)
 ----------------------------------------------------------------------
 -----
 title
 -----
 Structure from the checkpoint file:  "BDE49_nonexpt_683_mol1.chk"
 Charge =  0 Multiplicity = 1

                         Standard orientation:
 ---------------------------------------------------------------------
 Center     Atomic      Atomic             Coordinates (Angstroms)
 Number     Number       Type             X           Y           Z
 ---------------------------------------------------------------------
      1          6           0        0.466008   -1.564515   -0.236344
      2          6           0        1.708157   -2.147519   -0.163865
      3          6           0        2.859879   -1.356220    0.041554
      4          6           0        2.742472    0.006365    0.157387
      5          6           0        1.475693    0.642075    0.081988
      6          6           0        0.302318   -0.159429   -0.109429
      7          1           0       -0.404482   -2.186939   -0.403716
      8          1           0        1.806359   -3.222041   -0.268644
      9          1           0        3.834234   -1.827773    0.100570
     10          1           0        3.622747    0.623013    0.306171
     11          6           0       -0.974520    0.489582   -0.165706
     12          6           0       -1.042847    1.866201   -0.070170
     13          6           0        1.350623    2.051093    0.181974
     14          6           0        0.119251    2.649269    0.098217
     15          1           0        2.245945    2.647066    0.323242
     16          1           0        0.026176    3.726820    0.172387
     17          1           0       -2.005065    2.363751   -0.112772
     18          5           0       -3.089479   -1.394817    1.056439
     19         15           0       -2.513218   -0.469018   -0.437150
     20          1           0       -4.258757   -1.585633    1.166657
     21          1           0       -2.308130   -1.937589    1.767552
     22          1           0       -3.455575    0.547259   -0.670030
 ---------------------------------------------------------------------

 SCF Done:  E(RHF) =  -752.105157343     A.U. after    2 cycles

 The electronic state is 1-A.
 Alpha  occ. eigenvalues -- -105.16884 -11.53070 -11.50023 -11.45633 -11.45167
 Alpha  occ. eigenvalues --  -11.43304 -11.42675 -11.41940 -11.41722 -11.39598
 Alpha  occ. eigenvalues --  -11.36827  -7.61969  -2.75079  -1.55406  -1.49320
 Alpha  occ. eigenvalues --   -1.43759  -1.38733  -1.23766  -1.13870  -1.08457
 Alpha  occ. eigenvalues --   -1.04218  -0.89785  -0.87772  -0.86905  -0.80828
 Alpha  occ. eigenvalues --   -0.72678  -0.70005  -0.68022  -0.65458  -0.59628
 Alpha  occ. eigenvalues --   -0.58068  -0.55057  -0.54112  -0.53879  -0.50692
 Alpha  occ. eigenvalues --   -0.49553  -0.45251  -0.45058  -0.42649  -0.39104
 Alpha  occ. eigenvalues --   -0.31855  -0.28489  -0.24838  -0.14159  -0.04516
 Alpha virt. eigenvalues --    0.03142   0.04059   0.04385   0.05139   0.05439
 Alpha virt. eigenvalues --    0.05764   0.06563   0.06695   0.07248   0.07893
 Alpha virt. eigenvalues --    0.08919   0.09513   0.09613   0.09850   0.10589

 Mulliken charges:
               1
     1  C   -1.150957
     2  C   -5.163442
     3  C   -3.991453
     4  C   -3.304090
     5  C    5.859739
     6  C    5.884806
     7  H    2.071219
     8  H    1.505974
     9  H    1.509875
    10  H    1.697262
    11  C    3.880795
    12  C   -6.747273
    13  C   -3.843245
    14  C   -3.037037
    15  H    1.731649
    16  H    1.544959
    17  H    1.821721
    18  B    4.959229
    19  P    1.311403
    20  H   -3.005447
    21  H   -2.343873
    22  H   -1.191814
 Sum of Mulliken charges =   0.00000

 Dipole moment (field-independent basis, Debye):
    X=              4.0139    Y=              1.4207    Z=             -7.7201  Tot=              8.8164

 Test job not archived.
 1\1\GINC-SE362\SP\RHF\Aug-CC-pVDZ\C10H10B1P1\OHZDE\09-Apr-2025\0\\#t h
 f aug-cc-pvdz iop(5/13=1,5/36=2,99/5=2) pseudo=read geom=check guess=(
 read,tcheck) scf=(maxcycle=1)\\title\\0,1\C,0,0.466008,-1.564515,-0.23
 6344\C,0,1.708157,-2.147519,-0.163865\C,0,2.859879,-1.35622,0.041554\C
 ,0,2.742472,0.006365,0.157387\C,0,1.475693,0.642075,0.081988\C,0,0.302
 318,-0.159429,-0.109429\H,0,-0.404482,-2.186939,-0.403716\H,0,1.806359
 ,-3.222041,-0.268644\H,0,3.834234,-1.827773,0.10057\H,0,3.622747,0.623
 013,0.306171\C,0,-0.97452,0.489582,-0.165706\C,0,-1.042847,1.866201,-0

 Normal termination of Gaussian 16 at Wed Apr  9 00:45:32 2025.
