 Gaussian 16, Revision C.01,

 ----------------------------------------------------------------------
 #t hf aug-cc-pvdz symm=none int=(grid=ultrafine) guess=(read,tcheck) s
 table=(opt,rrhf)
 ----------------------------------------------------------------------
 -----
 title
 -----
 Symbolic Z-matrix:
 Charge =  0 Multiplicity = 1

 SCF Done:  E(RHF) =  -1679.97600915     A.U. after   15 cycles
 Normal termination of Gaussian 16 at Wed Apr  9 00:15:37 2025.
 Gaussian 16:  ES64L-G16RevC.01  3-Jul-2019

 ----------------------------------------------------------------------
 #t hf aug-cc-pvdz iop(5/13=1,5/36=2,99/5=2) pseudo=read geom=check gue
 ss=(read,tcheck) scf=(maxcycle=1)
 ----------------------------------------------------------------------
 -----
 title
 -----
 Structure from the checkpoint file:  "BDE49_nonexpt_2437_mol1.chk"
 Charge =  0 Multiplicity = 1

                         Standard orientation:
 ---------------------------------------------------------------------
 Center     Atomic      Atomic             Coordinates (Angstroms)
 Number     Number       Type             X           Y           Z
 ---------------------------------------------------------------------
      1         14           0        1.112204    1.823350   -0.392495
      2         14           0       -1.111837    1.823418    0.392102
      3          6           0       -2.017916    0.302004   -0.375175
      4          1           0       -1.821709    3.021722   -0.111230
      5          1           0       -1.169516    1.775692    1.869423
      6          8           0       -2.088912    0.169382   -1.575300
      7         16           0       -2.718959   -0.865769    0.803283
      8          6           0       -3.438230   -2.104519   -0.323839
      9          1           0       -2.982772   -3.074578   -0.130760
     10          1           0       -3.218865   -1.778017   -1.341668
     11          1           0       -4.514623   -2.154742   -0.167097
     12          6           0        2.018415    0.302181    0.375096
     13          1           0        1.822078    3.021839    0.110383
     14          1           0        1.169582    1.775206   -1.869815
     15          8           0        2.090376    0.170429    1.575261
     16         16           0        2.717960   -0.866755   -0.803095
     17          6           0        3.437708   -2.104954    0.324322
     18          1           0        2.980245   -3.074591    0.133868
     19          1           0        3.221189   -1.776500    1.342135
     20          1           0        4.513647   -2.157151    0.165141
 ---------------------------------------------------------------------

 SCF Done:  E(RHF) =  -1682.09152294     A.U. after    2 cycles

 The electronic state is 1-A.
 Alpha  occ. eigenvalues --  -76.24004 -76.23980 -75.69931 -75.69920 -21.07622
 Alpha  occ. eigenvalues --  -21.07613 -13.14027 -13.13473 -13.10440 -13.10412
 Alpha  occ. eigenvalues --  -13.03391 -13.03284 -11.48279 -11.48162 -11.40109
 Alpha  occ. eigenvalues --  -11.40096  -8.04139  -8.04131  -5.57597  -5.57589
 Alpha  occ. eigenvalues --   -2.21465  -2.21437  -2.19928  -2.19896  -2.19522
 Alpha  occ. eigenvalues --   -2.18510  -1.72569  -1.72444  -1.21128  -1.21072
 Alpha  occ. eigenvalues --   -0.99278  -0.99056  -0.87052  -0.82162  -0.71347
 Alpha  occ. eigenvalues --   -0.67581  -0.62284  -0.62244  -0.59541  -0.59538
 Alpha  occ. eigenvalues --   -0.53820  -0.52979  -0.52805  -0.51978  -0.51214
 Alpha  occ. eigenvalues --   -0.49858  -0.47736  -0.47297  -0.39828  -0.39239
 Alpha  occ. eigenvalues --   -0.36489  -0.25516  -0.25292  -0.25109  -0.24780
 Alpha virt. eigenvalues --    0.02964   0.03656   0.04589   0.04680   0.05207
 Alpha virt. eigenvalues --    0.06264   0.06279   0.06785   0.07162   0.07362
 Alpha virt. eigenvalues --    0.07762   0.08806   0.09084   0.09486   0.09810

 Mulliken charges:
               1
     1  Si   4.676699
     2  Si   4.677568
     3  C    0.737302
     4  H   -1.902129
     5  H   -1.654300
     6  O   -2.582362
     7  S    1.219574
     8  C   -4.731540
     9  H    1.447603
    10  H    1.363332
    11  H    1.425105
    12  C    0.737636
    13  H   -1.902102
    14  H   -1.653891
    15  O   -2.582727
    16  S    1.219733
    17  C   -4.731620
    18  H    1.447752
    19  H    1.363486
    20  H    1.424879
 Sum of Mulliken charges =   0.00000

 Dipole moment (field-independent basis, Debye):
    X=             -0.0011    Y=             -2.0030    Z=              0.0000  Tot=              2.0030

 Test job not archived.
 1\1\GINC-SE393\SP\RHF\Aug-CC-pVDZ\C4H10O2S2Si2\OHZDE\09-Apr-2025\0\\#t
  hf aug-cc-pvdz iop(5/13=1,5/36=2,99/5=2) pseudo=read geom=check guess
 =(read,tcheck) scf=(maxcycle=1)\\title\\0,1\Si,0,-1.112204,1.82335,0.3
 92495\Si,0,1.111837,1.823418,-0.392102\C,0,2.017916,0.302004,0.375175\
 H,0,1.821709,3.021722,0.11123\H,0,1.169516,1.775692,-1.869423\O,0,2.08
 8912,0.169382,1.5753\S,0,2.718959,-0.865769,-0.803283\C,0,3.43823,-2.1
 04519,0.323839\H,0,2.982772,-3.074578,0.13076\H,0,3.218865,-1.778017,1
 .341668\H,0,4.514623,-2.154742,0.167097\C,0,-2.018415,0.302181,-0.3750

 Normal termination of Gaussian 16 at Wed Apr  9 00:15:50 2025.
