 Gaussian 16, Revision C.01,

 ----------------------------------------------------------------------
 #t hf aug-cc-pvdz symm=none int=(grid=ultrafine) guess=(read,tcheck) s
 table=(opt,rrhf)
 ----------------------------------------------------------------------
 -----
 title
 -----
 Symbolic Z-matrix:
 Charge =  0 Multiplicity = 1

 SCF Done:  E(RHF) =  -679.124412578     A.U. after   16 cycles
 Normal termination of Gaussian 16 at Tue Apr  8 22:38:05 2025.
 Gaussian 16:  ES64L-G16RevC.01  3-Jul-2019

 ----------------------------------------------------------------------
 #t hf aug-cc-pvdz iop(5/13=1,5/36=2,99/5=2) pseudo=read geom=check gue
 ss=(read,tcheck) scf=(maxcycle=1)
 ----------------------------------------------------------------------
 -----
 title
 -----
 Structure from the checkpoint file:  "BDE49_expt_1099_mol1.chk"
 Charge =  0 Multiplicity = 1

                         Standard orientation:
 ---------------------------------------------------------------------
 Center     Atomic      Atomic             Coordinates (Angstroms)
 Number     Number       Type             X           Y           Z
 ---------------------------------------------------------------------
      1          6           0        1.681870    1.274029   -0.000000
      2          6           0        0.663863    0.307716   -0.000003
      3          6           0       -0.735626    0.806044   -0.000005
      4          8           0       -1.034430    1.975438   -0.000000
      5          6           0       -1.896487   -0.234060    0.000002
      6          6           0        3.014260    0.889059    0.000001
      7          6           0        3.346979   -0.466646   -0.000000
      8          6           0        2.343352   -1.432860   -0.000004
      9          6           0        1.005367   -1.052765   -0.000005
     10          1           0        0.239031   -1.815133   -0.000008
     11          1           0        4.388216   -0.768753    0.000001
     12          1           0        2.602148   -2.485084   -0.000005
     13          1           0        1.400201    2.319569    0.000001
     14          1           0        3.794780    1.640852    0.000004
     15          9           0       -3.081686    0.368710   -0.000005
     16          9           0       -1.830844   -1.030922   -1.090423
     17          9           0       -1.830848   -1.030905    1.090439
 ---------------------------------------------------------------------

 SCF Done:  E(RHF) =  -681.858934493     A.U. after    2 cycles

 The electronic state is 1-A.
 Alpha  occ. eigenvalues --  -29.32329 -29.32308 -29.31929 -21.09156 -11.63104
 Alpha  occ. eigenvalues --  -11.54812 -11.53475 -11.46095 -11.45557 -11.44009
 Alpha  occ. eigenvalues --  -11.43060 -11.39200  -1.75377  -1.42672  -1.35990
 Alpha  occ. eigenvalues --   -1.14487  -1.11821  -0.97090  -0.89850  -0.89506
 Alpha  occ. eigenvalues --   -0.89124  -0.86001  -0.75250  -0.70838  -0.63630
 Alpha  occ. eigenvalues --   -0.60877  -0.59233  -0.56266  -0.55690  -0.49727
 Alpha  occ. eigenvalues --   -0.48646  -0.48189  -0.47024  -0.45229  -0.44353
 Alpha  occ. eigenvalues --   -0.39226  -0.37406  -0.35885  -0.35051  -0.34015
 Alpha  occ. eigenvalues --   -0.27828  -0.26728  -0.25274  -0.22620
 Alpha virt. eigenvalues --    0.03069   0.04782   0.04863   0.06725   0.07316
 Alpha virt. eigenvalues --    0.07382   0.08863   0.10416   0.10658   0.10949
 Alpha virt. eigenvalues --    0.12032   0.12694   0.13203   0.13310   0.13451

 Mulliken charges:
               1
     1  C   -4.067902
     2  C    2.167465
     3  C    0.998503
     4  O   -3.864036
     5  C    0.292419
     6  C   -1.295841
     7  C   -3.148415
     8  C   -1.689661
     9  C    1.579591
    10  H    1.940391
    11  H    1.542383
    12  H    1.469262
    13  H    1.723633
    14  H    1.444893
    15  F    0.528367
    16  F    0.189476
    17  F    0.189473
 Sum of Mulliken charges =  -0.00000

 Dipole moment (field-independent basis, Debye):
    X=              0.4243    Y=             -1.9021    Z=              0.0000  Tot=              1.9488

 Test job not archived.
 1\1\GINC-SE082\SP\RHF\Aug-CC-pVDZ\C8H5F3O1\OHZDE\08-Apr-2025\0\\#t hf
 aug-cc-pvdz iop(5/13=1,5/36=2,99/5=2) pseudo=read geom=check guess=(re
 ad,tcheck) scf=(maxcycle=1)\\title\\0,1\C,0,-1.68187,1.274029,0.\C,0,-
 0.663863,0.307716,0.000003\C,0,0.735626,0.806044,0.000005\O,0,1.03443,
 1.975438,0.\C,0,1.896487,-0.23406,-0.000002\C,0,-3.01426,0.889059,-0.0
 00001\C,0,-3.346979,-0.466646,0.\C,0,-2.343352,-1.43286,0.000004\C,0,-
 1.005367,-1.052765,0.000005\H,0,-0.239031,-1.815133,0.000008\H,0,-4.38
 8216,-0.768753,-0.000001\H,0,-2.602148,-2.485084,0.000005\H,0,-1.40020

 Normal termination of Gaussian 16 at Tue Apr  8 22:38:15 2025.
