 Gaussian 16, Revision C.01,

 ----------------------------------------------------------------------
 #t hf aug-cc-pvdz symm=none int=(grid=ultrafine) guess=(read,tcheck) s
 table=(opt,rrhf)
 ----------------------------------------------------------------------
 -----
 title
 -----
 Symbolic Z-matrix:
 Charge =  0 Multiplicity = 1

 SCF Done:  E(RHF) =  -795.947118868     A.U. after   20 cycles
 Normal termination of Gaussian 16 at Tue Apr  8 22:57:12 2025.
 Gaussian 16:  ES64L-G16RevC.01  3-Jul-2019

 ----------------------------------------------------------------------
 #t hf aug-cc-pvdz iop(5/13=1,5/36=2,99/5=2) pseudo=read geom=check gue
 ss=(read,tcheck) scf=(maxcycle=1)
 ----------------------------------------------------------------------
 -----
 title
 -----
 Structure from the checkpoint file:  "BDE49_expt_1828_mol1.chk"
 Charge =  0 Multiplicity = 1

                         Standard orientation:
 ---------------------------------------------------------------------
 Center     Atomic      Atomic             Coordinates (Angstroms)
 Number     Number       Type             X           Y           Z
 ---------------------------------------------------------------------
      1          7           0       -2.537570   -0.318499    0.728502
      2          8           0       -1.871268   -0.158443    1.671792
      3         16           0       -1.607172   -0.418940   -0.966643
      4          6           0        0.080334   -0.281760   -0.452736
      5          6           0        0.822583   -1.460837   -0.297671
      6          6           0        2.148435   -1.414017    0.115253
      7          6           0        2.736488   -0.181472    0.386814
      8          6           0        1.997830    0.990135    0.245298
      9          6           0        0.663311    0.972721   -0.170451
     10          1           0        0.347874   -2.411005   -0.510495
     11          1           0        2.714748   -2.331340    0.226326
     12          1           0        2.464779    1.944939    0.462502
     13          1           0        3.770113   -0.130080    0.710045
     14          6           0       -0.103907    2.263470   -0.306334
     15          1           0        0.548282    3.119288   -0.124883
     16          1           0       -0.928055    2.311587    0.410736
     17          1           0       -0.540292    2.367244   -1.302827
 ---------------------------------------------------------------------

 SCF Done:  E(RHF) =  -798.023722997     A.U. after    2 cycles

 The electronic state is 1-A.
 Alpha  occ. eigenvalues --  -75.71032 -21.17117 -15.92185 -13.21092 -13.11490
 Alpha  occ. eigenvalues --  -13.09363 -11.52612 -11.46030 -11.44701 -11.42624
 Alpha  occ. eigenvalues --  -11.41791 -11.39348 -11.37326  -8.04932  -1.91013
 Alpha  occ. eigenvalues --   -1.37482  -1.18938  -1.15272  -1.07429  -1.00433
 Alpha  occ. eigenvalues --   -0.93084  -0.86158  -0.82271  -0.69810  -0.64429
 Alpha  occ. eigenvalues --   -0.62841  -0.62111  -0.59288  -0.58147  -0.57087
 Alpha  occ. eigenvalues --   -0.56195  -0.53297  -0.51089  -0.49818  -0.45168
 Alpha  occ. eigenvalues --   -0.39101  -0.35298  -0.33049  -0.25822  -0.24599
 Alpha virt. eigenvalues --    0.03348   0.04769   0.05019   0.05517   0.06393
 Alpha virt. eigenvalues --    0.06994   0.07738   0.07863   0.09015   0.09859
 Alpha virt. eigenvalues --    0.10714   0.11032   0.11357   0.13189   0.13794

 Mulliken charges:
               1
     1  N    1.425297
     2  O   -1.879566
     3  S    0.603383
     4  C    2.423622
     5  C   -3.998368
     6  C   -1.910825
     7  C   -2.404214
     8  C   -1.753548
     9  C    2.361787
    10  H    1.780889
    11  H    1.559535
    12  H    1.755096
    13  H    1.534859
    14  C   -5.145579
    15  H    1.255406
    16  H    1.147017
    17  H    1.245210
 Sum of Mulliken charges =   0.00000

 Dipole moment (field-independent basis, Debye):
    X=              1.7937    Y=              0.3085    Z=             -0.3314  Tot=              1.8500

 Test job not archived.
 1\1\GINC-SE457\SP\RHF\Aug-CC-pVDZ\C7H7N1O1S1\OHZDE\08-Apr-2025\0\\#t h
 f aug-cc-pvdz iop(5/13=1,5/36=2,99/5=2) pseudo=read geom=check guess=(
 read,tcheck) scf=(maxcycle=1)\\title\\0,1\N,0,-2.53757,-0.318499,0.728
 502\O,0,-1.871268,-0.158443,1.671792\S,0,-1.607172,-0.41894,-0.966643\
 C,0,0.080334,-0.28176,-0.452736\C,0,0.822583,-1.460837,-0.297671\C,0,2
 .148435,-1.414017,0.115253\C,0,2.736488,-0.181472,0.386814\C,0,1.99783
 ,0.990135,0.245298\C,0,0.663311,0.972721,-0.170451\H,0,0.347874,-2.411
 005,-0.510495\H,0,2.714748,-2.33134,0.226326\H,0,2.464779,1.944939,0.4

 Normal termination of Gaussian 16 at Tue Apr  8 22:57:21 2025.
