 Gaussian 16, Revision C.01,

 ----------------------------------------------------------------------
 #t hf aug-cc-pvdz symm=none int=(grid=ultrafine) guess=(read,tcheck) s
 table=(opt,rrhf)
 ----------------------------------------------------------------------
 -----
 title
 -----
 Symbolic Z-matrix:
 Charge =  0 Multiplicity = 1

 SCF Done:  E(RHF) =  -1161.09930888     A.U. after   14 cycles
 Normal termination of Gaussian 16 at Tue Apr  8 23:42:33 2025.
 Gaussian 16:  ES64L-G16RevC.01  3-Jul-2019

 ----------------------------------------------------------------------
 #t hf aug-cc-pvdz iop(5/13=1,5/36=2,99/5=2) pseudo=read geom=check gue
 ss=(read,tcheck) scf=(maxcycle=1)
 ----------------------------------------------------------------------
 -----
 title
 -----
 Structure from the checkpoint file:  "BDE49_nonexpt_1646_mol1.chk"
 Charge =  0 Multiplicity = 1

                         Standard orientation:
 ---------------------------------------------------------------------
 Center     Atomic      Atomic             Coordinates (Angstroms)
 Number     Number       Type             X           Y           Z
 ---------------------------------------------------------------------
      1          7           0       -1.929691   -0.324837   -0.003153
      2          9           0       -1.992321   -0.412490   -1.422572
      3          9           0       -1.631326   -1.661042    0.381122
      4         14           0       -0.372988    0.598442    0.319613
      5          6           0       -0.148073    0.586620    2.167512
      6          1           0       -1.020245    1.018462    2.665900
      7          1           0        0.732454    1.177440    2.434285
      8          1           0        0.001217   -0.429961    2.534763
      9          6           0       -0.641961    2.278143   -0.442660
     10          1           0       -1.506648    2.770285    0.011139
     11          1           0       -0.816500    2.203605   -1.517945
     12          1           0        0.238192    2.905637   -0.279727
     13         15           0        1.370016   -0.522452   -0.756628
     14          9           0        2.414572    0.722604   -0.516124
     15          9           0        1.796982   -1.438139    0.524173
 ---------------------------------------------------------------------

 SCF Done:  E(RHF) =  -1163.43607857     A.U. after    2 cycles

 The electronic state is 1-A.
 Alpha  occ. eigenvalues -- -105.29737 -76.25701 -29.29884 -29.29859 -29.29138
 Alpha  occ. eigenvalues --  -29.29090 -15.86802 -11.38079 -11.37877  -5.60107
 Alpha  occ. eigenvalues --   -2.88395  -2.24652  -2.23897  -2.21634  -1.61590
 Alpha  occ. eigenvalues --   -1.58389  -1.52386  -1.46196  -1.08918  -1.04620
 Alpha  occ. eigenvalues --   -0.89995  -0.81611  -0.75573  -0.64807  -0.60960
 Alpha  occ. eigenvalues --   -0.59292  -0.58880  -0.57942  -0.57120  -0.54698
 Alpha  occ. eigenvalues --   -0.45248  -0.44427  -0.44134  -0.40614  -0.39683
 Alpha  occ. eigenvalues --   -0.36541  -0.34985  -0.31106  -0.30337  -0.28705
 Alpha  occ. eigenvalues --   -0.22102  -0.20925  -0.20541  -0.16384  -0.00249
 Alpha virt. eigenvalues --    0.03111   0.05316   0.05910   0.06656   0.07159
 Alpha virt. eigenvalues --    0.07486   0.08752   0.08863   0.09932   0.10150
 Alpha virt. eigenvalues --    0.12094   0.12384   0.13763   0.14626   0.15292

 Mulliken charges:
               1
     1  N   -0.143494
     2  F   -0.366134
     3  F   -0.304372
     4  Si   3.874756
     5  C   -5.462479
     6  H    1.278646
     7  H    1.198541
     8  H    1.152354
     9  C   -5.428913
    10  H    1.257345
    11  H    1.287550
    12  H    1.265934
    13  P    1.780903
    14  F   -0.675649
    15  F   -0.714987
 Sum of Mulliken charges =  -0.00000

 Dipole moment (field-independent basis, Debye):
    X=              4.7470    Y=             -0.3121    Z=              3.2907  Tot=              5.7845

 Test job not archived.
 1\1\GINC-SE338\SP\RHF\Aug-CC-pVDZ\C2H6F4N1P1Si1\OHZDE\08-Apr-2025\0\\#
 t hf aug-cc-pvdz iop(5/13=1,5/36=2,99/5=2) pseudo=read geom=check gues
 s=(read,tcheck) scf=(maxcycle=1)\\title\\0,1\N,0,-1.929691,-0.324836,-
 0.003153\F,0,-1.992321,-0.412489,-1.422572\F,0,-1.631327,-1.661041,0.3
 81122\Si,0,-0.372988,0.598442,0.319613\C,0,-0.148073,0.58662,2.167512\
 H,0,-1.020245,1.018462,2.6659\H,0,0.732454,1.17744,2.434285\H,0,0.0012
 17,-0.429961,2.534763\C,0,-0.64196,2.278143,-0.44266\H,0,-1.506647,2.7
 70286,0.011139\H,0,-0.816499,2.203605,-1.517945\H,0,0.238193,2.905637,

 Normal termination of Gaussian 16 at Tue Apr  8 23:42:39 2025.
