 Gaussian 16, Revision C.01,

 ----------------------------------------------------------------------
 #t hf aug-cc-pvdz symm=none int=(grid=ultrafine) guess=(read,tcheck) s
 table=(opt,rrhf)
 ----------------------------------------------------------------------
 -----
 title
 -----
 Symbolic Z-matrix:
 Charge =  0 Multiplicity = 1

 SCF Done:  E(RHF) =  -769.639390618     A.U. after   14 cycles
 Normal termination of Gaussian 16 at Wed Apr  9 00:26:23 2025.
 Gaussian 16:  ES64L-G16RevC.01  3-Jul-2019

 ----------------------------------------------------------------------
 #t hf aug-cc-pvdz iop(5/13=1,5/36=2,99/5=2) pseudo=read geom=check gue
 ss=(read,tcheck) scf=(maxcycle=1)
 ----------------------------------------------------------------------
 -----
 title
 -----
 Structure from the checkpoint file:  "BDE49_nonexpt_2705_mol1.chk"
 Charge =  0 Multiplicity = 1

                         Standard orientation:
 ---------------------------------------------------------------------
 Center     Atomic      Atomic             Coordinates (Angstroms)
 Number     Number       Type             X           Y           Z
 ---------------------------------------------------------------------
      1          6           0       -0.431483    0.989759    0.163995
      2          6           0       -1.794677    1.487843   -0.335823
      3          6           0       -2.943174    0.602054    0.164740
      4          6           0       -2.710392   -0.869810   -0.201834
      5          6           0       -1.345823   -1.367749    0.296353
      6          6           0        1.148686   -1.017268    0.319583
      7          6           0       -0.188363   -0.483392   -0.209309
      8         16           0        2.657795   -0.313763   -0.380014
      9          9           0        2.690128    1.160165    0.427451
     10          1           0       -0.385219    1.089176    1.257168
     11          1           0        0.371837    1.613428   -0.234044
     12          1           0       -1.795608    1.495144   -1.433474
     13          1           0       -1.948797    2.524315   -0.019843
     14          1           0       -3.897331    0.947109   -0.246103
     15          1           0       -3.021585    0.694317    1.255786
     16          1           0       -2.757794   -0.982480   -1.292518
     17          1           0       -3.507948   -1.496416    0.209972
     18          1           0       -1.187934   -2.405974   -0.017458
     19          1           0       -1.340421   -1.369050    1.394786
     20          1           0        1.265334   -2.081014    0.068237
     21          1           0        1.220686   -0.942626    1.409202
     22          1           0       -0.159739   -0.555822   -1.304787
 ---------------------------------------------------------------------

 SCF Done:  E(RHF) =  -771.604421531     A.U. after    2 cycles

 The electronic state is 1-A.
 Alpha  occ. eigenvalues --  -75.74853 -29.25731 -13.19428 -13.16557 -13.08596
 Alpha  occ. eigenvalues --  -11.44713 -11.44061 -11.42959 -11.42224 -11.37972
 Alpha  occ. eigenvalues --  -11.37613 -11.34219  -8.08737  -1.34851  -1.23145
 Alpha  occ. eigenvalues --   -1.11813  -1.10334  -0.97561  -0.88581  -0.85423
 Alpha  occ. eigenvalues --   -0.78520  -0.68015  -0.66538  -0.62012  -0.61423
 Alpha  occ. eigenvalues --   -0.60281  -0.57788  -0.54536  -0.52630  -0.49198
 Alpha  occ. eigenvalues --   -0.47110  -0.46538  -0.44551  -0.44071  -0.40248
 Alpha  occ. eigenvalues --   -0.39340  -0.37948  -0.32596  -0.26203  -0.16585
 Alpha virt. eigenvalues --    0.03988   0.04561   0.04986   0.05056   0.05252
 Alpha virt. eigenvalues --    0.05525   0.05669   0.06391   0.07295   0.08556
 Alpha virt. eigenvalues --    0.08706   0.08801   0.08977   0.09423   0.12012

 Mulliken charges:
               1
     1  C   -3.357664
     2  C   -2.766928
     3  C   -2.647495
     4  C   -2.829997
     5  C   -3.248949
     6  C   -4.674668
     7  C    0.909066
     8  S    0.649607
     9  F   -0.446585
    10  H    1.377594
    11  H    1.350869
    12  H    1.387097
    13  H    1.284317
    14  H    1.337686
    15  H    1.401315
    16  H    1.381941
    17  H    1.267724
    18  H    1.377534
    19  H    1.387277
    20  H    1.486923
    21  H    1.491943
    22  H    1.881392
 Sum of Mulliken charges =   0.00000

 Dipole moment (field-independent basis, Debye):
    X=             -0.1461    Y=              1.8999    Z=              0.8195  Tot=              2.0742

 Test job not archived.
 1\1\GINC-SE284\SP\RHF\Aug-CC-pVDZ\C7H13F1S1\OHZDE\09-Apr-2025\0\\#t hf
  aug-cc-pvdz iop(5/13=1,5/36=2,99/5=2) pseudo=read geom=check guess=(r
 ead,tcheck) scf=(maxcycle=1)\\title\\0,1\C,0,-0.431483,0.989759,0.1639
 95\C,0,-1.794677,1.487843,-0.335823\C,0,-2.943174,0.602054,0.16474\C,0
 ,-2.710392,-0.86981,-0.201834\C,0,-1.345823,-1.367749,0.296353\C,0,1.1
 48686,-1.017268,0.319583\C,0,-0.188363,-0.483392,-0.209309\S,0,2.65779
 5,-0.313763,-0.380014\F,0,2.690128,1.160165,0.427451\H,0,-0.385219,1.0
 89176,1.257168\H,0,0.371837,1.613428,-0.234044\H,0,-1.795608,1.495144,

 Normal termination of Gaussian 16 at Wed Apr  9 00:26:35 2025.
