 Gaussian 16, Revision C.01,

 ----------------------------------------------------------------------
 #t hf aug-cc-pvdz symm=none int=(grid=ultrafine) guess=(read,tcheck) s
 table=(opt,rrhf)
 ----------------------------------------------------------------------
 -----
 title
 -----
 Symbolic Z-matrix:
 Charge =  0 Multiplicity = 1

 SCF Done:  E(RHF) =  -596.079537741     A.U. after   13 cycles
 Normal termination of Gaussian 16 at Wed Apr  9 00:08:00 2025.
 Gaussian 16:  ES64L-G16RevC.01  3-Jul-2019

 ----------------------------------------------------------------------
 #t hf aug-cc-pvdz iop(5/13=1,5/36=2,99/5=2) pseudo=read geom=check gue
 ss=(read,tcheck) scf=(maxcycle=1)
 ----------------------------------------------------------------------
 -----
 title
 -----
 Structure from the checkpoint file:  "BDE49_nonexpt_2252_mol1.chk"
 Charge =  0 Multiplicity = 1

                         Standard orientation:
 ---------------------------------------------------------------------
 Center     Atomic      Atomic             Coordinates (Angstroms)
 Number     Number       Type             X           Y           Z
 ---------------------------------------------------------------------
      1          8           0        0.530278   -0.000160   -0.810678
      2          6           0        1.442873   -0.000140    0.184200
      3         14           0       -1.157270   -0.000025   -0.533956
      4          8           0        1.138089    0.000159    1.352706
      5          6           0        2.855723   -0.000035   -0.340479
      6          6           0       -1.676011    1.558237    0.353173
      7          1           0       -1.266634    1.584552    1.365098
      8          1           0       -2.767667    1.608360    0.419207
      9          1           0       -1.334004    2.448599   -0.181657
     10          1           0        3.014372    0.879044   -0.969347
     11          1           0        3.014576   -0.879261   -0.969087
     12          1           0        3.558769    0.000171    0.489698
     13          6           0       -1.676225   -1.558080    0.353411
     14          1           0       -1.266850   -1.584296    1.365340
     15          1           0       -1.334340   -2.448571   -0.181282
     16          1           0       -2.767888   -1.608043    0.419453
     17          1           0       -1.673641   -0.000097   -1.920106
 ---------------------------------------------------------------------

 SCF Done:  E(RHF) =  -597.636371408     A.U. after    2 cycles

 The electronic state is 1-A.
 Alpha  occ. eigenvalues --  -76.22576 -21.07197 -21.04745 -11.52623 -11.39359
 Alpha  occ. eigenvalues --  -11.34620 -11.34581  -5.56484  -2.22725  -2.20024
 Alpha  occ. eigenvalues --   -2.18832  -1.80589  -1.64131  -1.10809  -1.05700
 Alpha  occ. eigenvalues --   -1.01403  -0.79882  -0.66958  -0.61863  -0.61786
 Alpha  occ. eigenvalues --   -0.59801  -0.56683  -0.56012  -0.55297  -0.54883
 Alpha  occ. eigenvalues --   -0.50254  -0.50117  -0.44894  -0.41021  -0.37796
 Alpha  occ. eigenvalues --   -0.33565  -0.29521
 Alpha virt. eigenvalues --    0.03088   0.05048   0.05299   0.05676   0.05782
 Alpha virt. eigenvalues --    0.05999   0.06685   0.07262   0.07520   0.08228
 Alpha virt. eigenvalues --    0.09060   0.09638   0.10784   0.11965   0.12932

 Mulliken charges:
               1
     1  O   -3.712554
     2  C    6.006008
     3  Si   6.749556
     4  O   -3.061334
     5  C   -4.662692
     6  C   -5.225530
     7  H    1.306369
     8  H    1.260965
     9  H    1.234522
    10  H    1.294650
    11  H    1.294722
    12  H    1.307333
    13  C   -5.225481
    14  H    1.306309
    15  H    1.234541
    16  H    1.260948
    17  H   -2.368333
 Sum of Mulliken charges =  -0.00000

 Dipole moment (field-independent basis, Debye):
    X=              0.0334    Y=              0.0001    Z=             -0.4392  Tot=              0.4405

 Test job not archived.
 1\1\GINC-SE419\SP\RHF\Aug-CC-pVDZ\C4H10O2Si1\OHZDE\09-Apr-2025\0\\#t h
 f aug-cc-pvdz iop(5/13=1,5/36=2,99/5=2) pseudo=read geom=check guess=(
 read,tcheck) scf=(maxcycle=1)\\title\\0,1\O,0,0.530278,-0.00016,-0.810
 678\C,0,1.442873,-0.00014,0.1842\Si,0,-1.15727,-0.000025,-0.533956\O,0
 ,1.138089,0.000159,1.352706\C,0,2.855723,-0.000035,-0.340479\C,0,-1.67
 6011,1.558237,0.353173\H,0,-1.266634,1.584552,1.365098\H,0,-2.767667,1
 .60836,0.419207\H,0,-1.334004,2.448599,-0.181657\H,0,3.014372,0.879044
 ,-0.969347\H,0,3.014576,-0.879261,-0.969087\H,0,3.558769,0.000171,0.48

 Normal termination of Gaussian 16 at Wed Apr  9 00:08:06 2025.
