 Gaussian 16, Revision C.01,

 ----------------------------------------------------------------------
 #t hf aug-cc-pvdz symm=none int=(grid=ultrafine) guess=(read,tcheck) s
 table=opt
 ----------------------------------------------------------------------
 -----
 title
 -----
 Symbolic Z-matrix:
 Charge =  0 Multiplicity = 2

 SCF Done:  E(UHF) =  -406.546025961     A.U. after   14 cycles

 1\1\GINC-SE120\Stability\UHF\Aug-CC-pVDZ\C3H7Si1\OHZDE\09-Apr-2025\0\\
 #t hf aug-cc-pvdz symm=none int=(grid=ultrafine) guess=(read,tcheck) s
 table=opt\\title\\0,2\C,0,0.589507,0.054312,0.\C,0,0.589507,-1.268597,
 -0.749839\C,0,0.589507,-1.268597,0.749839\H,0,-0.317997,-1.569781,1.26
 1332\H,0,1.500868,-1.551992,1.263189\H,0,1.500868,-1.551992,-1.263189\
 H,0,-0.317997,-1.569781,-1.261332\Si,0,-0.900576,1.178238,0.\H,0,1.546
 14,0.574348,0.\H,0,-0.957478,2.035581,-1.213803\H,0,-0.957478,2.035581
 ,1.213803\\Version=ES64L-G16RevC.01\HF=-406.546026\S2=0.754207\S2-1=0.

 Normal termination of Gaussian 16 at Wed Apr  9 00:47:03 2025.
 Gaussian 16:  ES64L-G16RevC.01  3-Jul-2019

 ----------------------------------------------------------------------
 #t hf aug-cc-pvdz iop(5/13=1,5/36=2,99/5=2) pseudo=read geom=check gue
 ss=(read,tcheck) scf=(maxcycle=1)
 ----------------------------------------------------------------------
 -----
 title
 -----
 Structure from the checkpoint file:  "BDE49_nonexpt_809_mol2.chk"
 Charge =  0 Multiplicity = 2

                         Standard orientation:
 ---------------------------------------------------------------------
 Center     Atomic      Atomic             Coordinates (Angstroms)
 Number     Number       Type             X           Y           Z
 ---------------------------------------------------------------------
      1          6           0       -0.589507    0.054312    0.000000
      2          6           0       -0.589507   -1.268597    0.749839
      3          6           0       -0.589507   -1.268597   -0.749839
      4          1           0        0.317997   -1.569781   -1.261332
      5          1           0       -1.500868   -1.551992   -1.263189
      6          1           0       -1.500868   -1.551992    1.263189
      7          1           0        0.317997   -1.569781    1.261332
      8         14           0        0.900576    1.178238    0.000000
      9          1           0       -1.546140    0.574348    0.000000
     10          1           0        0.957478    2.035581    1.213803
     11          1           0        0.957478    2.035581   -1.213803
 ---------------------------------------------------------------------

 SCF Done:  E(UHF) =  -407.280368145     A.U. after    2 cycles

 The electronic state is 2-A'.
 Alpha  occ. eigenvalues --  -76.21912 -11.41110 -11.40051 -11.35736  -5.55339
 Alpha  occ. eigenvalues --   -2.19386  -2.17383  -2.16796  -1.29351  -0.87041
 Alpha  occ. eigenvalues --   -0.86136  -0.74004  -0.66759  -0.60013  -0.51069
 Alpha  occ. eigenvalues --   -0.47956  -0.45608  -0.39876  -0.37860  -0.26893
 Alpha virt. eigenvalues --    0.03958   0.05450   0.05850   0.05875   0.06074
 Alpha virt. eigenvalues --    0.06517   0.07849   0.08241   0.08726   0.11199
 Alpha virt. eigenvalues --    0.12852   0.13068   0.13544   0.14296   0.15621

  Beta  occ. eigenvalues --  -76.21367 -11.41104 -11.40038 -11.35724  -5.54486
  Beta  occ. eigenvalues --   -2.18723  -2.16745  -2.13277  -1.29210  -0.86108
  Beta  occ. eigenvalues --   -0.86020  -0.70750  -0.66389  -0.59336  -0.51059
  Beta  occ. eigenvalues --   -0.47310  -0.44939  -0.39778  -0.37533
  Beta virt. eigenvalues --    0.03228   0.04840   0.05644   0.05858   0.06201
  Beta virt. eigenvalues --    0.06305   0.06753   0.07864   0.08675   0.10381
  Beta virt. eigenvalues --    0.11475   0.13148   0.13608   0.13621   0.14872

 Mulliken charges and spin densities:
               1          2
     1  C   -1.926661  -0.270245
     2  C   -2.408431   0.107317
     3  C   -2.408431   0.107317
     4  H    1.240754  -0.015958
     5  H    1.201563   0.005941
     6  H    1.201563   0.005941
     7  H    1.240754  -0.015958
     8  Si   3.484282   1.108459
     9  H    1.245801  -0.003344
    10  H   -1.435598  -0.014735
    11  H   -1.435598  -0.014735
 Sum of Mulliken charges =  -0.00000   1.00000

 Dipole moment (field-independent basis, Debye):
    X=             -0.7468    Y=             -0.9567    Z=              0.0000  Tot=              1.2136
                          Isotropic Fermi Contact Couplings
        Atom                 a.u.       MegaHertz       Gauss      10(-4) cm-1
     1  C(13)              0.00980      11.01972       3.93211       3.67578
     2  C(13)              0.00263       2.95138       1.05313       0.98448
     3  C(13)              0.00263       2.95138       1.05313       0.98448
     4  H(1)              -0.00026      -1.15017      -0.41041      -0.38366
     5  H(1)              -0.00021      -0.92614      -0.33047      -0.30893
     6  H(1)              -0.00021      -0.92614      -0.33047      -0.30893
     7  H(1)              -0.00026      -1.15017      -0.41041      -0.38366
     8  Si(29)             0.43467    -386.30697    -137.84393    -128.85813

 Normal termination of Gaussian 16 at Wed Apr  9 00:47:06 2025.
