 Gaussian 16, Revision C.01,

 ----------------------------------------------------------------------
 #t hf aug-cc-pvdz symm=none int=(grid=ultrafine) guess=(read,tcheck) s
 table=(opt,rrhf)
 ----------------------------------------------------------------------
 -----
 title
 -----
 Symbolic Z-matrix:
 Charge =  0 Multiplicity = 1

 SCF Done:  E(RHF) =  -734.994679511     A.U. after   15 cycles
 Normal termination of Gaussian 16 at Wed Apr  9 00:50:19 2025.
 Gaussian 16:  ES64L-G16RevC.01  3-Jul-2019

 ----------------------------------------------------------------------
 #t hf aug-cc-pvdz iop(5/13=1,5/36=2,99/5=2) pseudo=read geom=check gue
 ss=(read,tcheck) scf=(maxcycle=1)
 ----------------------------------------------------------------------
 -----
 title
 -----
 Structure from the checkpoint file:  "BDE49_nonexpt_834_mol1.chk"
 Charge =  0 Multiplicity = 1

                         Standard orientation:
 ---------------------------------------------------------------------
 Center     Atomic      Atomic             Coordinates (Angstroms)
 Number     Number       Type             X           Y           Z
 ---------------------------------------------------------------------
      1          6           0        2.364282    0.928199   -0.675027
      2          6           0        1.040897    1.333473   -0.518724
      3          6           0        2.842916   -0.232146   -0.059632
      4          6           0        1.948522   -0.977840    0.715601
      5          6           0        0.625440   -0.573438    0.871518
      6          6           0        0.137125    0.595001    0.260060
      7          1           0        3.036311    1.522968   -1.286167
      8          1           0        0.708062    2.240451   -1.013287
      9          5           0       -2.840720   -0.432596   -0.230058
     10          8           0       -2.305542   -1.569304   -0.773874
     11          8           0       -4.194761   -0.333782   -0.141869
     12          1           0        2.292359   -1.884648    1.203902
     13          6           0        4.285132   -0.653075   -0.202770
     14          1           0        4.715231   -0.291624   -1.139440
     15          1           0        4.388206   -1.740489   -0.178260
     16          1           0        4.892985   -0.249164    0.614328
     17          1           0       -0.032430   -1.177775    1.490973
     18          1           0       -4.640707   -1.113454   -0.498194
     19          1           0       -1.343386   -1.554028   -0.810756
     20         14           0       -1.672845    1.097535    0.444375
     21          1           0       -1.972881    1.408059    1.866554
     22          1           0       -1.883790    2.340845   -0.340816
 ---------------------------------------------------------------------

 SCF Done:  E(RHF) =  -737.187773828     A.U. after    2 cycles

 The electronic state is 1-A.
 Alpha  occ. eigenvalues --  -76.19715 -21.06241 -21.05577 -11.51069 -11.43721
 Alpha  occ. eigenvalues --  -11.43557 -11.41176 -11.40947 -11.39167 -11.36081
 Alpha  occ. eigenvalues --   -7.63479  -5.53456  -2.18421  -2.17025  -2.15937
 Alpha  occ. eigenvalues --   -1.80665  -1.65277  -1.35115  -1.14618  -1.09267
 Alpha  occ. eigenvalues --   -0.99801  -0.86768  -0.84224  -0.79293  -0.72416
 Alpha  occ. eigenvalues --   -0.66046  -0.63975  -0.62037  -0.61058  -0.58061
 Alpha  occ. eigenvalues --   -0.57779  -0.54942  -0.52340  -0.49997  -0.49336
 Alpha  occ. eigenvalues --   -0.48682  -0.45471  -0.43936  -0.42990  -0.39055
 Alpha  occ. eigenvalues --   -0.36363  -0.34318  -0.33403  -0.31754
 Alpha virt. eigenvalues --    0.03085   0.04335   0.04444   0.04951   0.05280
 Alpha virt. eigenvalues --    0.05933   0.06291   0.06655   0.07325   0.07447
 Alpha virt. eigenvalues --    0.08202   0.08709   0.08968   0.09695   0.10191

 Mulliken charges:
               1
     1  C   -0.642580
     2  C   -3.665633
     3  C    3.167939
     4  C   -1.394757
     5  C   -2.441210
     6  C   -0.634805
     7  H    1.894758
     8  H    1.906856
     9  B    5.891188
    10  O   -4.546918
    11  O   -4.138007
    12  H    1.827048
    13  C   -6.013489
    14  H    1.167961
    15  H    1.133505
    16  H    1.156575
    17  H    2.109364
    18  H    1.383697
    19  H    1.679887
    20  Si   4.082645
    21  H   -2.052843
    22  H   -1.871181
 Sum of Mulliken charges =  -0.00000

 Dipole moment (field-independent basis, Debye):
    X=              2.0709    Y=             -1.1267    Z=             -0.5617  Tot=              2.4236

 Test job not archived.
 1\1\GINC-SE141\SP\RHF\Aug-CC-pVDZ\C7H11B1O2Si1\OHZDE\09-Apr-2025\0\\#t
  hf aug-cc-pvdz iop(5/13=1,5/36=2,99/5=2) pseudo=read geom=check guess
 =(read,tcheck) scf=(maxcycle=1)\\title\\0,1\C,0,2.364282,0.928199,-0.6
 75027\C,0,1.040897,1.333473,-0.518724\C,0,2.842916,-0.232146,-0.059632
 \C,0,1.948522,-0.97784,0.715601\C,0,0.62544,-0.573438,0.871518\C,0,0.1
 37125,0.595001,0.26006\H,0,3.036311,1.522968,-1.286167\H,0,0.708062,2.
 240451,-1.013287\B,0,-2.84072,-0.432596,-0.230058\O,0,-2.305542,-1.569
 304,-0.773874\O,0,-4.194761,-0.333782,-0.141869\H,0,2.292359,-1.884648

 Normal termination of Gaussian 16 at Wed Apr  9 00:50:35 2025.
