 Gaussian 16, Revision C.01,

 ----------------------------------------------------------------------
 #t hf aug-cc-pvdz symm=none int=(grid=ultrafine) guess=(read,tcheck) s
 table=(opt,rrhf)
 ----------------------------------------------------------------------
 -----
 title
 -----
 Symbolic Z-matrix:
 Charge =  0 Multiplicity = 1

 SCF Done:  E(RHF) =  -266.879942072     A.U. after   13 cycles
 Normal termination of Gaussian 16 at Tue Apr  8 22:37:26 2025.
 Gaussian 16:  ES64L-G16RevC.01  3-Jul-2019

 ----------------------------------------------------------------------
 #t hf aug-cc-pvdz iop(5/13=1,5/36=2,99/5=2) pseudo=read geom=check gue
 ss=(read,tcheck) scf=(maxcycle=1)
 ----------------------------------------------------------------------
 -----
 title
 -----
 Structure from the checkpoint file:  "BDE49_expt_1113_mol1.chk"
 Charge =  0 Multiplicity = 1

                         Standard orientation:
 ---------------------------------------------------------------------
 Center     Atomic      Atomic             Coordinates (Angstroms)
 Number     Number       Type             X           Y           Z
 ---------------------------------------------------------------------
      1          6           0       -0.653807   -0.740079    0.000008
      2          6           0        0.579841    0.153484    0.000030
      3          8           0        0.558938    1.350524   -0.000005
      4          8           0        1.771709   -0.507563   -0.000020
      5          1           0        1.623674   -1.460584   -0.000027
      6          6           0       -1.960951    0.047267   -0.000001
      7          1           0       -0.594924   -1.397871    0.876217
      8          1           0       -0.594906   -1.397861   -0.876207
      9          1           0       -2.026023    0.689567    0.879561
     10          1           0       -2.817481   -0.630543   -0.000015
     11          1           0       -2.026004    0.689579   -0.879556
 ---------------------------------------------------------------------

 SCF Done:  E(RHF) =  -268.061527471     A.U. after    2 cycles

 The electronic state is 1-A.
 Alpha  occ. eigenvalues --  -21.12330 -21.04992 -11.52773 -11.42958 -11.37829
 Alpha  occ. eigenvalues --   -1.82105  -1.65365  -1.19269  -0.95760  -0.78355
 Alpha  occ. eigenvalues --   -0.69003  -0.65594  -0.57903  -0.54496  -0.53995
 Alpha  occ. eigenvalues --   -0.48917  -0.48463  -0.44186  -0.33918  -0.29942
 Alpha virt. eigenvalues --    0.02988   0.04606   0.05451   0.05786   0.06493
 Alpha virt. eigenvalues --    0.06933   0.10305   0.11942   0.11981   0.12726
 Alpha virt. eigenvalues --    0.13620   0.14245   0.15640   0.17153   0.18416

 Mulliken charges:
               1
     1  C   -3.116098
     2  C    5.155693
     3  O   -2.952939
     4  O   -3.026566
     5  H    1.069255
     6  C   -3.419625
     7  H    1.400023
     8  H    1.399993
     9  H    1.202612
    10  H    1.085017
    11  H    1.202635
 Sum of Mulliken charges =   0.00000

 Dipole moment (field-independent basis, Debye):
    X=             -0.8218    Y=             -2.2092    Z=             -0.0000  Tot=              2.3571

 Test job not archived.
 1\1\GINC-SE126\SP\RHF\Aug-CC-pVDZ\C3H6O2\OHZDE\08-Apr-2025\0\\#t hf au
 g-cc-pvdz iop(5/13=1,5/36=2,99/5=2) pseudo=read geom=check guess=(read
 ,tcheck) scf=(maxcycle=1)\\title\\0,1\C,0,0.653807,-0.740079,-0.000008
 \C,0,-0.579841,0.153484,-0.00003\O,0,-0.558938,1.350524,0.000005\O,0,-
 1.771709,-0.507562,0.00002\H,0,-1.623674,-1.460583,0.000027\C,0,1.9609
 51,0.047267,0.000001\H,0,0.594924,-1.397871,-0.876217\H,0,0.594906,-1.
 397861,0.876207\H,0,2.026023,0.689567,-0.879561\H,0,2.817481,-0.630543
 ,0.000015\H,0,2.026004,0.689579,0.879556\\Version=ES64L-G16RevC.01\Sta

 Normal termination of Gaussian 16 at Tue Apr  8 22:37:30 2025.
