 Gaussian 16, Revision C.01,

 ----------------------------------------------------------------------
 #t hf aug-cc-pvdz symm=none int=(grid=ultrafine) guess=(read,tcheck) s
 table=(opt,rrhf)
 ----------------------------------------------------------------------
 -----
 title
 -----
 Symbolic Z-matrix:
 Charge =  0 Multiplicity = 1

 SCF Done:  E(RHF) =  -930.495299430     A.U. after   15 cycles
 Normal termination of Gaussian 16 at Tue Apr  8 23:32:13 2025.
 Gaussian 16:  ES64L-G16RevC.01  3-Jul-2019

 ----------------------------------------------------------------------
 #t hf aug-cc-pvdz iop(5/13=1,5/36=2,99/5=2) pseudo=read geom=check gue
 ss=(read,tcheck) scf=(maxcycle=1)
 ----------------------------------------------------------------------
 -----
 title
 -----
 Structure from the checkpoint file:  "BDE49_nonexpt_1396_mol1.chk"
 Charge =  0 Multiplicity = 1

                         Standard orientation:
 ---------------------------------------------------------------------
 Center     Atomic      Atomic             Coordinates (Angstroms)
 Number     Number       Type             X           Y           Z
 ---------------------------------------------------------------------
      1          6           0       -0.091721   -1.102952    1.376665
      2          6           0       -0.091721    0.241243    1.257818
      3         15           0        0.199888   -2.219695   -0.000000
      4          6           0       -0.091721   -1.102952   -1.376665
      5          6           0       -0.091721    0.241243   -1.257818
      6          6           0       -0.030347    0.975423    0.000000
      7          1           0       -0.142915   -1.549499    2.365217
      8          1           0       -0.152971    0.858044    2.148256
      9         16           0        0.061494    2.633228    0.000000
     10          1           0       -1.007074   -2.965361    0.000000
     11          1           0       -0.152971    0.858044   -2.148256
     12          1           0       -0.142915   -1.549499   -2.365217
 ---------------------------------------------------------------------

 SCF Done:  E(RHF) =  -931.807786926     A.U. after    2 cycles

 The electronic state is 1-A'.
 Alpha  occ. eigenvalues -- -105.20263 -75.66095 -13.15097 -13.03784 -12.97130
 Alpha  occ. eigenvalues --  -11.50118 -11.46518 -11.45721 -11.43099 -11.40487
 Alpha  occ. eigenvalues --   -8.00104  -2.78941  -1.54468  -1.53608  -1.46287
 Alpha  occ. eigenvalues --   -1.30961  -1.11586  -1.09877  -0.92615  -0.83418
 Alpha  occ. eigenvalues --   -0.78739  -0.65789  -0.63792  -0.63030  -0.53690
 Alpha  occ. eigenvalues --   -0.49833  -0.42634  -0.39307  -0.29746  -0.27344
 Alpha  occ. eigenvalues --   -0.24157  -0.21735  -0.04570
 Alpha virt. eigenvalues --    0.02619   0.04761   0.05002   0.05844   0.06047
 Alpha virt. eigenvalues --    0.06702   0.07692   0.08962   0.09472   0.10034
 Alpha virt. eigenvalues --    0.11328   0.12183   0.12502   0.13214   0.13722

 Mulliken charges:
               1
     1  C   -2.488212
     2  C   -2.543598
     3  P    4.299855
     4  C   -2.488212
     5  C   -2.543598
     6  C   -0.878091
     7  H    1.270812
     8  H    1.687587
     9  S    0.568854
    10  H    0.156205
    11  H    1.687587
    12  H    1.270812
 Sum of Mulliken charges =  -0.00000

 Dipole moment (field-independent basis, Debye):
    X=              2.7331    Y=             -7.0690    Z=              0.0000  Tot=              7.5789

 Test job not archived.
 1\1\GINC-SE393\SP\RHF\Aug-CC-pVDZ\C5H5P1S1\OHZDE\08-Apr-2025\0\\#t hf
 aug-cc-pvdz iop(5/13=1,5/36=2,99/5=2) pseudo=read geom=check guess=(re
 ad,tcheck) scf=(maxcycle=1)\\title\\0,1\C,0,-0.091721,-1.102952,1.3766
 65\C,0,-0.091721,0.241243,1.257818\P,0,0.199888,-2.219695,0.\C,0,-0.09
 1721,-1.102952,-1.376665\C,0,-0.091721,0.241243,-1.257818\C,0,-0.03034
 7,0.975423,0.\H,0,-0.142915,-1.549499,2.365217\H,0,-0.152971,0.858044,
 2.148256\S,0,0.061494,2.633228,0.\H,0,-1.007074,-2.965361,0.\H,0,-0.15
 2971,0.858044,-2.148256\H,0,-0.142915,-1.549499,-2.365217\\Version=ES6

 Normal termination of Gaussian 16 at Tue Apr  8 23:32:18 2025.
