 Gaussian 16, Revision C.01,

 ----------------------------------------------------------------------
 #t hf aug-cc-pvdz symm=none int=(grid=ultrafine) guess=(read,tcheck) s
 table=(opt,rrhf)
 ----------------------------------------------------------------------
 -----
 title
 -----
 Symbolic Z-matrix:
 Charge =  0 Multiplicity = 1

 SCF Done:  E(RHF) =  -784.647749897     A.U. after   15 cycles
 Normal termination of Gaussian 16 at Wed Apr  9 00:05:26 2025.
 Gaussian 16:  ES64L-G16RevC.01  3-Jul-2019

 ----------------------------------------------------------------------
 #t hf aug-cc-pvdz iop(5/13=1,5/36=2,99/5=2) pseudo=read geom=check gue
 ss=(read,tcheck) scf=(maxcycle=1)
 ----------------------------------------------------------------------
 -----
 title
 -----
 Structure from the checkpoint file:  "BDE49_nonexpt_2179_mol1.chk"
 Charge =  0 Multiplicity = 1

                         Standard orientation:
 ---------------------------------------------------------------------
 Center     Atomic      Atomic             Coordinates (Angstroms)
 Number     Number       Type             X           Y           Z
 ---------------------------------------------------------------------
      1          8           0        0.434180   -0.746741   -0.371308
      2         14           0        1.872223   -0.005747    0.010449
      3          6           0       -0.868079   -0.351786   -0.203435
      4          8           0        2.083106    1.410113   -0.789658
      5          6           0       -1.828794   -1.346249   -0.010586
      6          6           0       -1.250910    0.991371   -0.247466
      7          6           0       -2.593783    1.328485   -0.088458
      8          6           0       -3.556658    0.341670    0.108124
      9          6           0       -3.166466   -0.996551    0.143092
     10          1           0       -3.906708   -1.774736    0.292614
     11          1           0       -1.509563   -2.381202    0.014874
     12          1           0       -2.884999    2.372465   -0.123300
     13          1           0       -4.599275    0.610921    0.229123
     14          1           0       -0.503677    1.756503   -0.421073
     15          6           0        1.969965    0.384595    1.814172
     16          1           0        1.794626   -0.511160    2.415070
     17          1           0        1.223921    1.133210    2.092611
     18          1           0        2.956865    0.780466    2.066260
     19          1           0        2.275915    1.369821   -1.729893
     20          8           0        2.988478   -1.090962   -0.506184
     21          1           0        2.664008   -1.964314   -0.738021
 ---------------------------------------------------------------------

 SCF Done:  E(RHF) =  -787.035533233     A.U. after    2 cycles

 The electronic state is 1-A.
 Alpha  occ. eigenvalues --  -76.24850 -21.07662 -21.07533 -21.06256 -11.53161
 Alpha  occ. eigenvalues --  -11.45958 -11.42696 -11.40535 -11.40269 -11.36381
 Alpha  occ. eigenvalues --  -11.34949  -5.59859  -2.27918  -2.26559  -2.23974
 Alpha  occ. eigenvalues --   -1.74922  -1.67440  -1.64193  -1.31621  -1.09382
 Alpha  occ. eigenvalues --   -1.06928  -1.03751  -0.87276  -0.84776  -0.72765
 Alpha  occ. eigenvalues --   -0.69704  -0.65284  -0.61935  -0.59977  -0.58585
 Alpha  occ. eigenvalues --   -0.58128  -0.56661  -0.55406  -0.54029  -0.48984
 Alpha  occ. eigenvalues --   -0.48027  -0.46478  -0.44232  -0.43104  -0.42511
 Alpha  occ. eigenvalues --   -0.39703  -0.36566  -0.34564  -0.33244  -0.28429
 Alpha virt. eigenvalues --    0.03136   0.04883   0.05118   0.05468   0.05888
 Alpha virt. eigenvalues --    0.06144   0.06375   0.06758   0.07287   0.08045
 Alpha virt. eigenvalues --    0.08401   0.09534   0.10525   0.11386   0.11821

 Mulliken charges:
               1
     1  O   -6.194041
     2  Si   8.569033
     3  C    6.877539
     4  O   -3.165934
     5  C   -4.450600
     6  C   -3.331764
     7  C   -0.710121
     8  C   -2.763447
     9  C   -0.041204
    10  H    1.512386
    11  H    1.812031
    12  H    1.532962
    13  H    1.552512
    14  H    1.892650
    15  C   -5.688257
    16  H    1.127518
    17  H    1.309572
    18  H    1.212192
    19  H    1.121811
    20  O   -3.298295
    21  H    1.123457
 Sum of Mulliken charges =  -0.00000

 Dipole moment (field-independent basis, Debye):
    X=              0.1079    Y=             -0.3204    Z=             -0.2069  Tot=              0.3963

 Test job not archived.
 1\1\GINC-SE343\SP\RHF\Aug-CC-pVDZ\C7H10O3Si1\OHZDE\09-Apr-2025\0\\#t h
 f aug-cc-pvdz iop(5/13=1,5/36=2,99/5=2) pseudo=read geom=check guess=(
 read,tcheck) scf=(maxcycle=1)\\title\\0,1\O,0,0.43418,-0.746741,-0.371
 308\Si,0,1.872223,-0.005747,0.010449\C,0,-0.868079,-0.351786,-0.203435
 \O,0,2.083106,1.410113,-0.789658\C,0,-1.828794,-1.346249,-0.010586\C,0
 ,-1.25091,0.991371,-0.247466\C,0,-2.593783,1.328485,-0.088458\C,0,-3.5
 56658,0.34167,0.108124\C,0,-3.166466,-0.996551,0.143092\H,0,-3.906708,
 -1.774736,0.292614\H,0,-1.509563,-2.381202,0.014874\H,0,-2.884999,2.37

 Normal termination of Gaussian 16 at Wed Apr  9 00:05:39 2025.
