 Gaussian 16, Revision C.01,

 ----------------------------------------------------------------------
 #t hf aug-cc-pvdz symm=none int=(grid=ultrafine) guess=(read,tcheck) s
 table=(opt,rrhf)
 ----------------------------------------------------------------------
 -----
 title
 -----
 Symbolic Z-matrix:
 Charge =  0 Multiplicity = 1

 SCF Done:  E(RHF) =  -118.276269295     A.U. after   10 cycles
 Normal termination of Gaussian 16 at Tue Apr  8 23:06:44 2025.
 Gaussian 16:  ES64L-G16RevC.01  3-Jul-2019

 ----------------------------------------------------------------------
 #t hf aug-cc-pvdz iop(5/13=1,5/36=2,99/5=2) pseudo=read geom=check gue
 ss=(read,tcheck) scf=(maxcycle=1)
 ----------------------------------------------------------------------
 -----
 title
 -----
 Structure from the checkpoint file:  "BDE49_expt_3_mol1.chk"
 Charge =  0 Multiplicity = 1

                         Standard orientation:
 ---------------------------------------------------------------------
 Center     Atomic      Atomic             Coordinates (Angstroms)
 Number     Number       Type             X           Y           Z
 ---------------------------------------------------------------------
      1          6           0        0.000000    1.276939   -0.259549
      2          6           0        0.000000   -0.000000    0.585518
      3          1           0        0.882737    1.322827   -0.905512
      4          1           0        0.000000    2.173349    0.366818
      5          1           0       -0.882737    1.322827   -0.905512
      6          6           0       -0.000000   -1.276939   -0.259549
      7          1           0       -0.875423    0.000000    1.244950
      8          1           0        0.875423   -0.000000    1.244950
      9          1           0       -0.882737   -1.322827   -0.905512
     10          1           0       -0.000000   -2.173349    0.366818
     11          1           0        0.882737   -1.322827   -0.905512
 ---------------------------------------------------------------------

 SCF Done:  E(RHF) =  -118.914963495     A.U. after    2 cycles

 The electronic state is 1-A1.
 Alpha  occ. eigenvalues --  -11.39775 -11.36864 -11.33940  -1.19797  -0.98968
 Alpha  occ. eigenvalues --   -0.83460  -0.62367  -0.59460  -0.54218  -0.52423
 Alpha  occ. eigenvalues --   -0.45489  -0.45422  -0.44427
 Alpha virt. eigenvalues --    0.03892   0.05551   0.06025   0.06353   0.06654
 Alpha virt. eigenvalues --    0.06718   0.06942   0.07671   0.11414   0.13923
 Alpha virt. eigenvalues --    0.14881   0.15793   0.15832   0.16989   0.18247

 Mulliken charges:
               1
     1  C   -3.527155
     2  C   -3.197660
     3  H    1.285359
     4  H    1.191239
     5  H    1.285359
     6  C   -3.527155
     7  H    1.364027
     8  H    1.364027
     9  H    1.285359
    10  H    1.191239
    11  H    1.285359
 Sum of Mulliken charges =   0.00000

 Dipole moment (field-independent basis, Debye):
    X=              0.0000    Y=              0.0000    Z=              0.1407  Tot=              0.1407

 Test job not archived.
 1\1\GINC-SE461\SP\RHF\Aug-CC-pVDZ\C3H8\OHZDE\08-Apr-2025\0\\#t hf aug-
 cc-pvdz iop(5/13=1,5/36=2,99/5=2) pseudo=read geom=check guess=(read,t
 check) scf=(maxcycle=1)\\title\\0,1\C,0,0.,1.276939,-0.259549\C,0,0.,0
 .,0.585518\H,0,0.882737,1.322827,-0.905512\H,0,0.,2.173349,0.366818\H,
 0,-0.882737,1.322827,-0.905512\C,0,0.,-1.276939,-0.259549\H,0,-0.87542
 3,0.,1.24495\H,0,0.875423,0.,1.24495\H,0,-0.882737,-1.322827,-0.905512
 \H,0,0.,-2.173349,0.366818\H,0,0.882737,-1.322827,-0.905512\\Version=E
 S64L-G16RevC.01\State=1-A1\HF=-118.9149635\RMSD=2.397e-01\Dipole=0.,0.

 Normal termination of Gaussian 16 at Tue Apr  8 23:06:47 2025.
