 Gaussian 16, Revision C.01,

 ----------------------------------------------------------------------
 #t hf aug-cc-pvdz symm=none int=(grid=ultrafine) guess=(read,tcheck) s
 table=(opt,rrhf)
 ----------------------------------------------------------------------
 -----
 title
 -----
 Symbolic Z-matrix:
 Charge =  0 Multiplicity = 1

 SCF Done:  E(RHF) =  -650.122178530     A.U. after   15 cycles

 1\1\GINC-SE212\Stability\RHF\Aug-CC-pVDZ\C8H11P1\OHZDE\08-Apr-2025\0\\
 #t hf aug-cc-pvdz symm=none int=(grid=ultrafine) guess=(read,tcheck) s
 table=(opt,rrhf)\\title\\0,1\C,0,0.313586,-0.280979,0.562541\P,0,-2.50
 6596,-0.403747,-0.124746\C,0,-2.213404,1.27222,-0.873218\H,0,-1.179581
 ,1.434977,-1.181274\H,0,-2.497492,2.041639,-0.151001\H,0,-2.866604,1.3
 7861,-1.742581\C,0,1.027704,-1.26842,-0.129011\C,0,2.301406,-1.015084,
 -0.628211\C,0,2.890093,0.236043,-0.44824\C,0,2.193812,1.226771,0.23873
 7\C,0,0.918912,0.968758,0.739546\H,0,0.390125,1.744986,1.283554\H,0,0.

 Normal termination of Gaussian 16 at Tue Apr  8 23:29:34 2025.
 Gaussian 16:  ES64L-G16RevC.01  3-Jul-2019

 ----------------------------------------------------------------------
 #t hf aug-cc-pvdz iop(5/13=1,5/36=2,99/5=2) pseudo=read geom=check gue
 ss=(read,tcheck) scf=(maxcycle=1)
 ----------------------------------------------------------------------
 -----
 title
 -----
 Structure from the checkpoint file:  "BDE49_nonexpt_1295_mol1.chk"
 Charge =  0 Multiplicity = 1

                         Standard orientation:
 ---------------------------------------------------------------------
 Center     Atomic      Atomic             Coordinates (Angstroms)
 Number     Number       Type             X           Y           Z
 ---------------------------------------------------------------------
      1          6           0        0.313586   -0.280979    0.562541
      2         15           0       -2.506596   -0.403747   -0.124746
      3          6           0       -2.213404    1.272220   -0.873218
      4          1           0       -1.179581    1.434977   -1.181274
      5          1           0       -2.497492    2.041639   -0.151001
      6          1           0       -2.866604    1.378610   -1.742581
      7          6           0        1.027704   -1.268420   -0.129011
      8          6           0        2.301406   -1.015084   -0.628211
      9          6           0        2.890093    0.236043   -0.448240
     10          6           0        2.193812    1.226771    0.238737
     11          6           0        0.918912    0.968758    0.739546
     12          1           0        0.390125    1.744986    1.283554
     13          1           0        0.580651   -2.247171   -0.272718
     14          1           0        2.837959   -1.796755   -1.154784
     15          1           0        3.883163    0.433644   -0.835422
     16          1           0        2.643894    2.201691    0.390837
     17          6           0       -1.070360   -0.556552    1.087875
     18          1           0       -1.306913    0.110351    1.922284
     19          1           0       -1.138129   -1.575857    1.479779
     20          1           0       -1.918626   -1.166460   -1.167595
 ---------------------------------------------------------------------

 SCF Done:  E(RHF) =  -651.848853561     A.U. after    2 cycles

 The electronic state is 1-A.
 Alpha  occ. eigenvalues -- -105.16901 -11.51551 -11.43783 -11.43048 -11.40660
 Alpha  occ. eigenvalues --  -11.40338 -11.39307 -11.36689 -11.35948  -2.74250
 Alpha  occ. eigenvalues --   -1.47049  -1.45125  -1.42964  -1.34237  -1.13382
 Alpha  occ. eigenvalues --   -1.08971  -1.01129  -0.96252  -0.86231  -0.82882
 Alpha  occ. eigenvalues --   -0.70677  -0.66932  -0.64207  -0.61110  -0.57690
 Alpha  occ. eigenvalues --   -0.56703  -0.55771  -0.55109  -0.52162  -0.50166
 Alpha  occ. eigenvalues --   -0.44444  -0.43894  -0.34284  -0.33006  -0.23750
 Alpha  occ. eigenvalues --   -0.19244  -0.01318
 Alpha virt. eigenvalues --    0.03669   0.04935   0.05041   0.05650   0.06021
 Alpha virt. eigenvalues --    0.06510   0.06584   0.06929   0.07884   0.08350
 Alpha virt. eigenvalues --    0.09151   0.10493   0.11044   0.11901   0.12153

 Mulliken charges:
               1
     1  C    4.774936
     2  P    4.944095
     3  C   -6.072145
     4  H    1.349549
     5  H    1.153666
     6  H    1.267410
     7  C   -3.019655
     8  C   -1.284804
     9  C   -2.901097
    10  C   -1.494528
    11  C   -2.835387
    12  H    1.926223
    13  H    1.862929
    14  H    1.505545
    15  H    1.513351
    16  H    1.490143
    17  C   -5.420835
    18  H    1.214593
    19  H    0.910135
    20  H   -0.884121
 Sum of Mulliken charges =  -0.00000

 Dipole moment (field-independent basis, Debye):
    X=             -0.5688    Y=             -0.6082    Z=              0.6917  Tot=              1.0825

 Test job not archived.
 1\1\GINC-SE212\SP\RHF\Aug-CC-pVDZ\C8H11P1\OHZDE\08-Apr-2025\0\\#t hf a
 ug-cc-pvdz iop(5/13=1,5/36=2,99/5=2) pseudo=read geom=check guess=(rea
 d,tcheck) scf=(maxcycle=1)\\title\\0,1\C,0,0.313586,-0.280979,0.562541
 \P,0,-2.506596,-0.403747,-0.124746\C,0,-2.213404,1.27222,-0.873218\H,0
 ,-1.179581,1.434977,-1.181274\H,0,-2.497492,2.041639,-0.151001\H,0,-2.
 866604,1.37861,-1.742581\C,0,1.027704,-1.26842,-0.129011\C,0,2.301406,
 -1.015084,-0.628211\C,0,2.890093,0.236043,-0.44824\C,0,2.193812,1.2267
 71,0.238737\C,0,0.918912,0.968758,0.739546\H,0,0.390125,1.744986,1.283

 Normal termination of Gaussian 16 at Tue Apr  8 23:29:46 2025.
