 Gaussian 16, Revision C.01,

 ----------------------------------------------------------------------
 #t hf aug-cc-pvdz symm=none int=(grid=ultrafine) guess=(read,tcheck) s
 table=opt
 ----------------------------------------------------------------------
 -----
 title
 -----
 Symbolic Z-matrix:
 Charge =  0 Multiplicity = 2

 SCF Done:  E(UHF) =  -276.346489513     A.U. after   15 cycles
 Normal termination of Gaussian 16 at Tue Apr  8 22:34:22 2025.
 Gaussian 16:  ES64L-G16RevC.01  3-Jul-2019

 ----------------------------------------------------------------------
 #t hf aug-cc-pvdz iop(5/13=1,5/36=2,99/5=2) pseudo=read geom=check gue
 ss=(read,tcheck) scf=(maxcycle=1)
 ----------------------------------------------------------------------
 -----
 title
 -----
 Structure from the checkpoint file:  "BDE49_expt_1046_mol3.chk"
 Charge =  0 Multiplicity = 2

                         Standard orientation:
 ---------------------------------------------------------------------
 Center     Atomic      Atomic             Coordinates (Angstroms)
 Number     Number       Type             X           Y           Z
 ---------------------------------------------------------------------
      1          6           0       -1.396591   -0.106197   -0.087878
      2          6           0        0.006296    0.005861    0.357342
      3          1           0       -2.187076    0.365044    0.479435
      4          1           0       -1.599688   -0.515207   -1.068467
      5          9           0        0.596892    1.139290   -0.177180
      6          9           0        0.736423   -1.062867   -0.097206
      7          1           0        0.128695    0.064382    1.441719
 ---------------------------------------------------------------------

 SCF Done:  E(UHF) =  -277.378192282     A.U. after    2 cycles

 The electronic state is 2-A.
 Alpha  occ. eigenvalues --  -29.27855 -29.27403 -11.52614 -11.41105  -1.32182
 Alpha  occ. eigenvalues --   -1.00060  -0.79783  -0.75095  -0.65689  -0.58491
 Alpha  occ. eigenvalues --   -0.43605  -0.41370  -0.35381  -0.30935  -0.27484
 Alpha  occ. eigenvalues --   -0.26189  -0.20757
 Alpha virt. eigenvalues --    0.03980   0.05255   0.06103   0.11521   0.11750
 Alpha virt. eigenvalues --    0.12517   0.13119   0.14932   0.16736   0.18724
 Alpha virt. eigenvalues --    0.22743   0.24030   0.24336   0.26543   0.28933

  Beta  occ. eigenvalues --  -29.27799 -29.27124 -11.52803 -11.38920  -1.30434
  Beta  occ. eigenvalues --   -0.93363  -0.78393  -0.74293  -0.64636  -0.57459
  Beta  occ. eigenvalues --   -0.43325  -0.37784  -0.30669  -0.29066  -0.26422
  Beta  occ. eigenvalues --   -0.21233
  Beta virt. eigenvalues --    0.04082   0.05289   0.06120   0.08311   0.11589
  Beta virt. eigenvalues --    0.11847   0.13153   0.14813   0.16995   0.17944
  Beta virt. eigenvalues --    0.19393   0.23171   0.24218   0.24838   0.27651

 Mulliken charges and spin densities:
               1          2
     1  C   -3.112534   1.398311
     2  C   -1.709121  -0.273183
     3  H    1.286836  -0.073374
     4  H    1.301466  -0.067278
     5  F    0.351328   0.017307
     6  F    0.385424   0.001049
     7  H    1.496601  -0.002832
 Sum of Mulliken charges =   0.00000   1.00000

 Dipole moment (field-independent basis, Debye):
    X=              0.9792    Y=              0.1694    Z=             -0.6943  Tot=              1.2123
                          Isotropic Fermi Contact Couplings
        Atom                 a.u.       MegaHertz       Gauss      10(-4) cm-1
     1  C(13)              0.12703     142.80920      50.95787      47.63602
     2  C(13)             -0.02778     -31.22898     -11.14328     -10.41687
     3  H(1)              -0.01797     -80.33735     -28.66637     -26.79766
     4  H(1)              -0.01830     -81.80642     -29.19057     -27.28768
     5  F(19)              0.03340     140.53136      50.14508      46.87622
     6  F(19)              0.00472      19.84661       7.08176       6.62012
     7  H(1)               0.00262      11.69394       4.17269       3.90068
 --------------------------------------------------------

 Normal termination of Gaussian 16 at Tue Apr  8 22:34:24 2025.
