 Gaussian 16, Revision C.01,

 ----------------------------------------------------------------------
 #t hf aug-cc-pvdz symm=none int=(grid=ultrafine) guess=(read,tcheck) s
 table=(opt,rrhf)
 ----------------------------------------------------------------------
 -----
 title
 -----
 Symbolic Z-matrix:
 Charge =  0 Multiplicity = 1

 SCF Done:  E(RHF) =  -2723.92166469     A.U. after   12 cycles
 Normal termination of Gaussian 16 at Tue Apr  8 23:50:30 2025.
 Gaussian 16:  ES64L-G16RevC.01  3-Jul-2019

 ----------------------------------------------------------------------
 #t hf aug-cc-pvdz iop(5/13=1,5/36=2,99/5=2) pseudo=read geom=check gue
 ss=(read,tcheck) scf=(maxcycle=1)
 ----------------------------------------------------------------------
 -----
 title
 -----
 Structure from the checkpoint file:  "BDE49_nonexpt_1858_mol1.chk"
 Charge =  0 Multiplicity = 1

                         Standard orientation:
 ---------------------------------------------------------------------
 Center     Atomic      Atomic             Coordinates (Angstroms)
 Number     Number       Type             X           Y           Z
 ---------------------------------------------------------------------
      1          6           0       -1.102197   -0.000001   -0.398146
      2         14           0        0.768768    0.000000    0.050314
      3         17           0        0.982492    0.000000    2.077355
      4         17           0        1.618240    1.668882   -0.761232
      5         17           0       -1.907252   -1.470390    0.236291
      6         17           0       -1.907253    1.470389    0.236291
      7         17           0        1.618242   -1.668882   -0.761232
      8          9           0       -1.225059   -0.000001   -1.753618
 ---------------------------------------------------------------------

 SCF Done:  E(RHF) =  -2725.79851431     A.U. after    2 cycles

 The electronic state is 1-A.
 Alpha  occ. eigenvalues --  -99.92925 -99.92910 -99.92648 -99.92480 -99.92477
 Alpha  occ. eigenvalues --  -76.37134 -29.32875 -11.56298 -10.50371 -10.50218
 Alpha  occ. eigenvalues --  -10.50167 -10.50012 -10.49930  -9.70176  -9.70120
 Alpha  occ. eigenvalues --   -9.69982  -9.69826  -9.69822  -9.69492  -9.69470
 Alpha  occ. eigenvalues --   -9.69384  -9.69363  -9.69306  -9.69269  -9.69215
 Alpha  occ. eigenvalues --   -9.69155  -9.69146  -9.69032  -5.70989  -2.33258
 Alpha  occ. eigenvalues --   -2.32996  -2.32995  -1.45125  -1.35784  -1.32698
 Alpha  occ. eigenvalues --   -1.32153  -1.31832  -1.11990  -0.85119  -0.78275
 Alpha  occ. eigenvalues --   -0.72732  -0.70103  -0.64169  -0.63971  -0.59092
 Alpha  occ. eigenvalues --   -0.58483  -0.58418  -0.56858  -0.56092  -0.55483
 Alpha  occ. eigenvalues --   -0.54820  -0.53790  -0.51776  -0.50209  -0.43030
 Alpha  occ. eigenvalues --   -0.33244  -0.31466
 Alpha virt. eigenvalues --    0.01546   0.03498   0.05434   0.06117   0.06273
 Alpha virt. eigenvalues --    0.06607   0.07267   0.09539   0.09873   0.10764
 Alpha virt. eigenvalues --    0.11242   0.11949   0.12688   0.14226   0.14337

 Mulliken charges:
               1
     1  C   -1.259402
     2  Si   3.092434
     3  Cl  -0.706822
     4  Cl  -0.726343
     5  Cl  -0.110425
     6  Cl  -0.110425
     7  Cl  -0.726343
     8  F    0.547325
 Sum of Mulliken charges =  -0.00000

 Dipole moment (field-independent basis, Debye):
    X=              0.3410    Y=             -0.0000    Z=             -4.3066  Tot=              4.3201

 Test job not archived.
 1\1\GINC-SE424\SP\RHF\Aug-CC-pVDZ\C1Cl5F1Si1\OHZDE\08-Apr-2025\0\\#t h
 f aug-cc-pvdz iop(5/13=1,5/36=2,99/5=2) pseudo=read geom=check guess=(
 read,tcheck) scf=(maxcycle=1)\\title\\0,1\C,0,-1.102197,0.,-0.398146\S
 i,0,0.768768,0.,0.050314\Cl,0,0.982492,0.,2.077355\Cl,0,1.618241,1.668
 882,-0.761232\Cl,0,-1.907253,-1.470389,0.236291\Cl,0,-1.907253,1.47039
 ,0.236291\Cl,0,1.618241,-1.668882,-0.761232\F,0,-1.225059,0.,-1.753618
 \\Version=ES64L-G16RevC.01\State=1-A\HF=-2725.7985143\RMSD=3.643e-02\D
 ipole=0.1341521,-0.0000014,-1.6943659\Quadrupole=-3.0635019,-1.0663343

 Normal termination of Gaussian 16 at Tue Apr  8 23:50:35 2025.
