 Gaussian 16, Revision C.01,

 ----------------------------------------------------------------------
 #t hf aug-cc-pvdz symm=none int=(grid=ultrafine) guess=(read,tcheck) s
 table=(opt,rrhf)
 ----------------------------------------------------------------------
 -----
 title
 -----
 Symbolic Z-matrix:
 Charge =  0 Multiplicity = 1

 SCF Done:  E(RHF) =  -1143.22786467     A.U. after   14 cycles
 Normal termination of Gaussian 16 at Tue Apr  8 23:27:55 2025.
 Gaussian 16:  ES64L-G16RevC.01  3-Jul-2019

 ----------------------------------------------------------------------
 #t hf aug-cc-pvdz iop(5/13=1,5/36=2,99/5=2) pseudo=read geom=check gue
 ss=(read,tcheck) scf=(maxcycle=1)
 ----------------------------------------------------------------------
 -----
 title
 -----
 Structure from the checkpoint file:  "BDE49_nonexpt_1270_mol1.chk"
 Charge =  0 Multiplicity = 1

                         Standard orientation:
 ---------------------------------------------------------------------
 Center     Atomic      Atomic             Coordinates (Angstroms)
 Number     Number       Type             X           Y           Z
 ---------------------------------------------------------------------
      1          6           0       -0.721667    0.498696   -0.004316
      2         15           0        1.048599   -0.012705   -0.039956
      3          8           0        1.981587    1.102584   -0.217926
      4          6           0       -1.062723    1.236540   -1.297729
      5          1           0       -0.874483    0.615313   -2.173548
      6          1           0       -0.440262    2.131669   -1.370877
      7          6           0       -1.021981    1.324007    1.243491
      8         17           0       -1.744415   -1.051370    0.064077
      9          1           0       -0.393037    2.218493    1.238051
     10          1           0       -0.816981    0.757177    2.150903
     11          1           0       -2.069370    1.632622    1.245170
     12          1           0       -2.113814    1.531660   -1.292615
     13          8           0        1.213630   -0.825486    1.337837
     14          1           0        2.068680   -0.648182    1.749170
     15          8           0        1.159304   -1.110436   -1.197249
     16          1           0        0.567398   -1.863637   -1.066193
 ---------------------------------------------------------------------

 SCF Done:  E(RHF) =  -1145.21712380     A.U. after    2 cycles

 The electronic state is 1-A.
 Alpha  occ. eigenvalues -- -105.30797 -99.89486 -21.12171 -21.11918 -21.02631
 Alpha  occ. eigenvalues --  -11.48120 -11.41561 -11.39139 -10.46696  -9.66684
 Alpha  occ. eigenvalues --   -9.66068  -9.65998  -2.93495  -1.98355  -1.91790
 Alpha  occ. eigenvalues --   -1.80754  -1.56307  -1.40611  -1.34459  -1.25694
 Alpha  occ. eigenvalues --   -1.17098  -1.04289  -0.83840  -0.71897  -0.65955
 Alpha  occ. eigenvalues --   -0.62975  -0.61700  -0.60867  -0.57346  -0.55272
 Alpha  occ. eigenvalues --   -0.52971  -0.51788  -0.50040  -0.47465  -0.46043
 Alpha  occ. eigenvalues --   -0.40068  -0.36810  -0.35078  -0.29155  -0.26003
 Alpha  occ. eigenvalues --   -0.16159
 Alpha virt. eigenvalues --    0.03614   0.05321   0.05695   0.05900   0.06781
 Alpha virt. eigenvalues --    0.07032   0.07134   0.07702   0.07918   0.10405
 Alpha virt. eigenvalues --    0.10564   0.12510   0.12774   0.13378   0.14320

 Mulliken charges:
               1
     1  C   -2.149389
     2  P    9.961672
     3  O   -3.060486
     4  C   -3.797627
     5  H    1.131154
     6  H    1.249485
     7  C   -3.688752
     8  Cl  -0.286610
     9  H    1.213727
    10  H    1.221461
    11  H    1.187690
    12  H    1.218175
    13  O   -2.936839
    14  H    0.901012
    15  O   -2.936528
    16  H    0.771856
 Sum of Mulliken charges =   0.00000

 Dipole moment (field-independent basis, Debye):
    X=             -0.4222    Y=             -0.3246    Z=              0.7318  Tot=              0.9050

 Test job not archived.
 1\1\GINC-SE220\SP\RHF\Aug-CC-pVDZ\C3H8Cl1O3P1\OHZDE\08-Apr-2025\0\\#t
 hf aug-cc-pvdz iop(5/13=1,5/36=2,99/5=2) pseudo=read geom=check guess=
 (read,tcheck) scf=(maxcycle=1)\\title\\0,1\C,0,-0.721667,0.498696,-0.0
 04316\P,0,1.048599,-0.012705,-0.039956\O,0,1.981587,1.102584,-0.217926
 \C,0,-1.062723,1.23654,-1.297729\H,0,-0.874483,0.615313,-2.173548\H,0,
 -0.440262,2.131669,-1.370877\C,0,-1.021981,1.324007,1.243491\Cl,0,-1.7
 44415,-1.05137,0.064077\H,0,-0.393037,2.218493,1.238051\H,0,-0.816981,
 0.757177,2.150903\H,0,-2.06937,1.632622,1.24517\H,0,-2.113814,1.53166,

 Normal termination of Gaussian 16 at Tue Apr  8 23:28:03 2025.
