 Gaussian 16, Revision C.01,

 ----------------------------------------------------------------------
 #t hf aug-cc-pvdz symm=none int=(grid=ultrafine) guess=(read,tcheck) s
 table=(opt,rrhf)
 ----------------------------------------------------------------------
 -----
 title
 -----
 Symbolic Z-matrix:
 Charge =  0 Multiplicity = 1

 SCF Done:  E(RHF) =  -613.300593010     A.U. after   12 cycles
 Normal termination of Gaussian 16 at Wed Apr  9 00:34:59 2025.
 Gaussian 16:  ES64L-G16RevC.01  3-Jul-2019

 ----------------------------------------------------------------------
 #t hf aug-cc-pvdz iop(5/13=1,5/36=2,99/5=2) pseudo=read geom=check gue
 ss=(read,tcheck) scf=(maxcycle=1)
 ----------------------------------------------------------------------
 -----
 title
 -----
 Structure from the checkpoint file:  "BDE49_nonexpt_457_mol1.chk"
 Charge =  0 Multiplicity = 1

                         Standard orientation:
 ---------------------------------------------------------------------
 Center     Atomic      Atomic             Coordinates (Angstroms)
 Number     Number       Type             X           Y           Z
 ---------------------------------------------------------------------
      1          1           0        2.613842   -1.023294   -0.229042
      2          1           0        2.613827    1.023346   -0.229072
      3          5           0        2.012127    0.000022   -0.192785
      4         14           0        0.016110    0.000002   -0.015514
      5          9           0       -0.368849   -0.000051    1.530531
      6          9           0       -0.677470    1.271720   -0.674156
      7          9           0       -0.677441   -1.271691   -0.674238
 ---------------------------------------------------------------------

 SCF Done:  E(RHF) =  -614.580249737     A.U. after    2 cycles

 The electronic state is 1-A.
 Alpha  occ. eigenvalues --  -76.30778 -29.29338 -29.29163 -29.29159  -7.65742
 Alpha  occ. eigenvalues --   -5.67536  -2.31696  -2.31551  -2.28236  -1.02447
 Alpha  occ. eigenvalues --   -0.84933  -0.72054  -0.71843  -0.52429  -0.51982
 Alpha  occ. eigenvalues --   -0.42653  -0.42394  -0.42373  -0.36618  -0.35597
 Alpha  occ. eigenvalues --   -0.30610  -0.30477  -0.30150  -0.28398
 Alpha virt. eigenvalues --    0.01969   0.03658   0.04039   0.06782   0.08060
 Alpha virt. eigenvalues --    0.08428   0.10029   0.10152   0.12496   0.12680
 Alpha virt. eigenvalues --    0.19724   0.20344   0.21670   0.23395   0.23721

 Mulliken charges:
               1
     1  H   -2.119938
     2  H   -2.119967
     3  B    2.437964
     4  Si   3.733695
     5  F   -0.589782
     6  F   -0.670983
     7  F   -0.670990
 Sum of Mulliken charges =   0.00000

 Dipole moment (field-independent basis, Debye):
    X=             -2.0821    Y=             -0.0000    Z=              0.2867  Tot=              2.1017

 Test job not archived.
 1\1\GINC-SE150\SP\RHF\Aug-CC-pVDZ\B1F3H2Si1\OHZDE\09-Apr-2025\0\\#t hf
  aug-cc-pvdz iop(5/13=1,5/36=2,99/5=2) pseudo=read geom=check guess=(r
 ead,tcheck) scf=(maxcycle=1)\\title\\0,1\H,0,2.613842,-1.023293,-0.229
 042\H,0,2.613826,1.023347,-0.229072\B,0,2.012127,0.000023,-0.192785\Si
 ,0,0.01611,0.000002,-0.015514\F,0,-0.368849,-0.000051,1.530531\F,0,-0.
 677471,1.27172,-0.674156\F,0,-0.677441,-1.271691,-0.674238\\Version=ES
 64L-G16RevC.01\State=1-A\HF=-614.5802497\RMSD=8.762e-02\Dipole=-0.8191
 532,-0.000013,0.1128142\Quadrupole=-2.3561789,0.1350625,2.2211164,-0.0

 Normal termination of Gaussian 16 at Wed Apr  9 00:35:01 2025.
