 Gaussian 16, Revision C.01,

 ----------------------------------------------------------------------
 #t hf aug-cc-pvdz symm=none int=(grid=ultrafine) guess=(read,tcheck) s
 table=(opt,rrhf)
 ----------------------------------------------------------------------
 -----
 title
 -----
 Symbolic Z-matrix:
 Charge =  0 Multiplicity = 1

 SCF Done:  E(RHF) =  -1433.64963559     A.U. after   14 cycles
 Normal termination of Gaussian 16 at Tue Apr  8 23:56:22 2025.
 Gaussian 16:  ES64L-G16RevC.01  3-Jul-2019

 ----------------------------------------------------------------------
 #t hf aug-cc-pvdz iop(5/13=1,5/36=2,99/5=2) pseudo=read geom=check gue
 ss=(read,tcheck) scf=(maxcycle=1)
 ----------------------------------------------------------------------
 -----
 title
 -----
 Structure from the checkpoint file:  "BDE49_nonexpt_199_mol1.chk"
 Charge =  0 Multiplicity = 1

                         Standard orientation:
 ---------------------------------------------------------------------
 Center     Atomic      Atomic             Coordinates (Angstroms)
 Number     Number       Type             X           Y           Z
 ---------------------------------------------------------------------
      1         17           0        2.242523   -0.573758    0.000004
      2         17           0        0.274891    1.762367   -0.000000
      3          5           0        0.604201    0.054318   -0.000006
      4          6           0       -2.129522   -0.337542    0.000011
      5          7           0       -3.152130    0.202556   -0.000000
      6         16           0       -0.685938   -1.241911   -0.000006
 ---------------------------------------------------------------------

 SCF Done:  E(RHF) =  -1434.85626063     A.U. after    2 cycles

 The electronic state is 1-A.
 Alpha  occ. eigenvalues --  -99.93393 -99.93298 -75.77056 -15.78928 -13.24711
 Alpha  occ. eigenvalues --  -13.18277 -13.10582 -11.46116 -10.50726 -10.50539
 Alpha  occ. eigenvalues --   -9.70674  -9.70442  -9.70106  -9.70047  -9.69977
 Alpha  occ. eigenvalues --   -9.69850  -8.11301  -7.77012  -1.44523  -1.34014
 Alpha  occ. eigenvalues --   -1.33259  -1.20738  -0.84443  -0.72081  -0.66406
 Alpha  occ. eigenvalues --   -0.61348  -0.61062  -0.55601  -0.54290  -0.51637
 Alpha  occ. eigenvalues --   -0.51374  -0.50106  -0.40548  -0.33013
 Alpha virt. eigenvalues --    0.01966   0.03035   0.03397   0.03617   0.03810
 Alpha virt. eigenvalues --    0.08046   0.10425   0.11022   0.11326   0.12037
 Alpha virt. eigenvalues --    0.13529   0.14794   0.14931   0.15185   0.15887

 Mulliken charges:
               1
     1  Cl  -1.098382
     2  Cl  -0.877948
     3  B    3.294363
     4  C    0.690605
     5  N   -1.949057
     6  S   -0.059581
 Sum of Mulliken charges =  -0.00000

 Dipole moment (field-independent basis, Debye):
    X=              1.5366    Y=             -3.3245    Z=             -0.0000  Tot=              3.6625

 Test job not archived.
 1\1\GINC-SE341\SP\RHF\Aug-CC-pVDZ\C1B1Cl2N1S1\OHZDE\08-Apr-2025\0\\#t
 hf aug-cc-pvdz iop(5/13=1,5/36=2,99/5=2) pseudo=read geom=check guess=
 (read,tcheck) scf=(maxcycle=1)\\title\\0,1\Cl,0,-2.242523,-0.573759,-0
 .000004\Cl,0,-0.274892,1.762367,0.\B,0,-0.604201,0.054318,0.000006\C,0
 ,2.129522,-0.337542,-0.000011\N,0,3.15213,0.202557,0.\S,0,0.685938,-1.
 241911,0.000006\\Version=ES64L-G16RevC.01\State=1-A\HF=-1434.8562606\R
 MSD=8.855e-02\Dipole=-0.6045497,-1.3079677,0.0000117\Quadrupole=-5.839
 5581,5.4902687,0.3492894,-1.8597202,0.0000096,-0.0000345\PG=C01 [X(C1B

 Normal termination of Gaussian 16 at Tue Apr  8 23:56:25 2025.
