 Gaussian 16, Revision C.01,

 ----------------------------------------------------------------------
 #t hf aug-cc-pvdz symm=none int=(grid=ultrafine) guess=(read,tcheck) s
 table=(opt,rrhf)
 ----------------------------------------------------------------------
 -----
 title
 -----
 Symbolic Z-matrix:
 Charge =  0 Multiplicity = 1

 SCF Done:  E(RHF) =  -609.376882617     A.U. after   16 cycles
 Normal termination of Gaussian 16 at Wed Apr  9 00:31:43 2025.
 Gaussian 16:  ES64L-G16RevC.01  3-Jul-2019

 ----------------------------------------------------------------------
 #t hf aug-cc-pvdz iop(5/13=1,5/36=2,99/5=2) pseudo=read geom=check gue
 ss=(read,tcheck) scf=(maxcycle=1)
 ----------------------------------------------------------------------
 -----
 title
 -----
 Structure from the checkpoint file:  "BDE49_nonexpt_319_mol1.chk"
 Charge =  0 Multiplicity = 1

                         Standard orientation:
 ---------------------------------------------------------------------
 Center     Atomic      Atomic             Coordinates (Angstroms)
 Number     Number       Type             X           Y           Z
 ---------------------------------------------------------------------
      1          6           0        0.180635    2.257059   -0.199103
      2          6           0       -1.053863    1.612284   -0.151744
      3          6           0        1.356365    1.518874   -0.116167
      4          6           0        1.258434    0.137503    0.003949
      5          6           0        0.034717   -0.518537    0.038508
      6          6           0       -1.156178    0.215821   -0.035009
      7          1           0        0.033833   -1.596387    0.142155
      8          1           0        0.229610    3.334689   -0.300735
      9          1           0       -1.957324    2.209941   -0.227925
     10          5           0       -2.561063   -0.508790    0.010416
     11          8           0       -2.755900   -1.747786   -0.520865
     12          8           0       -3.654520    0.070511    0.583270
     13          1           0        2.331733    1.984042   -0.143155
     14          7           0        2.503840   -0.662074    0.093902
     15          8           0        2.390806   -1.876915    0.182048
     16          8           0        3.566419   -0.057468    0.072264
     17          1           0       -3.457276    0.888131    1.045588
     18          1           0       -1.997240   -2.086707   -1.001669
 ---------------------------------------------------------------------

 SCF Done:  E(RHF) =  -612.022232957     A.U. after    2 cycles

 The electronic state is 1-A.
 Alpha  occ. eigenvalues --  -21.10275 -21.10152 -21.07038 -21.06887 -16.00840
 Alpha  occ. eigenvalues --  -11.56036 -11.48851 -11.47740 -11.46385 -11.44792
 Alpha  occ. eigenvalues --  -11.40479  -7.68068  -2.00632  -1.83106  -1.69917
 Alpha  occ. eigenvalues --   -1.66899  -1.38723  -1.19129  -1.14235  -1.01036
 Alpha  occ. eigenvalues --   -0.92332  -0.85464  -0.77514  -0.76021  -0.70074
 Alpha  occ. eigenvalues --   -0.68432  -0.66564  -0.65101  -0.63530  -0.59084
 Alpha  occ. eigenvalues --   -0.58106  -0.54944  -0.51930  -0.50583  -0.49025
 Alpha  occ. eigenvalues --   -0.48031  -0.37838  -0.37301  -0.37217  -0.36843
 Alpha  occ. eigenvalues --   -0.34534  -0.32095  -0.31912
 Alpha virt. eigenvalues --    0.02163   0.04139   0.04798   0.05017   0.05297
 Alpha virt. eigenvalues --    0.06033   0.06313   0.07686   0.08338   0.08546
 Alpha virt. eigenvalues --    0.08971   0.09862   0.10384   0.11657   0.12487

 Mulliken charges:
               1
     1  C    0.267577
     2  C   -1.581462
     3  C   -3.164577
     4  C    3.999864
     5  C   -0.534447
     6  C   -1.499031
     7  H    2.000095
     8  H    1.533293
     9  H    1.795373
    10  B    5.224995
    11  O   -4.824355
    12  O   -4.929356
    13  H    1.835810
    14  N    3.343825
    15  O   -3.007849
    16  O   -3.053732
    17  H    1.287697
    18  H    1.306280
 Sum of Mulliken charges =  -0.00000

 Dipole moment (field-independent basis, Debye):
    X=             -1.0060    Y=              2.5800    Z=             -0.2491  Tot=              2.7804

 Test job not archived.
 1\1\GINC-SE049\SP\RHF\Aug-CC-pVDZ\C6H6B1N1O4\OHZDE\09-Apr-2025\0\\#t h
 f aug-cc-pvdz iop(5/13=1,5/36=2,99/5=2) pseudo=read geom=check guess=(
 read,tcheck) scf=(maxcycle=1)\\title\\0,1\C,0,0.180635,2.257059,-0.199
 103\C,0,-1.053863,1.612284,-0.151744\C,0,1.356365,1.518874,-0.116167\C
 ,0,1.258434,0.137503,0.003949\C,0,0.034717,-0.518537,0.038508\C,0,-1.1
 56178,0.215821,-0.035009\H,0,0.033833,-1.596387,0.142155\H,0,0.22961,3
 .334689,-0.300735\H,0,-1.957324,2.209941,-0.227925\B,0,-2.561063,-0.50
 879,0.010416\O,0,-2.7559,-1.747786,-0.520865\O,0,-3.65452,0.070511,0.5

 Normal termination of Gaussian 16 at Wed Apr  9 00:32:19 2025.
