 Gaussian 16, Revision C.01,

 ----------------------------------------------------------------------
 #t hf aug-cc-pvdz symm=none int=(grid=ultrafine) guess=(read,tcheck) s
 table=opt
 ----------------------------------------------------------------------
 -----
 title
 -----
 Symbolic Z-matrix:
 Charge =  0 Multiplicity = 2

 SCF Done:  E(UHF) =  -635.795877956     A.U. after   15 cycles

 1\1\GINC-SE455\Stability\UHF\Aug-CC-pVDZ\H6N1Si2\OHZDE\09-Apr-2025\0\\
 #t hf aug-cc-pvdz symm=none int=(grid=ultrafine) guess=(read,tcheck) s
 table=opt\\title\\0,2\Si,0,-0.621001,-0.588378,0.053133\Si,0,1.58249,0
 .218829,-0.10992\N,0,-1.705245,0.749398,-0.077588\H,0,-1.630505,1.5366
 66,0.550062\H,0,-2.665024,0.59522,-0.35178\H,0,-0.754702,-1.410524,1.2
 93167\H,0,-0.911646,-1.491946,-1.085397\H,0,2.619401,-0.775309,0.27720
 2\H,0,1.818341,1.473793,0.654885\\Version=ES64L-G16RevC.01\HF=-635.795
 878\S2=0.758297\S2-1=0.\S2A=0.750028\RMSD=4.371e-09\Dipole=-0.4912469,

 Normal termination of Gaussian 16 at Wed Apr  9 00:01:27 2025.
 Gaussian 16:  ES64L-G16RevC.01  3-Jul-2019

 ----------------------------------------------------------------------
 #t hf aug-cc-pvdz iop(5/13=1,5/36=2,99/5=2) pseudo=read geom=check gue
 ss=(read,tcheck) scf=(maxcycle=1)
 ----------------------------------------------------------------------
 -----
 title
 -----
 Structure from the checkpoint file:  "BDE49_nonexpt_2134_mol2.chk"
 Charge =  0 Multiplicity = 2

                         Standard orientation:
 ---------------------------------------------------------------------
 Center     Atomic      Atomic             Coordinates (Angstroms)
 Number     Number       Type             X           Y           Z
 ---------------------------------------------------------------------
      1         14           0       -0.621001   -0.588378    0.053133
      2         14           0        1.582490    0.218829   -0.109920
      3          7           0       -1.705245    0.749398   -0.077588
      4          1           0       -1.630505    1.536666    0.550062
      5          1           0       -2.665024    0.595220   -0.351780
      6          1           0       -0.754702   -1.410524    1.293167
      7          1           0       -0.911646   -1.491946   -1.085397
      8          1           0        2.619401   -0.775309    0.277202
      9          1           0        1.818341    1.473793    0.654885
 ---------------------------------------------------------------------

 SCF Done:  E(UHF) =  -636.361887642     A.U. after    2 cycles

 The electronic state is 2-A.
 Alpha  occ. eigenvalues --  -76.22622 -76.22016 -15.73386  -5.56275  -5.55397
 Alpha  occ. eigenvalues --   -2.21045  -2.17836  -2.17286  -2.17100  -2.16640
 Alpha  occ. eigenvalues --   -2.15711  -1.25464  -0.79760  -0.70588  -0.65068
 Alpha  occ. eigenvalues --   -0.52113  -0.47900  -0.46692  -0.39631  -0.35840
 Alpha  occ. eigenvalues --   -0.25933
 Alpha virt. eigenvalues --    0.03759   0.04598   0.05505   0.06475   0.07717
 Alpha virt. eigenvalues --    0.07942   0.08081   0.08759   0.09407   0.09648
 Alpha virt. eigenvalues --    0.09889   0.11008   0.13617   0.14792   0.15058

  Beta  occ. eigenvalues --  -76.22624 -76.21475 -15.73405  -5.56277  -5.54563
  Beta  occ. eigenvalues --   -2.21039  -2.17799  -2.17037  -2.16617  -2.15924
  Beta  occ. eigenvalues --   -2.12236  -1.25492  -0.77501  -0.67885  -0.64878
  Beta  occ. eigenvalues --   -0.51823  -0.47529  -0.46426  -0.39395  -0.34314
  Beta virt. eigenvalues --    0.03406   0.03851   0.04850   0.05603   0.06742
  Beta virt. eigenvalues --    0.07913   0.08149   0.08280   0.09456   0.09713
  Beta virt. eigenvalues --    0.09982   0.10315   0.11849   0.13969   0.15450

 Mulliken charges and spin densities:
               1          2
     1  Si   3.960042  -0.103551
     2  Si   2.838603   1.166320
     3  N   -2.164743  -0.015996
     4  H    0.691571  -0.002720
     5  H    0.665277   0.003515
     6  H   -1.616938   0.025992
     7  H   -1.623945   0.005559
     8  H   -1.390049  -0.032822
     9  H   -1.359818  -0.046297
 Sum of Mulliken charges =  -0.00000   1.00000

 Dipole moment (field-independent basis, Debye):
    X=             -1.3220    Y=              0.8147    Z=             -0.0203  Tot=              1.5530
                          Isotropic Fermi Contact Couplings
        Atom                 a.u.       MegaHertz       Gauss      10(-4) cm-1
     1  Si(29)             0.00954      -8.47415      -3.02379      -2.82667
     2  Si(29)             0.36987    -328.71199    -117.29261    -109.64652
     3  N(14)             -0.00330      -1.06668      -0.38062      -0.35581
     4  H(1)               0.00011       0.49297       0.17590       0.16444
     5  H(1)               0.00010       0.46344       0.16537       0.15459
     6  H(1)               0.00846      37.81754      13.49424      12.61457
     7  H(1)              -0.00066      -2.94719      -1.05163      -0.98308
     8  H(1)              -0.00210      -9.36557      -3.34187      -3.12402

 Normal termination of Gaussian 16 at Wed Apr  9 00:01:29 2025.
