 Gaussian 16, Revision C.01,

 ----------------------------------------------------------------------
 #t hf aug-cc-pvdz symm=none int=(grid=ultrafine) guess=(read,tcheck) s
 table=(opt,rrhf)
 ----------------------------------------------------------------------
 -----
 title
 -----
 Symbolic Z-matrix:
 Charge =  0 Multiplicity = 1

 SCF Done:  E(RHF) =  -607.841006465     A.U. after   18 cycles
 Normal termination of Gaussian 16 at Tue Apr  8 23:32:16 2025.
 Gaussian 16:  ES64L-G16RevC.01  3-Jul-2019

 ----------------------------------------------------------------------
 #t hf aug-cc-pvdz iop(5/13=1,5/36=2,99/5=2) pseudo=read geom=check gue
 ss=(read,tcheck) scf=(maxcycle=1)
 ----------------------------------------------------------------------
 -----
 title
 -----
 Structure from the checkpoint file:  "BDE49_nonexpt_1389_mol1.chk"
 Charge =  0 Multiplicity = 1

                         Standard orientation:
 ---------------------------------------------------------------------
 Center     Atomic      Atomic             Coordinates (Angstroms)
 Number     Number       Type             X           Y           Z
 ---------------------------------------------------------------------
      1          6           0        1.431141   -0.958431    0.149901
      2          6           0        1.907357    0.301827    0.083417
      3         15           0       -0.290049   -1.346997   -0.216931
      4          6           0       -1.136172    0.308006    0.023010
      5          6           0       -0.285177    1.497573   -0.091312
      6          6           0        1.069174    1.476984   -0.056874
      7          8           0       -2.341994    0.359434    0.171395
      8          1           0        2.114298   -1.791299    0.287627
      9          1           0        2.975677    0.473452    0.172829
     10          1           0       -0.820875    2.441818   -0.113150
     11          1           0        1.586998    2.431011   -0.094434
     12          1           0       -0.687339   -1.981249    0.981076
 ---------------------------------------------------------------------

 SCF Done:  E(RHF) =  -609.226382790     A.U. after    2 cycles

 The electronic state is 1-A.
 Alpha  occ. eigenvalues -- -105.19060 -21.05501 -11.49969 -11.47832 -11.44592
 Alpha  occ. eigenvalues --  -11.42790 -11.39967  -2.77597  -1.71088  -1.52616
 Alpha  occ. eigenvalues --   -1.49498  -1.45024  -1.26313  -1.09269  -0.95518
 Alpha  occ. eigenvalues --   -0.80316  -0.78864  -0.69357  -0.63402  -0.58227
 Alpha  occ. eigenvalues --   -0.54075  -0.51004  -0.50480  -0.44234  -0.39686
 Alpha  occ. eigenvalues --   -0.32214  -0.25649  -0.17165  -0.03819
 Alpha virt. eigenvalues --    0.02907   0.04904   0.04958   0.06181   0.06685
 Alpha virt. eigenvalues --    0.07447   0.08319   0.10300   0.11739   0.12210
 Alpha virt. eigenvalues --    0.12990   0.13229   0.13583   0.13929   0.14382

 Mulliken charges:
               1
     1  C   -2.751195
     2  C   -1.955744
     3  P    4.143176
     4  C   -0.083971
     5  C   -1.618283
     6  C   -0.025926
     7  O   -3.123953
     8  H    1.244522
     9  H    1.447152
    10  H    1.448255
    11  H    1.337602
    12  H   -0.061635
 Sum of Mulliken charges =   0.00000

 Dipole moment (field-independent basis, Debye):
    X=              0.2048    Y=             -4.4177    Z=             -3.0305  Tot=              5.3611

 Test job not archived.
 1\1\GINC-SE184\SP\RHF\Aug-CC-pVDZ\C5H5O1P1\OHZDE\08-Apr-2025\0\\#t hf
 aug-cc-pvdz iop(5/13=1,5/36=2,99/5=2) pseudo=read geom=check guess=(re
 ad,tcheck) scf=(maxcycle=1)\\title\\0,1\C,0,1.431141,-0.958431,0.14990
 1\C,0,1.907357,0.301827,0.083417\P,0,-0.290049,-1.346997,-0.216931\C,0
 ,-1.136172,0.308006,0.02301\C,0,-0.285177,1.497573,-0.091312\C,0,1.069
 174,1.476984,-0.056874\O,0,-2.341994,0.359434,0.171395\H,0,2.114298,-1
 .791299,0.287627\H,0,2.975677,0.473452,0.172829\H,0,-0.820875,2.441818
 ,-0.11315\H,0,1.586998,2.431011,-0.094434\H,0,-0.687339,-1.981249,0.98

 Normal termination of Gaussian 16 at Tue Apr  8 23:32:21 2025.
