 Gaussian 16, Revision C.01,

 ----------------------------------------------------------------------
 #t hf aug-cc-pvdz symm=none int=(grid=ultrafine) guess=(read,tcheck) s
 table=(opt,rrhf)
 ----------------------------------------------------------------------
 -----
 title
 -----
 Symbolic Z-matrix:
 Charge =  0 Multiplicity = 1

 SCF Done:  E(RHF) =  -860.506480468     A.U. after   13 cycles
 Normal termination of Gaussian 16 at Tue Apr  8 23:43:20 2025.
 Gaussian 16:  ES64L-G16RevC.01  3-Jul-2019

 ----------------------------------------------------------------------
 #t hf aug-cc-pvdz iop(5/13=1,5/36=2,99/5=2) pseudo=read geom=check gue
 ss=(read,tcheck) scf=(maxcycle=1)
 ----------------------------------------------------------------------
 -----
 title
 -----
 Structure from the checkpoint file:  "BDE49_nonexpt_1676_mol1.chk"
 Charge =  0 Multiplicity = 1

                         Standard orientation:
 ---------------------------------------------------------------------
 Center     Atomic      Atomic             Coordinates (Angstroms)
 Number     Number       Type             X           Y           Z
 ---------------------------------------------------------------------
      1         14           0       -1.026457   -0.365614   -0.284417
      2         15           0        1.073749    0.391578   -0.613415
      3          6           0        1.307219    1.329985    0.984522
      4          1           0        0.696089    2.234744    0.959056
      5          1           0        2.353582    1.634048    1.066919
      6          1           0        1.029948    0.741496    1.860904
      7          6           0        2.009950   -1.184091   -0.240733
      8          1           0        3.080841   -0.967301   -0.255384
      9          1           0        1.810470   -1.918871   -1.024155
     10          1           0        1.748190   -1.616662    0.727282
     11          8           0       -1.192781   -0.903357    1.262434
     12          1           0       -2.078691   -0.999023    1.622010
     13          8           0       -2.150593    0.835739   -0.469169
     14          1           0       -2.231737    1.259465   -1.327063
     15          1           0       -1.300558   -1.457399   -1.255366
 ---------------------------------------------------------------------

 SCF Done:  E(RHF) =  -861.900444342     A.U. after    2 cycles

 The electronic state is 1-A.
 Alpha  occ. eigenvalues -- -105.14628 -76.24669 -21.07699 -21.07502 -11.36977
 Alpha  occ. eigenvalues --  -11.36661  -5.58866  -2.73120  -2.26215  -2.23491
 Alpha  occ. eigenvalues --   -2.19827  -1.68380  -1.63703  -1.45784  -1.44520
 Alpha  occ. eigenvalues --   -1.41161  -1.02994  -0.96274  -0.73794  -0.62944
 Alpha  occ. eigenvalues --   -0.61020  -0.57215  -0.56569  -0.56010  -0.55081
 Alpha  occ. eigenvalues --   -0.54451  -0.43782  -0.41266  -0.39414  -0.38418
 Alpha  occ. eigenvalues --   -0.19925  -0.13215  -0.01112
 Alpha virt. eigenvalues --    0.04135   0.05042   0.05948   0.06341   0.06905
 Alpha virt. eigenvalues --    0.07110   0.07458   0.07688   0.07862   0.08996
 Alpha virt. eigenvalues --    0.09551   0.10200   0.11304   0.11895   0.12614

 Mulliken charges:
               1
     1  Si   5.813562
     2  P    4.761492
     3  C   -6.209597
     4  H    1.189094
     5  H    1.151030
     6  H    1.306329
     7  C   -6.045846
     8  H    1.119684
     9  H    1.182645
    10  H    1.308663
    11  O   -2.776927
    12  H    1.086726
    13  O   -2.784931
    14  H    0.983565
    15  H   -2.085489
 Sum of Mulliken charges =  -0.00000

 Dipole moment (field-independent basis, Debye):
    X=              1.4668    Y=              1.7162    Z=              0.5767  Tot=              2.3301

 Test job not archived.
 1\1\GINC-SE038\SP\RHF\Aug-CC-pVDZ\C2H9O2P1Si1\OHZDE\08-Apr-2025\0\\#t
 hf aug-cc-pvdz iop(5/13=1,5/36=2,99/5=2) pseudo=read geom=check guess=
 (read,tcheck) scf=(maxcycle=1)\\title\\0,1\Si,0,-1.026457,-0.365614,-0
 .284417\P,0,1.073749,0.391578,-0.613415\C,0,1.307219,1.329985,0.984522
 \H,0,0.696089,2.234744,0.959056\H,0,2.353582,1.634048,1.066919\H,0,1.0
 29948,0.741496,1.860904\C,0,2.00995,-1.184091,-0.240733\H,0,3.080841,-
 0.967301,-0.255384\H,0,1.81047,-1.918871,-1.024155\H,0,1.74819,-1.6166
 62,0.727282\O,0,-1.192781,-0.903357,1.262434\H,0,-2.078691,-0.999023,1

 Normal termination of Gaussian 16 at Tue Apr  8 23:43:25 2025.
