 Gaussian 16, Revision C.01,

 ----------------------------------------------------------------------
 #t hf aug-cc-pvdz symm=none int=(grid=ultrafine) guess=(read,tcheck) s
 table=(opt,rrhf)
 ----------------------------------------------------------------------
 -----
 title
 -----
 Symbolic Z-matrix:
 Charge =  0 Multiplicity = 1

 SCF Done:  E(RHF) =  -1292.60056110     A.U. after   14 cycles
 Normal termination of Gaussian 16 at Wed Apr  9 00:22:37 2025.
 Gaussian 16:  ES64L-G16RevC.01  3-Jul-2019

 ----------------------------------------------------------------------
 #t hf aug-cc-pvdz iop(5/13=1,5/36=2,99/5=2) pseudo=read geom=check gue
 ss=(read,tcheck) scf=(maxcycle=1)
 ----------------------------------------------------------------------
 -----
 title
 -----
 Structure from the checkpoint file:  "BDE49_nonexpt_2662_mol1.chk"
 Charge =  0 Multiplicity = 1

                         Standard orientation:
 ---------------------------------------------------------------------
 Center     Atomic      Atomic             Coordinates (Angstroms)
 Number     Number       Type             X           Y           Z
 ---------------------------------------------------------------------
      1          9           0       -1.991907    0.949894    0.449455
      2         16           0       -1.317426   -0.253926   -0.515740
      3         16           0        0.357992   -0.804428    0.426457
      4         16           0        1.966244    0.438699   -0.210674
      5          1           0        1.818219    1.365438    0.754225
 ---------------------------------------------------------------------

 SCF Done:  E(RHF) =  -1293.61175723     A.U. after    2 cycles

 The electronic state is 1-A.
 Alpha  occ. eigenvalues --  -75.79381 -75.76528 -75.73970 -29.27822 -13.21993
 Alpha  occ. eigenvalues --  -13.16433 -13.15397 -13.14721 -13.10744 -13.10350
 Alpha  occ. eigenvalues --  -13.08140 -13.08009 -13.05063  -8.13290  -8.10425
 Alpha  occ. eigenvalues --   -8.07648  -1.31315  -1.16001  -0.99217  -0.67294
 Alpha  occ. eigenvalues --   -0.54890  -0.47323  -0.46179  -0.39225  -0.36541
 Alpha  occ. eigenvalues --   -0.31203  -0.27731  -0.24316  -0.19650
 Alpha virt. eigenvalues --    0.02461   0.04481   0.06149   0.08904   0.11214
 Alpha virt. eigenvalues --    0.12400   0.13253   0.14163   0.14558   0.15477
 Alpha virt. eigenvalues --    0.15980   0.18240   0.20350   0.20757   0.22172

 Mulliken charges:
               1
     1  F   -0.095807
     2  S    0.388688
     3  S   -0.440233
     4  S   -1.089920
     5  H    1.237272
 Sum of Mulliken charges =  -0.00000

 Dipole moment (field-independent basis, Debye):
    X=             -1.5903    Y=              1.3076    Z=              0.4839  Tot=              2.1150

 Test job not archived.
 1\1\GINC-SE343\SP\RHF\Aug-CC-pVDZ\F1H1S3\OHZDE\09-Apr-2025\0\\#t hf au
 g-cc-pvdz iop(5/13=1,5/36=2,99/5=2) pseudo=read geom=check guess=(read
 ,tcheck) scf=(maxcycle=1)\\title\\0,1\F,0,-1.991907,0.949894,0.449455\
 S,0,-1.317426,-0.253926,-0.51574\S,0,0.357992,-0.804428,0.426457\S,0,1
 .966244,0.438699,-0.210674\H,0,1.818219,1.365438,0.754225\\Version=ES6
 4L-G16RevC.01\State=1-A\HF=-1293.6117572\RMSD=7.134e-02\Dipole=-0.6256
 884,0.5144305,0.1903897\Quadrupole=3.1003909,-1.2262261,-1.8741648,-1.
 6636198,-1.8465465,0.443772\PG=C01 [X(F1H1S3)]\\@

 Normal termination of Gaussian 16 at Wed Apr  9 00:22:39 2025.
