 Gaussian 16, Revision C.01,

 ----------------------------------------------------------------------
 #t hf aug-cc-pvdz symm=none int=(grid=ultrafine) guess=(read,tcheck) s
 table=(opt,rrhf)
 ----------------------------------------------------------------------
 -----
 title
 -----
 Symbolic Z-matrix:
 Charge =  0 Multiplicity = 1

 SCF Done:  E(RHF) =  -460.595117043     A.U. after   16 cycles
 Normal termination of Gaussian 16 at Tue Apr  8 23:05:41 2025.
 Gaussian 16:  ES64L-G16RevC.01  3-Jul-2019

 ----------------------------------------------------------------------
 #t hf aug-cc-pvdz iop(5/13=1,5/36=2,99/5=2) pseudo=read geom=check gue
 ss=(read,tcheck) scf=(maxcycle=1)
 ----------------------------------------------------------------------
 -----
 title
 -----
 Structure from the checkpoint file:  "BDE49_expt_236_mol1.chk"
 Charge =  0 Multiplicity = 1

                         Standard orientation:
 ---------------------------------------------------------------------
 Center     Atomic      Atomic             Coordinates (Angstroms)
 Number     Number       Type             X           Y           Z
 ---------------------------------------------------------------------
      1          6           0        2.826425    0.926722    0.193875
      2          6           0        1.467896    1.212645    0.194952
      3          6           0        3.266082   -0.373192   -0.060318
      4          6           0        2.339628   -1.381820   -0.312903
      5          6           0        0.976793   -1.094577   -0.312382
      6          6           0        0.524167    0.206646   -0.057778
      7          1           0        1.104203    2.214130    0.388161
      8          1           0        3.545316    1.714156    0.390260
      9          6           0       -2.007386   -0.479848   -0.223490
     10          6           0       -3.302914    0.127944   -0.769151
     11          1           0        4.326838   -0.598042   -0.062111
     12          6           0       -0.930219    0.595888   -0.045116
     13          1           0        0.273406   -1.892683   -0.513028
     14          1           0        2.677225   -2.392571   -0.511991
     15          8           0       -1.245648    1.756060    0.138367
     16          6           0       -2.242996   -1.181339    1.131998
     17          1           0       -1.643470   -1.226892   -0.935902
     18          1           0       -2.611342   -0.463613    1.870089
     19          1           0       -1.330459   -1.633493    1.527191
     20          1           0       -2.992443   -1.969577    1.022606
     21          1           0       -3.673672    0.906205   -0.100460
     22          1           0       -4.070193   -0.644293   -0.870337
     23          1           0       -3.145089    0.583770   -1.749541
 ---------------------------------------------------------------------

 SCF Done:  E(RHF) =  -462.789716708     A.U. after    2 cycles

 The electronic state is 1-A.
 Alpha  occ. eigenvalues --  -21.04279 -11.53315 -11.50406 -11.44580 -11.43891
 Alpha  occ. eigenvalues --  -11.42764 -11.42102 -11.41664 -11.39278 -11.37960
 Alpha  occ. eigenvalues --  -11.36724  -1.70679  -1.35103  -1.23064  -1.11462
 Alpha  occ. eigenvalues --   -1.10045  -1.00575  -0.93881  -0.87770  -0.85838
 Alpha  occ. eigenvalues --   -0.75823  -0.71766  -0.66662  -0.63141  -0.60923
 Alpha  occ. eigenvalues --   -0.58980  -0.58130  -0.56944  -0.54154  -0.53672
 Alpha  occ. eigenvalues --   -0.52090  -0.47906  -0.47611  -0.47038  -0.44774
 Alpha  occ. eigenvalues --   -0.43511  -0.42033  -0.33853  -0.32178  -0.27743
 Alpha virt. eigenvalues --    0.03239   0.04597   0.04875   0.05517   0.05663
 Alpha virt. eigenvalues --    0.05964   0.06392   0.06862   0.07207   0.07655
 Alpha virt. eigenvalues --    0.08051   0.08939   0.09705   0.10174   0.11341

 Mulliken charges:
               1
     1  C   -1.561968
     2  C   -4.116470
     3  C   -3.352307
     4  C   -2.864318
     5  C    1.472995
     6  C    3.808849
     7  H    1.773823
     8  H    1.466748
     9  C   -3.358282
    10  C   -4.362011
    11  H    1.546267
    12  C    4.735785
    13  H    2.120476
    14  H    1.483752
    15  O   -4.263245
    16  C   -4.147116
    17  H    1.825017
    18  H    1.308567
    19  H    1.450294
    20  H    1.309294
    21  H    1.446216
    22  H    1.085441
    23  H    1.192192
 Sum of Mulliken charges =   0.00000

 Dipole moment (field-independent basis, Debye):
    X=              0.7739    Y=             -1.1530    Z=             -0.0914  Tot=              1.3917

 Test job not archived.
 1\1\GINC-SE250\SP\RHF\Aug-CC-pVDZ\C10H12O1\OHZDE\08-Apr-2025\0\\#t hf
 aug-cc-pvdz iop(5/13=1,5/36=2,99/5=2) pseudo=read geom=check guess=(re
 ad,tcheck) scf=(maxcycle=1)\\title\\0,1\C,0,2.826425,0.926722,0.193875
 \C,0,1.467896,1.212645,0.194952\C,0,3.266082,-0.373192,-0.060318\C,0,2
 .339628,-1.38182,-0.312903\C,0,0.976793,-1.094577,-0.312382\C,0,0.5241
 67,0.206646,-0.057778\H,0,1.104203,2.21413,0.388161\H,0,3.545316,1.714
 156,0.39026\C,0,-2.007386,-0.479848,-0.22349\C,0,-3.302914,0.127944,-0
 .769151\H,0,4.326838,-0.598042,-0.062111\C,0,-0.930219,0.595888,-0.045

 Normal termination of Gaussian 16 at Tue Apr  8 23:05:55 2025.
