 Gaussian 16, Revision C.01,

 ----------------------------------------------------------------------
 #t hf aug-cc-pvdz symm=none int=(grid=ultrafine) guess=(read,tcheck) s
 table=(opt,rrhf)
 ----------------------------------------------------------------------
 -----
 title
 -----
 Symbolic Z-matrix:
 Charge =  0 Multiplicity = 1

 SCF Done:  E(RHF) =  -158.330127667     A.U. after   13 cycles
 Normal termination of Gaussian 16 at Wed Apr  9 00:36:20 2025.
 Gaussian 16:  ES64L-G16RevC.01  3-Jul-2019

 ----------------------------------------------------------------------
 #t hf aug-cc-pvdz iop(5/13=1,5/36=2,99/5=2) pseudo=read geom=check gue
 ss=(read,tcheck) scf=(maxcycle=1)
 ----------------------------------------------------------------------
 -----
 title
 -----
 Structure from the checkpoint file:  "BDE49_nonexpt_507_mol1.chk"
 Charge =  0 Multiplicity = 1

                         Standard orientation:
 ---------------------------------------------------------------------
 Center     Atomic      Atomic             Coordinates (Angstroms)
 Number     Number       Type             X           Y           Z
 ---------------------------------------------------------------------
      1          1           0       -2.261439   -1.292854    0.000118
      2          1           0       -2.963340    0.651085    0.000140
      3          5           0       -2.055730   -0.122546   -0.000099
      4          6           0       -0.586044    0.389603   -0.000022
      5          7           0        0.376659   -0.458387   -0.000009
      6          1           0       -0.356040    1.469880    0.000013
      7          6           0        1.736372    0.040581    0.000043
      8          1           0        2.254672   -0.362805    0.876029
      9          1           0        1.811487    1.137804    0.000065
     10          1           0        2.254730   -0.362773   -0.875925
 ---------------------------------------------------------------------

 SCF Done:  E(RHF) =  -159.090374625     A.U. after    2 cycles

 The electronic state is 1-A.
 Alpha  occ. eigenvalues --  -15.75480 -11.38845 -11.37601  -7.61511  -1.38617
 Alpha  occ. eigenvalues --   -1.05011  -0.88906  -0.75475  -0.61635  -0.59354
 Alpha  occ. eigenvalues --   -0.59246  -0.46829  -0.45736  -0.40707  -0.36700
 Alpha virt. eigenvalues --    0.03443   0.03676   0.03978   0.04943   0.06823
 Alpha virt. eigenvalues --    0.06952   0.07301   0.08660   0.10497   0.10882
 Alpha virt. eigenvalues --    0.12390   0.13456   0.13820   0.15708   0.15882

 Mulliken charges:
               1
     1  H   -3.046910
     2  H   -3.275468
     3  B    7.456822
     4  C   -0.945721
     5  N   -2.706784
     6  H    1.661666
     7  C   -3.095065
     8  H    1.344347
     9  H    1.262778
    10  H    1.344335
 Sum of Mulliken charges =  -0.00000

 Dipole moment (field-independent basis, Debye):
    X=              1.1579    Y=              1.0566    Z=             -0.0004  Tot=              1.5675

 Test job not archived.
 1\1\GINC-SE041\SP\RHF\Aug-CC-pVDZ\C2H6B1N1\OHZDE\09-Apr-2025\0\\#t hf
 aug-cc-pvdz iop(5/13=1,5/36=2,99/5=2) pseudo=read geom=check guess=(re
 ad,tcheck) scf=(maxcycle=1)\\title\\0,1\H,0,-2.261439,-1.292854,0.0001
 18\H,0,-2.96334,0.651085,0.00014\B,0,-2.05573,-0.122546,-0.000099\C,0,
 -0.586044,0.389603,-0.000022\N,0,0.376659,-0.458387,-0.000009\H,0,-0.3
 5604,1.46988,0.000013\C,0,1.736372,0.040581,0.000043\H,0,2.254672,-0.3
 62805,0.876029\H,0,1.811487,1.137804,0.000065\H,0,2.25473,-0.362773,-0
 .875925\\Version=ES64L-G16RevC.01\State=1-A\HF=-159.0903746\RMSD=1.444

 Normal termination of Gaussian 16 at Wed Apr  9 00:36:23 2025.
