 Gaussian 16, Revision C.01,

 ----------------------------------------------------------------------
 #t hf aug-cc-pvdz symm=none int=(grid=ultrafine) guess=(read,tcheck) s
 table=(opt,rrhf)
 ----------------------------------------------------------------------
 -----
 title
 -----
 Symbolic Z-matrix:
 Charge =  0 Multiplicity = 1

 SCF Done:  E(RHF) =  -824.825950014     A.U. after   11 cycles
 Normal termination of Gaussian 16 at Tue Apr  8 23:56:23 2025.
 Gaussian 16:  ES64L-G16RevC.01  3-Jul-2019

 ----------------------------------------------------------------------
 #t hf aug-cc-pvdz iop(5/13=1,5/36=2,99/5=2) pseudo=read geom=check gue
 ss=(read,tcheck) scf=(maxcycle=1)
 ----------------------------------------------------------------------
 -----
 title
 -----
 Structure from the checkpoint file:  "BDE49_nonexpt_1999_mol1.chk"
 Charge =  0 Multiplicity = 1

                         Standard orientation:
 ---------------------------------------------------------------------
 Center     Atomic      Atomic             Coordinates (Angstroms)
 Number     Number       Type             X           Y           Z
 ---------------------------------------------------------------------
      1          6           0        1.190798   -0.000000   -0.467600
      2         14           0       -0.643521    0.000000   -0.005323
      3          9           0        1.784873    1.113105    0.074982
      4          1           0        1.397167   -0.000000   -1.542028
      5          9           0        1.784873   -1.113105    0.074982
      6          9           0       -0.832273   -0.000001    1.559265
      7          9           0       -1.342774   -1.281295   -0.608941
      8          9           0       -1.342773    1.281297   -0.608939
 ---------------------------------------------------------------------

 SCF Done:  E(RHF) =  -826.841496772     A.U. after    2 cycles

 The electronic state is 1-A.
 Alpha  occ. eigenvalues --  -76.34029 -29.32151 -29.32148 -29.32002 -29.31006
 Alpha  occ. eigenvalues --  -29.30971 -11.51881  -5.71262  -2.35640  -2.35497
 Alpha  occ. eigenvalues --   -2.33070  -1.29831  -1.02498  -0.82648  -0.77674
 Alpha  occ. eigenvalues --   -0.74125  -0.73158  -0.68695  -0.47523  -0.45379
 Alpha  occ. eigenvalues --   -0.45243  -0.44267  -0.42208  -0.41127  -0.38556
 Alpha  occ. eigenvalues --   -0.38299  -0.33463  -0.32942  -0.32283  -0.31889
 Alpha  occ. eigenvalues --   -0.31152  -0.24626  -0.23810
 Alpha virt. eigenvalues --    0.04282   0.06782   0.07827   0.07905   0.11719
 Alpha virt. eigenvalues --    0.12496   0.13935   0.16605   0.20794   0.21092
 Alpha virt. eigenvalues --    0.22506   0.23349   0.23829   0.24375   0.24815

 Mulliken charges:
               1
     1  C   -2.763306
     2  Si   3.870764
     3  F    0.218689
     4  H    1.293068
     5  F    0.218689
     6  F   -1.013256
     7  F   -0.912324
     8  F   -0.912324
 Sum of Mulliken charges =  -0.00000

 Dipole moment (field-independent basis, Debye):
    X=             -0.7806    Y=              0.0000    Z=              1.4619  Tot=              1.6573

 Test job not archived.
 1\1\GINC-SE340\SP\RHF\Aug-CC-pVDZ\C1H1F5Si1\OHZDE\08-Apr-2025\0\\#t hf
  aug-cc-pvdz iop(5/13=1,5/36=2,99/5=2) pseudo=read geom=check guess=(r
 ead,tcheck) scf=(maxcycle=1)\\title\\0,1\C,0,1.190798,0.,-0.4676\Si,0,
 -0.643521,0.,-0.005323\F,0,1.784873,1.113105,0.074982\H,0,1.397167,0.,
 -1.542028\F,0,1.784873,-1.113105,0.074982\F,0,-0.832273,-0.000001,1.55
 9265\F,0,-1.342774,-1.281296,-0.608941\F,0,-1.342773,1.281296,-0.60893
 9\\Version=ES64L-G16RevC.01\State=1-A\HF=-826.8414968\RMSD=6.271e-02\D
 ipole=-0.3071284,0.0000011,0.5751645\Quadrupole=0.8687251,-0.0169575,-

 Normal termination of Gaussian 16 at Tue Apr  8 23:56:26 2025.
