 Gaussian 16, Revision C.01,

 ----------------------------------------------------------------------
 #t hf aug-cc-pvdz symm=none int=(grid=ultrafine) guess=(read,tcheck) s
 table=(opt,rrhf)
 ----------------------------------------------------------------------
 -----
 title
 -----
 Symbolic Z-matrix:
 Charge =  0 Multiplicity = 1

 SCF Done:  E(RHF) =  -635.200568814     A.U. after   16 cycles
 Normal termination of Gaussian 16 at Wed Apr  9 00:56:25 2025.
 Gaussian 16:  ES64L-G16RevC.01  3-Jul-2019

 ----------------------------------------------------------------------
 #t hf aug-cc-pvdz iop(5/13=1,5/36=2,99/5=2) pseudo=read geom=check gue
 ss=(read,tcheck) scf=(maxcycle=1)
 ----------------------------------------------------------------------
 -----
 title
 -----
 Structure from the checkpoint file:  "BDE49_nonexpt_977_mol1.chk"
 Charge =  0 Multiplicity = 1

                         Standard orientation:
 ---------------------------------------------------------------------
 Center     Atomic      Atomic             Coordinates (Angstroms)
 Number     Number       Type             X           Y           Z
 ---------------------------------------------------------------------
      1          6           0        0.857337    0.150538   -0.084577
      2          6           0        1.309683   -1.175444   -0.132125
      3          1           0        0.603293   -1.982945   -0.239162
      4          6           0        2.674591   -1.424111   -0.029342
      5          1           0        3.019642   -2.451116   -0.062712
      6          6           0        3.589323   -0.383523    0.110473
      7          1           0        4.649673   -0.592226    0.186877
      8          6           0        3.125459    0.928065    0.148155
      9          1           0        3.822773    1.751044    0.254417
     10          6           0        1.765783    1.205381    0.050699
     11          1           0        1.412999    2.225393    0.080067
     12          7           0       -0.526514    0.435386   -0.203435
     13          9           0       -0.816023    1.803698   -0.122502
     14          6           0       -1.650850   -0.356711   -0.024421
     15          8           0       -1.586337   -1.560933    0.022113
     16          6           0       -2.959663    0.431529    0.060613
     17          9           0       -4.001826   -0.458496    0.158174
     18          1           0       -3.089891    1.049065   -0.831631
     19          1           0       -2.951525    1.079402    0.941380
 ---------------------------------------------------------------------

 SCF Done:  E(RHF) =  -637.871128620     A.U. after    2 cycles

 The electronic state is 1-A.
 Alpha  occ. eigenvalues --  -29.32320 -29.27356 -21.06636 -15.85081 -11.55743
 Alpha  occ. eigenvalues --  -11.54620 -11.47620 -11.47498 -11.44568 -11.42314
 Alpha  occ. eigenvalues --  -11.42045 -11.37978  -1.75219  -1.51903  -1.33219
 Alpha  occ. eigenvalues --   -1.21404  -1.11006  -1.09924  -0.93283  -0.90171
 Alpha  occ. eigenvalues --   -0.84379  -0.77433  -0.72276  -0.71207  -0.70479
 Alpha  occ. eigenvalues --   -0.68176  -0.62462  -0.60935  -0.59710  -0.57945
 Alpha  occ. eigenvalues --   -0.53745  -0.51008  -0.49641  -0.46859  -0.43909
 Alpha  occ. eigenvalues --   -0.41918  -0.39660  -0.34757  -0.34284  -0.32415
 Alpha  occ. eigenvalues --   -0.29896  -0.26824  -0.26493  -0.23208
 Alpha virt. eigenvalues --    0.03466   0.04803   0.05167   0.05676   0.05802
 Alpha virt. eigenvalues --    0.06610   0.07342   0.09341   0.10549   0.11002
 Alpha virt. eigenvalues --    0.11015   0.12267   0.12578   0.12717   0.12986

 Mulliken charges:
               1
     1  C    3.208271
     2  C   -2.883604
     3  H    1.928163
     4  C   -0.493008
     5  H    1.498430
     6  C   -3.170963
     7  H    1.560902
     8  C   -0.236455
     9  H    1.495400
    10  C   -3.003572
    11  H    1.827907
    12  N   -2.491153
    13  F   -0.562760
    14  C    3.607213
    15  O   -3.181859
    16  C   -2.218492
    17  F    0.342733
    18  H    1.413165
    19  H    1.359680
 Sum of Mulliken charges =   0.00000

 Dipole moment (field-independent basis, Debye):
    X=             -0.4459    Y=              1.6349    Z=              0.1770  Tot=              1.7038

 Test job not archived.
 1\1\GINC-SE038\SP\RHF\Aug-CC-pVDZ\C8H7F2N1O1\OHZDE\09-Apr-2025\0\\#t h
 f aug-cc-pvdz iop(5/13=1,5/36=2,99/5=2) pseudo=read geom=check guess=(
 read,tcheck) scf=(maxcycle=1)\\title\\0,1\C,0,-0.857337,0.150538,0.084
 577\C,0,-1.309683,-1.175444,0.132125\H,0,-0.603293,-1.982945,0.239162\
 C,0,-2.674591,-1.424111,0.029342\H,0,-3.019642,-2.451116,0.062712\C,0,
 -3.589323,-0.383523,-0.110473\H,0,-4.649673,-0.592226,-0.186877\C,0,-3
 .125459,0.928065,-0.148155\H,0,-3.822773,1.751044,-0.254417\C,0,-1.765
 783,1.205381,-0.050699\H,0,-1.412999,2.225393,-0.080067\N,0,0.526514,0

 Normal termination of Gaussian 16 at Wed Apr  9 00:56:37 2025.
