 Gaussian 16, Revision C.01,

 ----------------------------------------------------------------------
 #t hf aug-cc-pvdz symm=none int=(grid=ultrafine) guess=(read,tcheck) s
 table=opt
 ----------------------------------------------------------------------
 -----
 title
 -----
 Symbolic Z-matrix:
 Charge =  0 Multiplicity = 2

 SCF Done:  E(UHF) =  -142.885205495     A.U. after   17 cycles
 Normal termination of Gaussian 16 at Wed Apr  9 00:35:55 2025.
 Gaussian 16:  ES64L-G16RevC.01  3-Jul-2019

 ----------------------------------------------------------------------
 #t hf aug-cc-pvdz iop(5/13=1,5/36=2,99/5=2) pseudo=read geom=check gue
 ss=(read,tcheck) scf=(maxcycle=1)
 ----------------------------------------------------------------------
 -----
 title
 -----
 Structure from the checkpoint file:  "BDE49_nonexpt_472_mol2.chk"
 Charge =  0 Multiplicity = 2

                         Standard orientation:
 ---------------------------------------------------------------------
 Center     Atomic      Atomic             Coordinates (Angstroms)
 Number     Number       Type             X           Y           Z
 ---------------------------------------------------------------------
      1          1           0        1.752422    1.486338   -0.942453
      2          5           0        1.773443    0.748192   -0.004354
      3          6           0        0.893777   -0.483310    0.290025
      4          6           0       -0.496444   -0.565742   -0.382199
      5          1           0        1.539702   -1.299372   -0.092623
      6          6           0       -1.478303    0.471964    0.168460
      7          1           0       -0.911841   -1.569927   -0.238834
      8          1           0       -0.383868   -0.426693   -1.462451
      9          1           0       -1.621660    0.346673    1.246385
     10          1           0       -2.458106    0.387129   -0.309145
     11          1           0        0.816304   -0.693264    1.364530
     12          1           0       -1.114345    1.490678   -0.001358
 ---------------------------------------------------------------------

 SCF Done:  E(UHF) =  -143.599727625     A.U. after    2 cycles

 The electronic state is 2-A.
 Alpha  occ. eigenvalues --  -11.40887 -11.36888 -11.33766  -7.62467  -1.21958
 Alpha  occ. eigenvalues --   -1.02584  -0.86207  -0.73177  -0.61182  -0.60761
 Alpha  occ. eigenvalues --   -0.55293  -0.50062  -0.47286  -0.46110  -0.42731
 Alpha  occ. eigenvalues --   -0.28075
 Alpha virt. eigenvalues --    0.03659   0.03801   0.04166   0.04725   0.06188
 Alpha virt. eigenvalues --    0.06543   0.07117   0.07352   0.08460   0.09602
 Alpha virt. eigenvalues --    0.11501   0.11948   0.13397   0.13714   0.15077

  Beta  occ. eigenvalues --  -11.40793 -11.36895 -11.33745  -7.60749  -1.21457
  Beta  occ. eigenvalues --   -1.01867  -0.85296  -0.69986  -0.60710  -0.60179
  Beta  occ. eigenvalues --   -0.54788  -0.49696  -0.46322  -0.45658  -0.41922
  Beta virt. eigenvalues --    0.03667   0.03802   0.04045   0.04307   0.06218
  Beta virt. eigenvalues --    0.06499   0.07179   0.07465   0.08318   0.09741
  Beta virt. eigenvalues --    0.10318   0.11994   0.12761   0.13782   0.14648

 Mulliken charges and spin densities:
               1          2
     1  H   -1.607549   0.017045
     2  B    1.949497   0.991576
     3  C   -3.389104  -0.081129
     4  C   -3.127727   0.095451
     5  H    1.643343  -0.016861
     6  C   -3.619949  -0.015132
     7  H    1.342434  -0.000033
     8  H    1.329390  -0.005895
     9  H    1.337288  -0.000282
    10  H    1.143651  -0.000634
    11  H    1.734844   0.011607
    12  H    1.263883   0.004288
 Sum of Mulliken charges =  -0.00000   1.00000

 Dipole moment (field-independent basis, Debye):
    X=             -0.9506    Y=             -0.8607    Z=             -0.3112  Tot=              1.3196
                          Isotropic Fermi Contact Couplings
        Atom                 a.u.       MegaHertz       Gauss      10(-4) cm-1
     1  H(1)               0.00722      32.29414      11.52335      10.77217
     2  B(11)              0.16642     238.70300      85.17517      79.62275
     3  C(13)              0.00870       9.77825       3.48912       3.26167
     4  C(13)              0.02841      31.93688      11.39587      10.65300
     5  H(1)              -0.00093      -4.17434      -1.48951      -1.39241
     6  C(13)             -0.00111      -1.25284      -0.44705      -0.41790
     7  H(1)               0.00128       5.71214       2.03823       1.90536
     8  H(1)              -0.00044      -1.97147      -0.70347      -0.65761

 Normal termination of Gaussian 16 at Wed Apr  9 00:35:58 2025.
