 Gaussian 16, Revision C.01,

 ----------------------------------------------------------------------
 #t hf aug-cc-pvdz symm=none int=(grid=ultrafine) guess=(read,tcheck) s
 table=(opt,rrhf)
 ----------------------------------------------------------------------
 -----
 title
 -----
 Symbolic Z-matrix:
 Charge =  0 Multiplicity = 1

 SCF Done:  E(RHF) =  -434.231130919     A.U. after   18 cycles
 Normal termination of Gaussian 16 at Tue Apr  8 22:54:20 2025.
 Gaussian 16:  ES64L-G16RevC.01  3-Jul-2019

 ----------------------------------------------------------------------
 #t hf aug-cc-pvdz iop(5/13=1,5/36=2,99/5=2) pseudo=read geom=check gue
 ss=(read,tcheck) scf=(maxcycle=1)
 ----------------------------------------------------------------------
 -----
 title
 -----
 Structure from the checkpoint file:  "BDE49_expt_1786_mol1.chk"
 Charge =  0 Multiplicity = 1

                         Standard orientation:
 ---------------------------------------------------------------------
 Center     Atomic      Atomic             Coordinates (Angstroms)
 Number     Number       Type             X           Y           Z
 ---------------------------------------------------------------------
      1          6           0        2.636516    0.271979   -0.168839
      2          6           0        1.750961    1.332223    0.012392
      3          6           0        0.394145    1.091600    0.214821
      4          6           0        2.159869   -1.038730   -0.154694
      5          6           0        0.803780   -1.291048    0.026214
      6          6           0       -0.072454   -0.222442    0.211337
      7          1           0        3.692848    0.464921   -0.314516
      8          1           0        2.116796    2.352619    0.009778
      9          1           0       -0.297990    1.907510    0.380486
     10          1           0        2.844296   -1.867975   -0.292403
     11          1           0        0.409288   -2.299661    0.030589
     12          8           0       -1.402422   -0.517926    0.436191
     13          7           0       -2.317951    0.303768   -0.418127
     14          8           0       -3.419639    0.074766   -0.152996
 ---------------------------------------------------------------------

 SCF Done:  E(RHF) =  -436.163109072     A.U. after    2 cycles

 The electronic state is 1-A.
 Alpha  occ. eigenvalues --  -21.18763 -21.10417 -15.96246 -11.53422 -11.46110
 Alpha  occ. eigenvalues --  -11.43565 -11.41700 -11.41047 -11.37394  -1.98172
 Alpha  occ. eigenvalues --   -1.74891  -1.32778  -1.10544  -1.08858  -0.97876
 Alpha  occ. eigenvalues --   -0.88116  -0.84363  -0.72772  -0.68678  -0.64142
 Alpha  occ. eigenvalues --   -0.62777  -0.62527  -0.59252  -0.57491  -0.52930
 Alpha  occ. eigenvalues --   -0.51293  -0.46800  -0.43587  -0.39741  -0.34166
 Alpha  occ. eigenvalues --   -0.31762  -0.28533
 Alpha virt. eigenvalues --    0.03484   0.05063   0.05193   0.06476   0.06623
 Alpha virt. eigenvalues --    0.09901   0.10644   0.10744   0.11765   0.12625
 Alpha virt. eigenvalues --    0.12879   0.13398   0.13492   0.13937   0.14589

 Mulliken charges:
               1
     1  C   -2.285093
     2  C    0.177490
     3  C   -3.499617
     4  C    0.039474
     5  C   -3.866500
     6  C    4.974700
     7  H    1.520075
     8  H    1.485726
     9  H    1.728378
    10  H    1.482485
    11  H    1.699974
    12  O   -3.805503
    13  N    2.366317
    14  O   -2.017906
 Sum of Mulliken charges =  -0.00000

 Dipole moment (field-independent basis, Debye):
    X=              0.6578    Y=             -0.1633    Z=              0.2335  Tot=              0.7168

 Test job not archived.
 1\1\GINC-SE424\SP\RHF\Aug-CC-pVDZ\C6H5N1O2\OHZDE\08-Apr-2025\0\\#t hf
 aug-cc-pvdz iop(5/13=1,5/36=2,99/5=2) pseudo=read geom=check guess=(re
 ad,tcheck) scf=(maxcycle=1)\\title\\0,1\C,0,2.636516,0.271979,-0.16883
 9\C,0,1.750961,1.332223,0.012392\C,0,0.394145,1.0916,0.214821\C,0,2.15
 9869,-1.03873,-0.154694\C,0,0.80378,-1.291048,0.026214\C,0,-0.072454,-
 0.222442,0.211337\H,0,3.692848,0.464921,-0.314516\H,0,2.116796,2.35261
 9,0.009778\H,0,-0.29799,1.90751,0.380486\H,0,2.844296,-1.867975,-0.292
 403\H,0,0.409288,-2.299661,0.030589\O,0,-1.402422,-0.517926,0.436191\N

 Normal termination of Gaussian 16 at Tue Apr  8 22:54:25 2025.
