 Gaussian 16, Revision C.01,

 ----------------------------------------------------------------------
 #t hf aug-cc-pvdz symm=none int=(grid=ultrafine) guess=(read,tcheck) s
 table=(opt,rrhf)
 ----------------------------------------------------------------------
 -----
 title
 -----
 Symbolic Z-matrix:
 Charge =  0 Multiplicity = 1

 SCF Done:  E(RHF) =  -905.232910119     A.U. after   12 cycles
 Normal termination of Gaussian 16 at Tue Apr  8 23:48:43 2025.
 Gaussian 16:  ES64L-G16RevC.01  3-Jul-2019

 ----------------------------------------------------------------------
 #t hf aug-cc-pvdz iop(5/13=1,5/36=2,99/5=2) pseudo=read geom=check gue
 ss=(read,tcheck) scf=(maxcycle=1)
 ----------------------------------------------------------------------
 -----
 title
 -----
 Structure from the checkpoint file:  "BDE49_nonexpt_1806_mol1.chk"
 Charge =  0 Multiplicity = 1

                         Standard orientation:
 ---------------------------------------------------------------------
 Center     Atomic      Atomic             Coordinates (Angstroms)
 Number     Number       Type             X           Y           Z
 ---------------------------------------------------------------------
      1         14           0       -0.415650   -0.086231    0.668689
      2          6           0        0.717175    1.385406    0.346087
      3          6           0        0.743907   -1.409902   -0.012612
      4          6           0        1.792933    0.803317   -0.605952
      5          1           0        1.174378    1.689571    1.295347
      6          1           0        0.211837    2.261311   -0.064197
      7          6           0        2.087525   -0.653265   -0.187551
      8          1           0        2.704959    1.407207   -0.603867
      9          1           0        1.410779    0.811356   -1.633128
     10          1           0        0.366697   -1.752668   -0.981327
     11          1           0        0.836594   -2.290865    0.626282
     12          1           0        2.736400   -1.150641   -0.914154
     13          1           0        2.630093   -0.647190    0.765221
     14         17           0       -2.204295    0.022657   -0.421695
     15          1           0       -0.828853   -0.259367    2.077166
 ---------------------------------------------------------------------

 SCF Done:  E(RHF) =  -906.446612841     A.U. after    2 cycles

 The electronic state is 1-A.
 Alpha  occ. eigenvalues --  -99.87184 -76.23809 -11.42575 -11.40414 -11.35948
 Alpha  occ. eigenvalues --  -11.34714 -10.44550  -9.64495  -9.63918  -9.63864
 Alpha  occ. eigenvalues --   -5.57686  -2.21709  -2.20722  -2.19828  -1.28343
 Alpha  occ. eigenvalues --   -1.25107  -1.05739  -0.94426  -0.81865  -0.72697
 Alpha  occ. eigenvalues --   -0.64626  -0.64139  -0.59431  -0.55827  -0.52557
 Alpha  occ. eigenvalues --   -0.51875  -0.50301  -0.47904  -0.46064  -0.44983
 Alpha  occ. eigenvalues --   -0.41554  -0.37187
 Alpha virt. eigenvalues --    0.03521   0.05528   0.05535   0.05622   0.05826
 Alpha virt. eigenvalues --    0.06074   0.06272   0.06335   0.06847   0.08565
 Alpha virt. eigenvalues --    0.09729   0.10908   0.12243   0.12965   0.13667

 Mulliken charges:
               1
     1  Si   4.772612
     2  C   -3.612136
     3  C   -3.500199
     4  C   -2.333931
     5  H    1.403759
     6  H    1.218374
     7  C   -2.873796
     8  H    1.280798
     9  H    1.369407
    10  H    1.336168
    11  H    1.301823
    12  H    1.287900
    13  H    1.340705
    14  Cl  -0.898539
    15  H   -2.092943
 Sum of Mulliken charges =   0.00000

 Dipole moment (field-independent basis, Debye):
    X=              2.4852    Y=             -0.0123    Z=              0.3494  Tot=              2.5097

 Test job not archived.
 1\1\GINC-SE080\SP\RHF\Aug-CC-pVDZ\C4H9Cl1Si1\OHZDE\08-Apr-2025\0\\#t h
 f aug-cc-pvdz iop(5/13=1,5/36=2,99/5=2) pseudo=read geom=check guess=(
 read,tcheck) scf=(maxcycle=1)\\title\\0,1\Si,0,-0.41565,-0.086231,0.66
 8689\C,0,0.717175,1.385406,0.346087\C,0,0.743907,-1.409902,-0.012612\C
 ,0,1.792933,0.803317,-0.605952\H,0,1.174378,1.689571,1.295347\H,0,0.21
 1837,2.261311,-0.064197\C,0,2.087525,-0.653265,-0.187551\H,0,2.704959,
 1.407207,-0.603867\H,0,1.410779,0.811356,-1.633128\H,0,0.366697,-1.752
 668,-0.981327\H,0,0.836594,-2.290865,0.626282\H,0,2.7364,-1.150641,-0.

 Normal termination of Gaussian 16 at Tue Apr  8 23:48:48 2025.
