 Gaussian 16, Revision C.01,

 ----------------------------------------------------------------------
 #t hf aug-cc-pvdz symm=none int=(grid=ultrafine) guess=(read,tcheck) s
 table=opt
 ----------------------------------------------------------------------
 -----
 title
 -----
 Symbolic Z-matrix:
 Charge =  0 Multiplicity = 2

 SCF Done:  E(UHF) =  -661.635244226     A.U. after   17 cycles
 Normal termination of Gaussian 16 at Tue Apr  8 23:53:24 2025.
 Gaussian 16:  ES64L-G16RevC.01  3-Jul-2019

 ----------------------------------------------------------------------
 #t hf aug-cc-pvdz iop(5/13=1,5/36=2,99/5=2) pseudo=read geom=check gue
 ss=(read,tcheck) scf=(maxcycle=1)
 ----------------------------------------------------------------------
 -----
 title
 -----
 Structure from the checkpoint file:  "BDE49_nonexpt_1933_mol3.chk"
 Charge =  0 Multiplicity = 2

                         Standard orientation:
 ---------------------------------------------------------------------
 Center     Atomic      Atomic             Coordinates (Angstroms)
 Number     Number       Type             X           Y           Z
 ---------------------------------------------------------------------
      1          6           0        1.551284    0.403503   -0.380862
      2         16           0       -0.028620   -0.132165    0.076630
      3          8           0       -0.403220   -1.247347   -0.752365
      4          8           0       -0.104540   -0.180336    1.507713
      5          8           0       -0.944543    1.139428   -0.359312
      6          1           0       -1.321643    0.945269   -1.230024
      7          1           0        2.213549   -0.327442   -0.821663
      8          1           0        1.876737    1.381845   -0.057506
 ---------------------------------------------------------------------

 SCF Done:  E(UHF) =  -663.000513261     A.U. after    2 cycles

 The electronic state is 2-A.
 Alpha  occ. eigenvalues --  -75.93414 -21.14192 -21.07227 -21.06851 -13.56614
 Alpha  occ. eigenvalues --  -13.46492 -13.38377 -11.45629  -8.28666  -1.91454
 Alpha  occ. eigenvalues --   -1.73130  -1.67756  -1.16319  -0.91053  -0.70545
 Alpha  occ. eigenvalues --   -0.66120  -0.63087  -0.59591  -0.50799  -0.44517
 Alpha  occ. eigenvalues --   -0.43257  -0.41994  -0.39094  -0.38172  -0.36510
 Alpha virt. eigenvalues --    0.02432   0.04509   0.04973   0.09717   0.11626
 Alpha virt. eigenvalues --    0.12115   0.12315   0.13475   0.13674   0.17327
 Alpha virt. eigenvalues --    0.17854   0.19292   0.19879   0.20807   0.22024

  Beta  occ. eigenvalues --  -75.93497 -21.14118 -21.07195 -21.06614 -13.56693
  Beta  occ. eigenvalues --  -13.46635 -13.38628 -11.43317  -8.28775  -1.91322
  Beta  occ. eigenvalues --   -1.72935  -1.67429  -1.09707  -0.88550  -0.69720
  Beta  occ. eigenvalues --   -0.64975  -0.62616  -0.57707  -0.47226  -0.43872
  Beta  occ. eigenvalues --   -0.40978  -0.40081  -0.38976  -0.37229
  Beta virt. eigenvalues --    0.02427   0.03332   0.04712   0.05024   0.10029
  Beta virt. eigenvalues --    0.11970   0.12183   0.13376   0.13951   0.14269
  Beta virt. eigenvalues --    0.17685   0.18037   0.19336   0.20105   0.21661

 Mulliken charges and spin densities:
               1          2
     1  C   -3.688321   1.269457
     2  S    7.481025  -0.139010
     3  O   -2.600898   0.010178
     4  O   -2.464988   0.022756
     5  O   -2.394804   0.005163
     6  H    0.766859  -0.003969
     7  H    1.445323  -0.093466
     8  H    1.455805  -0.071109
 Sum of Mulliken charges =  -0.00000   1.00000

 Dipole moment (field-independent basis, Debye):
    X=              0.8150    Y=              1.5426    Z=             -1.3675  Tot=              2.2167
                          Isotropic Fermi Contact Couplings
        Atom                 a.u.       MegaHertz       Gauss      10(-4) cm-1
     1  C(13)              0.12241     137.61775      49.10544      45.90434
     2  S(33)             -0.14383     -49.40320     -17.62829     -16.47913
     3  O(17)              0.00131      -0.79412      -0.28336      -0.26489
     4  O(17)              0.01550      -9.39534      -3.35249      -3.13395
     5  O(17)              0.00232      -1.40355      -0.50082      -0.46817
     6  H(1)              -0.00036      -1.59639      -0.56963      -0.53250
     7  H(1)              -0.01873     -83.72800     -29.87623     -27.92865
     8  H(1)              -0.01748     -78.12362     -27.87645     -26.05923

 Normal termination of Gaussian 16 at Tue Apr  8 23:53:26 2025.
