 Gaussian 16, Revision C.01,

 ----------------------------------------------------------------------
 #t hf aug-cc-pvdz symm=none int=(grid=ultrafine) guess=(read,tcheck) s
 table=(opt,rrhf)
 ----------------------------------------------------------------------
 -----
 title
 -----
 Symbolic Z-matrix:
 Charge =  0 Multiplicity = 1

 SCF Done:  E(RHF) =  -170.982598831     A.U. after   13 cycles
 Normal termination of Gaussian 16 at Tue Apr  8 23:03:41 2025.
 Gaussian 16:  ES64L-G16RevC.01  3-Jul-2019

 ----------------------------------------------------------------------
 #t hf aug-cc-pvdz iop(5/13=1,5/36=2,99/5=2) pseudo=read geom=check gue
 ss=(read,tcheck) scf=(maxcycle=1)
 ----------------------------------------------------------------------
 -----
 title
 -----
 Structure from the checkpoint file:  "BDE49_expt_299_mol1.chk"
 Charge =  0 Multiplicity = 1

                         Standard orientation:
 ---------------------------------------------------------------------
 Center     Atomic      Atomic             Coordinates (Angstroms)
 Number     Number       Type             X           Y           Z
 ---------------------------------------------------------------------
      1          6           0       -0.879144    0.110430   -0.000104
      2          7           0       -1.943566   -0.331803    0.000068
      3          6           0        0.479258    0.650780   -0.000008
      4          6           0        1.556909   -0.447002    0.000016
      5          1           0        0.588302    1.294732    0.877857
      6          1           0        0.588390    1.294783   -0.877824
      7          1           0        1.468646   -1.080681    0.884048
      8          1           0        2.548761    0.009184    0.000072
      9          1           0        1.468725   -1.080639   -0.884055
 ---------------------------------------------------------------------

 SCF Done:  E(RHF) =  -171.798888526     A.U. after    2 cycles

 The electronic state is 1-A.
 Alpha  occ. eigenvalues --  -15.75528 -11.46419 -11.42488 -11.39504  -1.32145
 Alpha  occ. eigenvalues --   -1.18778  -0.95929  -0.70468  -0.65891  -0.58058
 Alpha  occ. eigenvalues --   -0.54803  -0.53407  -0.50010  -0.42863  -0.42551
 Alpha virt. eigenvalues --    0.02617   0.05125   0.05820   0.05843   0.06389
 Alpha virt. eigenvalues --    0.09723   0.10921   0.11373   0.11985   0.13107
 Alpha virt. eigenvalues --    0.13973   0.15924   0.17576   0.18097   0.18627

 Mulliken charges:
               1
     1  C    2.471016
     2  N   -2.400415
     3  C   -3.188650
     4  C   -3.527295
     5  H    1.433679
     6  H    1.433782
     7  H    1.293915
     8  H    1.190031
     9  H    1.293936
 Sum of Mulliken charges =   0.00000

 Dipole moment (field-independent basis, Debye):
    X=              3.4949    Y=              1.1796    Z=             -0.0000  Tot=              3.6886

 Test job not archived.
 1\1\GINC-SE073\SP\RHF\Aug-CC-pVDZ\C3H5N1\OHZDE\08-Apr-2025\0\\#t hf au
 g-cc-pvdz iop(5/13=1,5/36=2,99/5=2) pseudo=read geom=check guess=(read
 ,tcheck) scf=(maxcycle=1)\\title\\0,1\C,0,-0.879144,0.11043,-0.000104\
 N,0,-1.943566,-0.331803,0.000068\C,0,0.479258,0.65078,-0.000008\C,0,1.
 556909,-0.447002,0.000016\H,0,0.588302,1.294732,0.877857\H,0,0.58839,1
 .294783,-0.877824\H,0,1.468646,-1.080681,0.884048\H,0,2.548761,0.00918
 4,0.000072\H,0,1.468725,-1.080639,-0.884055\\Version=ES64L-G16RevC.01\
 State=1-A\HF=-171.7988885\RMSD=2.458e-01\Dipole=1.3750101,0.464075,-0.

 Normal termination of Gaussian 16 at Tue Apr  8 23:03:43 2025.
