 Gaussian 16, Revision C.01,

 ----------------------------------------------------------------------
 #t hf aug-cc-pvdz symm=none int=(grid=ultrafine) guess=(read,tcheck) s
 table=(opt,rrhf)
 ----------------------------------------------------------------------
 -----
 title
 -----
 Symbolic Z-matrix:
 Charge =  0 Multiplicity = 1

 SCF Done:  E(RHF) =  -395.306359786     A.U. after   13 cycles
 Normal termination of Gaussian 16 at Wed Apr  9 00:35:03 2025.
 Gaussian 16:  ES64L-G16RevC.01  3-Jul-2019

 ----------------------------------------------------------------------
 #t hf aug-cc-pvdz iop(5/13=1,5/36=2,99/5=2) pseudo=read geom=check gue
 ss=(read,tcheck) scf=(maxcycle=1)
 ----------------------------------------------------------------------
 -----
 title
 -----
 Structure from the checkpoint file:  "BDE49_nonexpt_445_mol1.chk"
 Charge =  0 Multiplicity = 1

                         Standard orientation:
 ---------------------------------------------------------------------
 Center     Atomic      Atomic             Coordinates (Angstroms)
 Number     Number       Type             X           Y           Z
 ---------------------------------------------------------------------
      1          9           0        2.033101   -0.015202   -1.137394
      2          9           0        2.033097   -0.015226    1.137403
      3          7           0       -0.007327   -0.491263   -0.000004
      4          6           0       -1.514465    1.440197   -0.000006
      5          6           0       -1.182286   -0.037590   -0.000006
      6          6           0       -2.367116   -0.974927    0.000003
      7          5           0        1.341475   -0.137637    0.000000
      8          1           0       -0.612728    2.051977   -0.000009
      9          1           0       -2.116951    1.691859    0.878800
     10          1           0       -2.116957    1.691858   -0.878808
     11          1           0       -2.032229   -2.010608    0.000007
     12          1           0       -2.994899   -0.795147   -0.878980
     13          1           0       -2.994894   -0.795139    0.878988
 ---------------------------------------------------------------------

 SCF Done:  E(RHF) =  -396.909710021     A.U. after    2 cycles

 The electronic state is 1-A.
 Alpha  occ. eigenvalues --  -29.23769 -29.23687 -15.70203 -11.48970 -11.40417
 Alpha  occ. eigenvalues --  -11.38633  -7.70396  -1.43098  -1.19986  -1.04725
 Alpha  occ. eigenvalues --   -1.02950  -0.78960  -0.74176  -0.66193  -0.63271
 Alpha  occ. eigenvalues --   -0.62206  -0.55989  -0.55198  -0.52910  -0.48618
 Alpha  occ. eigenvalues --   -0.47007  -0.43006  -0.42298  -0.34039  -0.32023
 Alpha  occ. eigenvalues --   -0.29016  -0.25659
 Alpha virt. eigenvalues --    0.02087   0.04306   0.04700   0.05463   0.05843
 Alpha virt. eigenvalues --    0.06249   0.06407   0.07082   0.07260   0.09536
 Alpha virt. eigenvalues --    0.10493   0.12909   0.13300   0.14062   0.14300

 Mulliken charges:
               1
     1  F   -0.976019
     2  F   -0.975999
     3  N   -3.050633
     4  C   -3.876055
     5  C    3.622983
     6  C   -3.948800
     7  B    1.424924
     8  H    1.311934
     9  H    1.270391
    10  H    1.270391
    11  H    1.407878
    12  H    1.259503
    13  H    1.259502
 Sum of Mulliken charges =   0.00000

 Dipole moment (field-independent basis, Debye):
    X=              0.2617    Y=              1.5971    Z=             -0.0000  Tot=              1.6184

 Test job not archived.
 1\1\GINC-SE362\SP\RHF\Aug-CC-pVDZ\C3H6B1F2N1\OHZDE\09-Apr-2025\0\\#t h
 f aug-cc-pvdz iop(5/13=1,5/36=2,99/5=2) pseudo=read geom=check guess=(
 read,tcheck) scf=(maxcycle=1)\\title\\0,1\F,0,2.033101,-0.015202,-1.13
 7394\F,0,2.033097,-0.015226,1.137403\N,0,-0.007327,-0.491263,-0.000004
 \C,0,-1.514465,1.440197,-0.000006\C,0,-1.182286,-0.03759,-0.000006\C,0
 ,-2.367116,-0.974927,0.000003\B,0,1.341475,-0.137637,0.\H,0,-0.612728,
 2.051977,-0.000009\H,0,-2.116951,1.691859,0.8788\H,0,-2.116957,1.69185
 8,-0.878808\H,0,-2.032229,-2.010608,0.000007\H,0,-2.994899,-0.795147,-

 Normal termination of Gaussian 16 at Wed Apr  9 00:35:06 2025.
