 Gaussian 16, Revision C.01,

 ----------------------------------------------------------------------
 #t hf aug-cc-pvdz symm=none int=(grid=ultrafine) guess=(read,tcheck) s
 table=(opt,rrhf)
 ----------------------------------------------------------------------
 -----
 title
 -----
 Symbolic Z-matrix:
 Charge =  0 Multiplicity = 1

 SCF Done:  E(RHF) =  -1814.26272524     A.U. after   16 cycles
 Normal termination of Gaussian 16 at Wed Apr  9 00:56:14 2025.
 Gaussian 16:  ES64L-G16RevC.01  3-Jul-2019

 ----------------------------------------------------------------------
 #t hf aug-cc-pvdz iop(5/13=1,5/36=2,99/5=2) pseudo=read geom=check gue
 ss=(read,tcheck) scf=(maxcycle=1)
 ----------------------------------------------------------------------
 -----
 title
 -----
 Structure from the checkpoint file:  "BDE49_nonexpt_947_mol1.chk"
 Charge =  0 Multiplicity = 1

                         Standard orientation:
 ---------------------------------------------------------------------
 Center     Atomic      Atomic             Coordinates (Angstroms)
 Number     Number       Type             X           Y           Z
 ---------------------------------------------------------------------
      1          6           0       -1.308062    0.207313    0.055893
      2          6           0       -1.947599   -0.003419    1.279171
      3          1           0       -1.597291    0.522437    2.159236
      4          6           0       -3.022811   -0.883669    1.347085
      5          1           0       -3.519565   -1.054404    2.294803
      6          6           0       -3.458480   -1.543887    0.198398
      7          1           0       -4.295949   -2.229540    0.254488
      8          6           0       -2.822592   -1.322327   -1.021953
      9          1           0       -3.163401   -1.833529   -1.914437
     10          6           0       -1.748746   -0.439884   -1.099671
     11          1           0       -1.248396   -0.250680   -2.041437
     12          7           0       -0.199002    1.111878   -0.010246
     13         17           0       -0.605373    2.788395   -0.266909
     14          6           0        1.151901    0.815296   -0.035889
     15          8           0        2.025276    1.625019   -0.186845
     16          6           0        1.443232   -0.691035    0.164543
     17         17           0        1.925872   -1.392714   -1.419974
     18         17           0        2.721052   -0.896065    1.391927
     19          1           0        0.587986   -1.261382    0.502639
 ---------------------------------------------------------------------

 SCF Done:  E(RHF) =  -1817.00487850     A.U. after    2 cycles

 The electronic state is 1-A.
 Alpha  occ. eigenvalues --  -99.93555 -99.91268 -99.90902 -21.05992 -15.81841
 Alpha  occ. eigenvalues --  -11.56873 -11.55660 -11.50952 -11.48249 -11.46101
 Alpha  occ. eigenvalues --  -11.44429 -11.43527 -11.39664 -10.50606 -10.48552
 Alpha  occ. eigenvalues --  -10.48194  -9.70615  -9.69822  -9.69524  -9.68509
 Alpha  occ. eigenvalues --   -9.68136  -9.67704  -9.67669  -9.67301  -9.67256
 Alpha  occ. eigenvalues --   -1.74632  -1.52011  -1.40360  -1.35414  -1.29692
 Alpha  occ. eigenvalues --   -1.24562  -1.12746  -1.11308  -1.03743  -0.91085
 Alpha  occ. eigenvalues --   -0.90242  -0.81791  -0.76621  -0.73418  -0.70691
 Alpha  occ. eigenvalues --   -0.69143  -0.65828  -0.64206  -0.62829  -0.61300
 Alpha  occ. eigenvalues --   -0.57980  -0.57155  -0.54419  -0.53688  -0.53041
 Alpha  occ. eigenvalues --   -0.51419  -0.50526  -0.49753  -0.49423  -0.47724
 Alpha  occ. eigenvalues --   -0.47527  -0.37407  -0.36200  -0.34282  -0.32263
 Alpha virt. eigenvalues --    0.01811   0.02625   0.04275   0.04427   0.04971
 Alpha virt. eigenvalues --    0.06145   0.06343   0.06413   0.07060   0.08297
 Alpha virt. eigenvalues --    0.09184   0.09447   0.10718   0.11113   0.11805

 Mulliken charges:
               1
     1  C    3.537233
     2  C   -3.057473
     3  H    1.857705
     4  C   -0.425106
     5  H    1.566723
     6  C   -2.588585
     7  H    1.577263
     8  C   -0.575675
     9  H    1.567719
    10  C   -2.678085
    11  H    1.785990
    12  N   -3.549263
    13  Cl   0.251930
    14  C    5.079409
    15  O   -3.192225
    16  C   -3.920402
    17  Cl   0.230284
    18  Cl   0.173873
    19  H    2.358685
 Sum of Mulliken charges =  -0.00000

 Dipole moment (field-independent basis, Debye):
    X=             -4.0006    Y=             -1.9342    Z=              0.5313  Tot=              4.4752

 Test job not archived.
 1\1\GINC-SE109\SP\RHF\Aug-CC-pVDZ\C8H6Cl3N1O1\OHZDE\09-Apr-2025\0\\#t
 hf aug-cc-pvdz iop(5/13=1,5/36=2,99/5=2) pseudo=read geom=check guess=
 (read,tcheck) scf=(maxcycle=1)\\title\\0,1\C,0,-1.308062,0.207313,0.05
 5893\C,0,-1.947599,-0.003419,1.279171\H,0,-1.597291,0.522437,2.159236\
 C,0,-3.022811,-0.883669,1.347085\H,0,-3.519565,-1.054404,2.294803\C,0,
 -3.45848,-1.543887,0.198398\H,0,-4.295949,-2.229541,0.254488\C,0,-2.82
 2592,-1.322327,-1.021953\H,0,-3.163401,-1.833529,-1.914437\C,0,-1.7487
 46,-0.439884,-1.099671\H,0,-1.248396,-0.25068,-2.041437\N,0,-0.199002,

 Normal termination of Gaussian 16 at Wed Apr  9 00:56:31 2025.
