 Gaussian 16, Revision C.01,

 ----------------------------------------------------------------------
 #t hf aug-cc-pvdz symm=none int=(grid=ultrafine) guess=(read,tcheck) s
 table=(opt,rrhf)
 ----------------------------------------------------------------------
 -----
 title
 -----
 Symbolic Z-matrix:
 Charge =  0 Multiplicity = 1

 SCF Done:  E(RHF) =  -1341.93231507     A.U. after   12 cycles
 Normal termination of Gaussian 16 at Tue Apr  8 23:40:07 2025.
 Gaussian 16:  ES64L-G16RevC.01  3-Jul-2019

 ----------------------------------------------------------------------
 #t hf aug-cc-pvdz iop(5/13=1,5/36=2,99/5=2) pseudo=read geom=check gue
 ss=(read,tcheck) scf=(maxcycle=1)
 ----------------------------------------------------------------------
 -----
 title
 -----
 Structure from the checkpoint file:  "BDE49_nonexpt_160_mol1.chk"
 Charge =  0 Multiplicity = 1

                         Standard orientation:
 ---------------------------------------------------------------------
 Center     Atomic      Atomic             Coordinates (Angstroms)
 Number     Number       Type             X           Y           Z
 ---------------------------------------------------------------------
      1         17           0        1.662176    0.595641    0.000000
      2         17           0       -1.329538    1.169743    0.000000
      3         16           0       -0.253559   -1.770385    0.000000
      4          5           0        0.000000    0.010866    0.000000
      5          1           0       -1.597916   -1.739706    0.000000
 ---------------------------------------------------------------------

 SCF Done:  E(RHF) =  -1342.75176397     A.U. after    2 cycles

 The electronic state is 1-A'.
 Alpha  occ. eigenvalues --  -99.91172 -99.90866 -75.71779 -13.17342 -13.11335
 Alpha  occ. eigenvalues --  -13.05063 -10.48492 -10.48130  -9.68422  -9.68022
 Alpha  occ. eigenvalues --   -9.67880  -9.67736  -9.67560  -9.67423  -8.05793
 Alpha  occ. eigenvalues --   -7.74066  -1.41306  -1.30705  -1.15866  -0.79732
 Alpha  occ. eigenvalues --   -0.65981  -0.61143  -0.58817  -0.53452  -0.52644
 Alpha  occ. eigenvalues --   -0.49534  -0.39993  -0.31765
 Alpha virt. eigenvalues --    0.02105   0.03475   0.03567   0.03808   0.06435
 Alpha virt. eigenvalues --    0.09306   0.09457   0.11869   0.13070   0.14352
 Alpha virt. eigenvalues --    0.15793   0.16271   0.16711   0.17590   0.18347

 Mulliken charges:
               1
     1  Cl  -0.984030
     2  Cl  -1.030579
     3  S   -2.030489
     4  B    3.129167
     5  H    0.915931
 Sum of Mulliken charges =  -0.00000

 Dipole moment (field-independent basis, Debye):
    X=              0.2660    Y=             -3.3314    Z=              0.0000  Tot=              3.3421

 Test job not archived.
 1\1\GINC-SE361\SP\RHF\Aug-CC-pVDZ\B1Cl2H1S1\OHZDE\08-Apr-2025\0\\#t hf
  aug-cc-pvdz iop(5/13=1,5/36=2,99/5=2) pseudo=read geom=check guess=(r
 ead,tcheck) scf=(maxcycle=1)\\title\\0,1\Cl,0,-1.662158,0.595693,0.\Cl
 ,0,1.329574,1.169702,0.\S,0,0.253503,-1.770393,0.\B,0,0.,0.010866,0.\H
 ,0,1.597861,-1.739756,0.\\Version=ES64L-G16RevC.01\State=1-A'\HF=-1342
 .751764\RMSD=6.660e-02\Dipole=-0.1046871,-1.31069,0.\Quadrupole=-0.606
 3935,3.1701189,-2.5637254,-0.3046003,0.,0.\PG=CS [SG(B1Cl2H1S1)]\\@

 Normal termination of Gaussian 16 at Tue Apr  8 23:40:09 2025.
