 Gaussian 16, Revision C.01,

 ----------------------------------------------------------------------
 #t hf aug-cc-pvdz symm=none int=(grid=ultrafine) guess=(read,tcheck) s
 table=(opt,rrhf)
 ----------------------------------------------------------------------
 -----
 title
 -----
 Symbolic Z-matrix:
 Charge =  0 Multiplicity = 1

 SCF Done:  E(RHF) =  -951.875343087     A.U. after   16 cycles
 Normal termination of Gaussian 16 at Tue Apr  8 23:18:25 2025.
 Gaussian 16:  ES64L-G16RevC.01  3-Jul-2019

 ----------------------------------------------------------------------
 #t hf aug-cc-pvdz iop(5/13=1,5/36=2,99/5=2) pseudo=read geom=check gue
 ss=(read,tcheck) scf=(maxcycle=1)
 ----------------------------------------------------------------------
 -----
 title
 -----
 Structure from the checkpoint file:  "BDE49_expt_421_mol1.chk"
 Charge =  0 Multiplicity = 1

                         Standard orientation:
 ---------------------------------------------------------------------
 Center     Atomic      Atomic             Coordinates (Angstroms)
 Number     Number       Type             X           Y           Z
 ---------------------------------------------------------------------
      1          7           0       -0.234439    2.343441   -0.505109
      2          6           0       -1.941691    0.641970    0.303979
      3          6           0        1.786365    0.393897   -0.108465
      4          6           0        1.165424   -0.495681   -0.985796
      5          6           0        2.867981   -0.039730    0.665341
      6          6           0        1.619144   -1.808436   -1.081360
      7          6           0        2.703551   -2.240246   -0.319544
      8          6           0        3.327641   -1.348971    0.551494
      9          6           0       -2.805699    0.241365   -0.721095
     10          6           0       -1.582788   -0.292264    1.279337
     11          6           0       -2.063464   -1.598218    1.225542
     12          6           0       -2.913571   -1.988810    0.193111
     13          6           0       -3.285937   -1.064450   -0.781420
     14          1           0       -3.957548   -1.357733   -1.580810
     15          1           0       -3.114160    0.961139   -1.474104
     16          1           0       -1.773054   -2.311190    1.988984
     17          1           0       -3.289665   -3.004856    0.151756
     18          1           0       -0.915800    0.003941    2.081959
     19          1           0        0.320913   -0.171904   -1.581572
     20          1           0        1.122591   -2.495041   -1.758102
     21          1           0        3.055845   -3.262050   -0.400559
     22          1           0        4.167482   -1.675239    1.155164
     23          1           0        3.345864    0.644955    1.358571
     24         16           0        1.346156    2.135475    0.021497
     25          6           0       -1.403827    2.059847    0.339942
     26          1           0       -1.126851    2.331049    1.360273
     27          1           0       -2.192569    2.752173    0.024996
     28          1           0       -0.379242    2.251432   -1.501133
 ---------------------------------------------------------------------

 SCF Done:  E(RHF) =  -954.778492568     A.U. after    2 cycles

 The electronic state is 1-A.
 Alpha  occ. eigenvalues --  -75.70522 -15.74568 -13.21041 -13.15710 -13.07118
 Alpha  occ. eigenvalues --  -11.52012 -11.51253 -11.44810 -11.43680 -11.43404
 Alpha  occ. eigenvalues --  -11.43091 -11.42547 -11.41022 -11.40790 -11.40707
 Alpha  occ. eigenvalues --  -11.40571 -11.36264 -11.36164  -8.04565  -1.42198
 Alpha  occ. eigenvalues --   -1.34726  -1.31815  -1.15367  -1.10366  -1.09203
 Alpha  occ. eigenvalues --   -1.08963  -1.02142  -0.93540  -0.86538  -0.86333
 Alpha  occ. eigenvalues --   -0.83864  -0.82434  -0.71345  -0.71024  -0.66491
 Alpha  occ. eigenvalues --   -0.65058  -0.63443  -0.59680  -0.59154  -0.58148
 Alpha  occ. eigenvalues --   -0.57879  -0.57331  -0.55370  -0.52216  -0.51179
 Alpha  occ. eigenvalues --   -0.49675  -0.47211  -0.45722  -0.44490  -0.43679
 Alpha  occ. eigenvalues --   -0.40520  -0.35954  -0.33708  -0.33568  -0.32184
 Alpha  occ. eigenvalues --   -0.31258  -0.21872
 Alpha virt. eigenvalues --    0.03360   0.04122   0.04355   0.05092   0.05411
 Alpha virt. eigenvalues --    0.05938   0.06036   0.06403   0.06691   0.06797
 Alpha virt. eigenvalues --    0.07236   0.08293   0.08502   0.10205   0.10840

 Mulliken charges:
               1
     1  N   -1.583563
     2  C    4.792600
     3  C    2.510718
     4  C   -1.705747
     5  C   -3.872513
     6  C   -1.786213
     7  C   -2.608974
     8  C   -1.444450
     9  C   -2.524907
    10  C   -2.510380
    11  C   -1.802780
    12  C   -2.857304
    13  C   -1.672460
    14  H    1.553878
    15  H    1.834214
    16  H    1.613227
    17  H    1.582801
    18  H    2.074061
    19  H    2.354640
    20  H    1.596510
    21  H    1.565033
    22  H    1.538802
    23  H    1.804445
    24  S    0.882059
    25  C   -4.348676
    26  H    1.415167
    27  H    1.115596
    28  H    0.484215
 Sum of Mulliken charges =   0.00000

 Dipole moment (field-independent basis, Debye):
    X=             -0.4248    Y=              0.0228    Z=             -0.0279  Tot=              0.4263

 Test job not archived.
 1\1\GINC-SE284\SP\RHF\Aug-CC-pVDZ\C13H13N1S1\OHZDE\08-Apr-2025\0\\#t h
 f aug-cc-pvdz iop(5/13=1,5/36=2,99/5=2) pseudo=read geom=check guess=(
 read,tcheck) scf=(maxcycle=1)\\title\\0,1\N,0,-0.234439,2.343441,-0.50
 5109\C,0,-1.941691,0.64197,0.303979\C,0,1.786365,0.393897,-0.108465\C,
 0,1.165424,-0.495681,-0.985796\C,0,2.867981,-0.03973,0.665341\C,0,1.61
 9144,-1.808436,-1.08136\C,0,2.703551,-2.240246,-0.319544\C,0,3.327641,
 -1.348971,0.551494\C,0,-2.805699,0.241365,-0.721095\C,0,-1.582788,-0.2
 92264,1.279337\C,0,-2.063464,-1.598218,1.225542\C,0,-2.913571,-1.98881

 Normal termination of Gaussian 16 at Tue Apr  8 23:18:55 2025.
