 Gaussian 16, Revision C.01,

 ----------------------------------------------------------------------
 #t hf aug-cc-pvdz symm=none int=(grid=ultrafine) guess=(read,tcheck) s
 table=(opt,rrhf)
 ----------------------------------------------------------------------
 -----
 title
 -----
 Symbolic Z-matrix:
 Charge =  0 Multiplicity = 1

 SCF Done:  E(RHF) =  -556.979608359     A.U. after   19 cycles
 Normal termination of Gaussian 16 at Tue Apr  8 23:24:33 2025.
 Gaussian 16:  ES64L-G16RevC.01  3-Jul-2019

 ----------------------------------------------------------------------
 #t hf aug-cc-pvdz iop(5/13=1,5/36=2,99/5=2) pseudo=read geom=check gue
 ss=(read,tcheck) scf=(maxcycle=1)
 ----------------------------------------------------------------------
 -----
 title
 -----
 Structure from the checkpoint file:  "BDE49_nonexpt_1180_mol1.chk"
 Charge =  0 Multiplicity = 1

                         Standard orientation:
 ---------------------------------------------------------------------
 Center     Atomic      Atomic             Coordinates (Angstroms)
 Number     Number       Type             X           Y           Z
 ---------------------------------------------------------------------
      1          9           0        2.326268   -1.833087    0.739333
      2          6           0        1.299790    0.014530   -0.239779
      3          8           0        2.138032   -0.987530   -0.552563
      4          6           0       -0.108278   -0.224798   -0.135647
      5          6           0       -0.664287   -1.520544   -0.213008
      6          1           0        0.001925   -2.364360   -0.333343
      7          6           0       -2.026416   -1.692087   -0.115502
      8          1           0       -2.449603   -2.688357   -0.174575
      9          6           0       -2.882619   -0.582540    0.064429
     10          1           0       -3.952642   -0.738416    0.139752
     11          6           0       -2.364084    0.687441    0.146418
     12          1           0       -3.017487    1.541817    0.286559
     13          6           0       -0.965166    0.902111    0.049897
     14          6           0       -0.392559    2.199394    0.130277
     15          1           0       -1.053116    3.049486    0.265390
     16          6           0        0.968670    2.392720    0.041804
     17          1           0        1.383831    3.391329    0.105667
     18          6           0        1.825966    1.289845   -0.119083
     19          1           0        2.900329    1.410080   -0.181780
 ---------------------------------------------------------------------

 SCF Done:  E(RHF) =  -559.431556203     A.U. after    2 cycles

 The electronic state is 1-A.
 Alpha  occ. eigenvalues --  -29.26654 -21.17579 -11.55113 -11.51574 -11.47494
 Alpha  occ. eigenvalues --  -11.46575 -11.44786 -11.44543 -11.42955 -11.42514
 Alpha  occ. eigenvalues --  -11.41178 -11.38123  -1.80209  -1.39501  -1.25055
 Alpha  occ. eigenvalues --   -1.14052  -1.10139  -1.05173  -0.91098  -0.89811
 Alpha  occ. eigenvalues --   -0.85083  -0.74880  -0.73078  -0.69307  -0.67745
 Alpha  occ. eigenvalues --   -0.62777  -0.61473  -0.58393  -0.56715  -0.55475
 Alpha  occ. eigenvalues --   -0.53956  -0.50949  -0.46854  -0.45744  -0.44390
 Alpha  occ. eigenvalues --   -0.41818  -0.40092  -0.34013  -0.33195  -0.26907
 Alpha  occ. eigenvalues --   -0.24036  -0.21804
 Alpha virt. eigenvalues --    0.03089   0.04424   0.04829   0.05774   0.06210
 Alpha virt. eigenvalues --    0.06935   0.07391   0.08065   0.09542   0.10013
 Alpha virt. eigenvalues --    0.10682   0.10933   0.11781   0.12362   0.12701

 Mulliken charges:
               1
     1  F   -0.340105
     2  C    7.506961
     3  O   -3.394641
     4  C    1.005946
     5  C   -2.645268
     6  H    1.884728
     7  C   -2.539329
     8  H    1.465898
     9  C   -3.610096
    10  H    1.524367
    11  C   -2.449085
    12  H    1.659646
    13  C    7.597950
    14  C   -2.696856
    15  H    1.680465
    16  C   -2.228339
    17  H    1.476451
    18  C   -7.534979
    19  H    1.636284
 Sum of Mulliken charges =   0.00000

 Dipole moment (field-independent basis, Debye):
    X=             -0.7228    Y=             -0.2340    Z=              1.0938  Tot=              1.3317

 Test job not archived.
 1\1\GINC-SE331\SP\RHF\Aug-CC-pVDZ\C10H7F1O1\OHZDE\08-Apr-2025\0\\#t hf
  aug-cc-pvdz iop(5/13=1,5/36=2,99/5=2) pseudo=read geom=check guess=(r
 ead,tcheck) scf=(maxcycle=1)\\title\\0,1\F,0,2.326268,-1.833087,0.7393
 33\C,0,1.29979,0.01453,-0.239779\O,0,2.138032,-0.98753,-0.552563\C,0,-
 0.108278,-0.224798,-0.135647\C,0,-0.664287,-1.520544,-0.213008\H,0,0.0
 01925,-2.36436,-0.333343\C,0,-2.026416,-1.692087,-0.115502\H,0,-2.4496
 03,-2.688357,-0.174575\C,0,-2.882619,-0.58254,0.064429\H,0,-3.952642,-
 0.738416,0.139752\C,0,-2.364084,0.687441,0.146418\H,0,-3.017487,1.5418

 Normal termination of Gaussian 16 at Tue Apr  8 23:24:45 2025.
