 Gaussian 16, Revision C.01,

 ----------------------------------------------------------------------
 #t hf aug-cc-pvdz symm=none int=(grid=ultrafine) guess=(read,tcheck) s
 table=(opt,rrhf)
 ----------------------------------------------------------------------
 -----
 title
 -----
 Symbolic Z-matrix:
 Charge =  0 Multiplicity = 1

 SCF Done:  E(RHF) =  -611.959334045     A.U. after   14 cycles
 Normal termination of Gaussian 16 at Wed Apr  9 00:09:01 2025.
 Gaussian 16:  ES64L-G16RevC.01  3-Jul-2019

 ----------------------------------------------------------------------
 #t hf aug-cc-pvdz iop(5/13=1,5/36=2,99/5=2) pseudo=read geom=check gue
 ss=(read,tcheck) scf=(maxcycle=1)
 ----------------------------------------------------------------------
 -----
 title
 -----
 Structure from the checkpoint file:  "BDE49_nonexpt_2294_mol1.chk"
 Charge =  0 Multiplicity = 1

                         Standard orientation:
 ---------------------------------------------------------------------
 Center     Atomic      Atomic             Coordinates (Angstroms)
 Number     Number       Type             X           Y           Z
 ---------------------------------------------------------------------
      1         14           0        0.717789   -0.008136    0.000001
      2          8           0       -0.863153    0.661657   -0.000003
      3          7           0       -1.951230   -0.266824   -0.000001
      4          8           0       -2.981846    0.282895   -0.000003
      5          6           0        0.942702   -1.038211    1.545039
      6          6           0        1.821001    1.497170   -0.000007
      7          1           0        2.873985    1.197750   -0.000005
      8          1           0        1.645559    2.115528    0.884121
      9          1           0        1.645560    2.115518   -0.884143
     10          6           0        0.942702   -1.038228   -1.545026
     11          1           0        0.244350   -1.879262   -1.568040
     12          1           0        1.958087   -1.444907   -1.591297
     13          1           0        0.780575   -0.439824   -2.445925
     14          1           0        0.780574   -0.439798    2.445931
     15          1           0        1.958086   -1.444890    1.591315
     16          1           0        0.244350   -1.879245    1.568062
 ---------------------------------------------------------------------

 SCF Done:  E(RHF) =  -613.583956843     A.U. after    2 cycles

 The electronic state is 1-A.
 Alpha  occ. eigenvalues --  -76.22116 -21.14975 -21.07214 -15.93281 -11.35232
 Alpha  occ. eigenvalues --  -11.35227 -11.35167  -5.56347  -2.22402  -2.19908
 Alpha  occ. eigenvalues --   -2.19696  -1.94996  -1.67719  -1.08351  -1.02097
 Alpha  occ. eigenvalues --   -1.02011  -0.94497  -0.70358  -0.61601  -0.60554
 Alpha  occ. eigenvalues --   -0.60238  -0.57351  -0.57179  -0.56656  -0.55318
 Alpha  occ. eigenvalues --   -0.55038  -0.54234  -0.42633  -0.41444  -0.37470
 Alpha  occ. eigenvalues --   -0.35149  -0.29226
 Alpha virt. eigenvalues --    0.02708   0.05232   0.05291   0.05629   0.06341
 Alpha virt. eigenvalues --    0.06374   0.07171   0.07185   0.08717   0.08793
 Alpha virt. eigenvalues --    0.10000   0.10431   0.10823   0.13483   0.14382

 Mulliken charges:
               1
     1  Si   9.755465
     2  O   -3.376984
     3  N    2.493596
     4  O   -1.835983
     5  C   -5.766814
     6  C   -5.710582
     7  H    1.160511
     8  H    1.133994
     9  H    1.133993
    10  C   -5.766814
    11  H    1.103890
    12  H    1.141373
    13  H    1.144545
    14  H    1.144545
    15  H    1.141374
    16  H    1.103889
 Sum of Mulliken charges =  -0.00000

 Dipole moment (field-independent basis, Debye):
    X=              1.4353    Y=              0.3217    Z=              0.0000  Tot=              1.4710

 Test job not archived.
 1\1\GINC-SE435\SP\RHF\Aug-CC-pVDZ\C3H9N1O2Si1\OHZDE\09-Apr-2025\0\\#t
 hf aug-cc-pvdz iop(5/13=1,5/36=2,99/5=2) pseudo=read geom=check guess=
 (read,tcheck) scf=(maxcycle=1)\\title\\0,1\Si,0,0.717789,-0.008136,0.0
 00001\O,0,-0.863153,0.661657,-0.000003\N,0,-1.95123,-0.266824,-0.00000
 1\O,0,-2.981846,0.282895,-0.000003\C,0,0.942702,-1.038211,1.545039\C,0
 ,1.821001,1.49717,-0.000007\H,0,2.873985,1.19775,-0.000005\H,0,1.64555
 9,2.115528,0.884121\H,0,1.64556,2.115518,-0.884143\C,0,0.942702,-1.038
 228,-1.545026\H,0,0.24435,-1.879262,-1.56804\H,0,1.958087,-1.444907,-1

 Normal termination of Gaussian 16 at Wed Apr  9 00:09:07 2025.
