 Gaussian 16, Revision C.01,

 ----------------------------------------------------------------------
 #t hf aug-cc-pvdz symm=none int=(grid=ultrafine) guess=(read,tcheck) s
 table=(opt,rrhf)
 ----------------------------------------------------------------------
 -----
 title
 -----
 Symbolic Z-matrix:
 Charge =  0 Multiplicity = 1

 SCF Done:  E(RHF) =  -558.571258620     A.U. after   15 cycles
 Normal termination of Gaussian 16 at Wed Apr  9 00:44:15 2025.
 Gaussian 16:  ES64L-G16RevC.01  3-Jul-2019

 ----------------------------------------------------------------------
 #t hf aug-cc-pvdz iop(5/13=1,5/36=2,99/5=2) pseudo=read geom=check gue
 ss=(read,tcheck) scf=(maxcycle=1)
 ----------------------------------------------------------------------
 -----
 title
 -----
 Structure from the checkpoint file:  "BDE49_nonexpt_735_mol1.chk"
 Charge =  0 Multiplicity = 1

                         Standard orientation:
 ---------------------------------------------------------------------
 Center     Atomic      Atomic             Coordinates (Angstroms)
 Number     Number       Type             X           Y           Z
 ---------------------------------------------------------------------
      1          6           0       -1.859606   -0.263721    0.357428
      2          5           0        1.102763    0.166380   -0.028486
      3          6           0        0.923081    1.709189   -0.212436
      4          1           0        1.131730    1.941860   -1.268050
      5          1           0        1.642051    2.287925    0.376234
      6          1           0       -0.091448    2.066228   -0.020201
      7          6           0        2.475449   -0.475507    0.383020
      8          1           0        3.323135    0.049050   -0.071902
      9          1           0        2.579493   -1.546605    0.194940
     10          1           0        2.584184   -0.329201    1.468417
     11          8           0       -2.232008    0.872065    0.202066
     12         15           0       -0.362923   -0.999965   -0.446200
     13          1           0       -2.446317   -0.987857    0.965594
     14          1           0       -0.170277   -2.110111    0.405792
 ---------------------------------------------------------------------

 SCF Done:  E(RHF) =  -559.767166206     A.U. after    2 cycles

 The electronic state is 1-A.
 Alpha  occ. eigenvalues -- -105.17115 -21.07102 -11.47910 -11.34639 -11.33460
 Alpha  occ. eigenvalues --   -7.61994  -2.75364  -1.71723  -1.51851  -1.46982
 Alpha  occ. eigenvalues --   -1.43148  -1.12399  -1.01564  -0.88163  -0.73987
 Alpha  occ. eigenvalues --   -0.62876  -0.56705  -0.56626  -0.55090  -0.54267
 Alpha  occ. eigenvalues --   -0.53313  -0.45977  -0.42959  -0.40527  -0.22173
 Alpha  occ. eigenvalues --   -0.12607  -0.03669
 Alpha virt. eigenvalues --    0.03310   0.04094   0.04798   0.04967   0.07162
 Alpha virt. eigenvalues --    0.07591   0.07775   0.08286   0.08974   0.09176
 Alpha virt. eigenvalues --    0.09580   0.09869   0.10233   0.11338   0.12776

 Mulliken charges:
               1
     1  C   -0.901540
     2  B    4.424218
     3  C   -5.647263
     4  H    1.067645
     5  H    1.175978
     6  H    1.381518
     7  C   -5.740620
     8  H    1.157319
     9  H    1.375729
    10  H    1.090072
    11  O   -2.518253
    12  P    2.546409
    13  H    1.351342
    14  H   -0.762554
 Sum of Mulliken charges =  -0.00000

 Dipole moment (field-independent basis, Debye):
    X=             -0.8766    Y=             -2.3603    Z=             -4.6348  Tot=              5.2745

 Test job not archived.
 1\1\GINC-SE227\SP\RHF\Aug-CC-pVDZ\C3H8B1O1P1\OHZDE\09-Apr-2025\0\\#t h
 f aug-cc-pvdz iop(5/13=1,5/36=2,99/5=2) pseudo=read geom=check guess=(
 read,tcheck) scf=(maxcycle=1)\\title\\0,1\C,0,-1.859606,-0.263721,0.35
 7428\B,0,1.102763,0.16638,-0.028486\C,0,0.923081,1.709189,-0.212436\H,
 0,1.13173,1.94186,-1.26805\H,0,1.642051,2.287925,0.376234\H,0,-0.09144
 8,2.066228,-0.020201\C,0,2.475449,-0.475507,0.38302\H,0,3.323135,0.049
 05,-0.071902\H,0,2.579493,-1.546605,0.19494\H,0,2.584184,-0.329201,1.4
 68417\O,0,-2.232008,0.872065,0.202066\P,0,-0.362923,-0.999965,-0.4462\

 Normal termination of Gaussian 16 at Wed Apr  9 00:44:19 2025.
