 Gaussian 16, Revision C.01,

 ----------------------------------------------------------------------
 #t hf aug-cc-pvdz symm=none int=(grid=ultrafine) guess=(read,tcheck) s
 table=(opt,rrhf)
 ----------------------------------------------------------------------
 -----
 title
 -----
 Symbolic Z-matrix:
 Charge =  0 Multiplicity = 1

 SCF Done:  E(RHF) =  -725.887576066     A.U. after   11 cycles
 Normal termination of Gaussian 16 at Tue Apr  8 23:49:25 2025.
 Gaussian 16:  ES64L-G16RevC.01  3-Jul-2019

 ----------------------------------------------------------------------
 #t hf aug-cc-pvdz iop(5/13=1,5/36=2,99/5=2) pseudo=read geom=check gue
 ss=(read,tcheck) scf=(maxcycle=1)
 ----------------------------------------------------------------------
 -----
 title
 -----
 Structure from the checkpoint file:  "BDE49_nonexpt_1835_mol1.chk"
 Charge =  0 Multiplicity = 1

                         Standard orientation:
 ---------------------------------------------------------------------
 Center     Atomic      Atomic             Coordinates (Angstroms)
 Number     Number       Type             X           Y           Z
 ---------------------------------------------------------------------
      1          6           0        1.031018   -0.000000   -0.390951
      2         14           0       -0.727825    0.000000    0.325538
      3          9           0       -1.486476   -1.287109   -0.227132
      4          9           0        1.687691   -1.113436    0.087097
      5          9           0       -1.486476    1.287109   -0.227131
      6          1           0       -0.740735   -0.000001    1.789610
      7          9           0        1.687691    1.113435    0.087096
      8          1           0        1.122308   -0.000001   -1.480806
 ---------------------------------------------------------------------

 SCF Done:  E(RHF) =  -727.568255196     A.U. after    2 cycles

 The electronic state is 1-A.
 Alpha  occ. eigenvalues --  -76.30901 -29.30286 -29.30285 -29.30007 -29.29971
 Alpha  occ. eigenvalues --  -11.50376  -5.66670  -2.31682  -2.30381  -2.27337
 Alpha  occ. eigenvalues --   -1.28224  -0.96505  -0.81005  -0.75138  -0.71321
 Alpha  occ. eigenvalues --   -0.66474  -0.59002  -0.46331  -0.42897  -0.40110
 Alpha  occ. eigenvalues --   -0.39991  -0.37462  -0.36505  -0.36352  -0.31736
 Alpha  occ. eigenvalues --   -0.31517  -0.30431  -0.23626  -0.22844
 Alpha virt. eigenvalues --    0.04697   0.05348   0.07165   0.07760   0.08477
 Alpha virt. eigenvalues --    0.12053   0.14437   0.14867   0.15331   0.17600
 Alpha virt. eigenvalues --    0.19847   0.22382   0.22877   0.23619   0.24722

 Mulliken charges:
               1
     1  C   -2.750348
     2  Si   4.967972
     3  F   -0.941421
     4  F    0.211950
     5  F   -0.941421
     6  H   -2.079638
     7  F    0.211949
     8  H    1.320957
 Sum of Mulliken charges =  -0.00000

 Dipole moment (field-independent basis, Debye):
    X=             -0.6919    Y=              0.0000    Z=             -0.5979  Tot=              0.9145

 Test job not archived.
 1\1\GINC-SE069\SP\RHF\Aug-CC-pVDZ\C1H2F4Si1\OHZDE\08-Apr-2025\0\\#t hf
  aug-cc-pvdz iop(5/13=1,5/36=2,99/5=2) pseudo=read geom=check guess=(r
 ead,tcheck) scf=(maxcycle=1)\\title\\0,1\C,0,1.031018,0.,-0.390951\Si,
 0,-0.727825,0.,0.325538\F,0,-1.486476,-1.287109,-0.227132\F,0,1.687691
 ,-1.113435,0.087097\F,0,-1.486476,1.287109,-0.227131\H,0,-0.740735,-0.
 000001,1.78961\F,0,1.687691,1.113436,0.087096\H,0,1.122308,-0.000001,-
 1.480806\\Version=ES64L-G16RevC.01\State=1-A\HF=-727.5682552\RMSD=7.75
 4e-02\Dipole=-0.2722261,0.0000009,-0.2352491\Quadrupole=2.2067105,0.93

 Normal termination of Gaussian 16 at Tue Apr  8 23:49:27 2025.
