 Gaussian 16, Revision C.01,

 ----------------------------------------------------------------------
 #t hf aug-cc-pvdz symm=none int=(grid=ultrafine) guess=(read,tcheck) s
 table=(opt,rrhf)
 ----------------------------------------------------------------------
 -----
 title
 -----
 Symbolic Z-matrix:
 Charge =  0 Multiplicity = 1

 SCF Done:  E(RHF) =  -1287.84865991     A.U. after   16 cycles
 Normal termination of Gaussian 16 at Wed Apr  9 00:14:56 2025.
 Gaussian 16:  ES64L-G16RevC.01  3-Jul-2019

 ----------------------------------------------------------------------
 #t hf aug-cc-pvdz iop(5/13=1,5/36=2,99/5=2) pseudo=read geom=check gue
 ss=(read,tcheck) scf=(maxcycle=1)
 ----------------------------------------------------------------------
 -----
 title
 -----
 Structure from the checkpoint file:  "BDE49_nonexpt_242_mol1.chk"
 Charge =  0 Multiplicity = 1

                         Standard orientation:
 ---------------------------------------------------------------------
 Center     Atomic      Atomic             Coordinates (Angstroms)
 Number     Number       Type             X           Y           Z
 ---------------------------------------------------------------------
      1         17           0       -3.053354   -1.365233   -0.000082
      2         17           0       -2.808040    1.638382   -0.000056
      3          5           0       -1.991917    0.059322    0.000099
      4          6           0       -0.465517   -0.066422    0.000071
      5          6           0        0.175416   -1.327938    0.000047
      6          6           0        1.550138   -1.443495    0.000025
      7          6           0        2.352916   -0.291298    0.000024
      8          6           0        0.365292    1.069986    0.000068
      9          1           0       -0.084649    2.055535    0.000085
     10          6           0        1.750240    0.973579    0.000046
     11          1           0        2.347235    1.875260    0.000045
     12          1           0       -0.426071   -2.228870    0.000048
     13          8           0        3.687959   -0.506577    0.000001
     14          6           0        4.569453    0.613495   -0.000003
     15          1           0        4.431109    1.228549   -0.894838
     16          1           0        5.574257    0.195962   -0.000024
     17          1           0        4.431139    1.228532    0.894848
     18          1           0        2.038972   -2.409941    0.000007
 ---------------------------------------------------------------------

 SCF Done:  E(RHF) =  -1290.03973857     A.U. after    2 cycles

 The electronic state is 1-A.
 Alpha  occ. eigenvalues --  -99.88885 -99.88860 -21.09451 -11.54506 -11.47626
 Alpha  occ. eigenvalues --  -11.45274 -11.43163 -11.41901 -11.41498 -11.37288
 Alpha  occ. eigenvalues --  -10.46305 -10.46045  -9.66287  -9.66042  -9.65738
 Alpha  occ. eigenvalues --   -9.65714  -9.65523  -9.65440  -7.73181  -1.80916
 Alpha  occ. eigenvalues --   -1.40182  -1.31750  -1.28531  -1.11635  -1.10729
 Alpha  occ. eigenvalues --   -1.01034  -0.89142  -0.86975  -0.79122  -0.71017
 Alpha  occ. eigenvalues --   -0.66278  -0.65795  -0.63925  -0.63074  -0.60018
 Alpha  occ. eigenvalues --   -0.59591  -0.57144  -0.55690  -0.53383  -0.51554
 Alpha  occ. eigenvalues --   -0.51536  -0.49183  -0.46291  -0.43831  -0.42890
 Alpha  occ. eigenvalues --   -0.40567  -0.34855  -0.28704
 Alpha virt. eigenvalues --    0.02710   0.04209   0.04495   0.04518   0.05251
 Alpha virt. eigenvalues --    0.05484   0.05997   0.06210   0.06792   0.07417
 Alpha virt. eigenvalues --    0.08572   0.09747   0.10828   0.10911   0.12726

 Mulliken charges:
               1
     1  Cl  -1.464774
     2  Cl  -1.476460
     3  B    1.243929
     4  C   -2.949217
     5  C    0.037476
     6  C   -3.035056
     7  C    5.750146
     8  C    0.393415
     9  H    1.828070
    10  C   -1.724948
    11  H    1.944331
    12  H    1.822241
    13  O   -4.709944
    14  C   -3.775761
    15  H    1.391476
    16  H    1.412661
    17  H    1.391474
    18  H    1.920941
 Sum of Mulliken charges =  -0.00000

 Dipole moment (field-independent basis, Debye):
    X=              4.8518    Y=              0.2785    Z=              0.0001  Tot=              4.8598

 Test job not archived.
 1\1\GINC-SE090\SP\RHF\Aug-CC-pVDZ\C7H7B1Cl2O1\OHZDE\09-Apr-2025\0\\#t
 hf aug-cc-pvdz iop(5/13=1,5/36=2,99/5=2) pseudo=read geom=check guess=
 (read,tcheck) scf=(maxcycle=1)\\title\\0,1\Cl,0,3.053354,-1.365233,0.0
 00082\Cl,0,2.80804,1.638382,0.000056\B,0,1.991917,0.059322,-0.000099\C
 ,0,0.465517,-0.066422,-0.000071\C,0,-0.175416,-1.327938,-0.000047\C,0,
 -1.550138,-1.443495,-0.000025\C,0,-2.352916,-0.291298,-0.000024\C,0,-0
 .365292,1.069986,-0.000068\H,0,0.084649,2.055535,-0.000085\C,0,-1.7502
 4,0.973579,-0.000046\H,0,-2.347235,1.87526,-0.000045\H,0,0.426071,-2.2

 Normal termination of Gaussian 16 at Wed Apr  9 00:15:07 2025.
