 Gaussian 16, Revision C.01,

 ----------------------------------------------------------------------
 #t hf aug-cc-pvdz symm=none int=(grid=ultrafine) guess=(read,tcheck) s
 table=(opt,rrhf)
 ----------------------------------------------------------------------
 -----
 title
 -----
 Symbolic Z-matrix:
 Charge =  0 Multiplicity = 1

 SCF Done:  E(RHF) =  -1616.65901211     A.U. after   13 cycles
 Normal termination of Gaussian 16 at Wed Apr  9 00:50:03 2025.
 Gaussian 16:  ES64L-G16RevC.01  3-Jul-2019

 ----------------------------------------------------------------------
 #t hf aug-cc-pvdz iop(5/13=1,5/36=2,99/5=2) pseudo=read geom=check gue
 ss=(read,tcheck) scf=(maxcycle=1)
 ----------------------------------------------------------------------
 -----
 title
 -----
 Structure from the checkpoint file:  "BDE49_nonexpt_901_mol1.chk"
 Charge =  0 Multiplicity = 1

                         Standard orientation:
 ---------------------------------------------------------------------
 Center     Atomic      Atomic             Coordinates (Angstroms)
 Number     Number       Type             X           Y           Z
 ---------------------------------------------------------------------
      1         16           0       -0.672067   -1.148285   -0.019850
      2          5           0        0.717348    0.047151   -0.002561
      3         16           0        0.603922    1.846259   -0.004308
      4         16           0        2.386233   -0.681075    0.013379
      5         16           0       -2.455767   -0.028469   -0.065824
      6          1           0        2.014305   -1.974672    0.028497
      7          1           0       -0.744681    1.891750   -0.055822
      8          1           0       -2.653490    0.032280    1.265788
 ---------------------------------------------------------------------

 SCF Done:  E(RHF) =  -1617.67707884     A.U. after    2 cycles

 The electronic state is 1-A.
 Alpha  occ. eigenvalues --  -75.73731 -75.72521 -75.70497 -75.70130 -13.18480
 Alpha  occ. eigenvalues --  -13.17864 -13.15731 -13.14287 -13.12379 -13.11013
 Alpha  occ. eigenvalues --  -13.10519 -13.09077 -13.07971 -13.06290 -13.04495
 Alpha  occ. eigenvalues --  -13.03878  -8.07390  -8.06412  -8.04568  -8.03929
 Alpha  occ. eigenvalues --   -7.68921  -1.27830  -1.17833  -1.10956  -1.01766
 Alpha  occ. eigenvalues --   -0.67373  -0.56434  -0.53460  -0.48690  -0.44212
 Alpha  occ. eigenvalues --   -0.38665  -0.35369  -0.33061  -0.26794  -0.26747
 Alpha  occ. eigenvalues --   -0.25617
 Alpha virt. eigenvalues --    0.00402   0.01719   0.02447   0.02796   0.06981
 Alpha virt. eigenvalues --    0.08320   0.10076   0.10347   0.10580   0.11182
 Alpha virt. eigenvalues --    0.11893   0.12727   0.14027   0.14499   0.15321

 Mulliken charges:
               1
     1  S   -1.457025
     2  B    4.336545
     3  S   -2.202196
     4  S   -2.394816
     5  S   -1.633773
     6  H    0.932425
     7  H    1.165453
     8  H    1.253386
 Sum of Mulliken charges =  -0.00000

 Dipole moment (field-independent basis, Debye):
    X=              1.3315    Y=              0.9611    Z=             -0.8408  Tot=              1.8448

 Test job not archived.
 1\1\GINC-SE186\SP\RHF\Aug-CC-pVDZ\B1H3S4\OHZDE\09-Apr-2025\0\\#t hf au
 g-cc-pvdz iop(5/13=1,5/36=2,99/5=2) pseudo=read geom=check guess=(read
 ,tcheck) scf=(maxcycle=1)\\title\\0,1\S,0,-0.672067,-1.148285,-0.01985
 \B,0,0.717348,0.047151,-0.002561\S,0,0.603922,1.846259,-0.004308\S,0,2
 .386233,-0.681075,0.013379\S,0,-2.455767,-0.028469,-0.065824\H,0,2.014
 305,-1.974672,0.028497\H,0,-0.744681,1.89175,-0.055822\H,0,-2.65349,0.
 03228,1.265788\\Version=ES64L-G16RevC.01\State=1-A\HF=-1617.6770788\RM
 SD=1.088e-01\Dipole=0.5238363,0.3781128,-0.3307787\Quadrupole=5.102852

 Normal termination of Gaussian 16 at Wed Apr  9 00:50:06 2025.
