 Gaussian 16, Revision C.01,

 ----------------------------------------------------------------------
 #t hf aug-cc-pvdz symm=none int=(grid=ultrafine) guess=(read,tcheck) s
 table=(opt,rrhf)
 ----------------------------------------------------------------------
 -----
 title
 -----
 Symbolic Z-matrix:
 Charge =  0 Multiplicity = 1

 SCF Done:  E(RHF) =  -1409.97004325     A.U. after   15 cycles
 Normal termination of Gaussian 16 at Tue Apr  8 22:54:00 2025.
 Gaussian 16:  ES64L-G16RevC.01  3-Jul-2019

 ----------------------------------------------------------------------
 #t hf aug-cc-pvdz iop(5/13=1,5/36=2,99/5=2) pseudo=read geom=check gue
 ss=(read,tcheck) scf=(maxcycle=1)
 ----------------------------------------------------------------------
 -----
 title
 -----
 Structure from the checkpoint file:  "BDE49_expt_1797_mol1.chk"
 Charge =  0 Multiplicity = 1

                         Standard orientation:
 ---------------------------------------------------------------------
 Center     Atomic      Atomic             Coordinates (Angstroms)
 Number     Number       Type             X           Y           Z
 ---------------------------------------------------------------------
      1          8           0        0.942880   -1.007860    0.157277
      2          7           0        2.254053   -0.165486    0.040892
      3          8           0        2.287651    0.835888    0.665193
      4          8           0        3.003567   -0.744695   -0.668570
      5          8           0        0.058041   -0.344849    1.022589
      6          6           0       -1.041742    0.157044    0.314933
      7          9           0       -1.760642    0.755961    1.263498
      8         17           0       -2.008371   -1.152519   -0.421789
      9         17           0       -0.580998    1.358673   -0.928755
 ---------------------------------------------------------------------

 SCF Done:  E(RHF) =  -1412.40624245     A.U. after    2 cycles

 The electronic state is 1-A.
 Alpha  occ. eigenvalues --  -99.93755 -99.93470 -29.34931 -21.20685 -21.18722
 Alpha  occ. eigenvalues --  -21.18307 -21.17852 -16.10990 -11.62259 -10.51196
 Alpha  occ. eigenvalues --  -10.50909  -9.71022  -9.70716  -9.70263  -9.70150
 Alpha  occ. eigenvalues --   -9.69894  -9.69845  -2.13663  -2.02293  -1.79766
 Alpha  occ. eigenvalues --   -1.57015  -1.40264  -1.33699  -1.10862  -0.94428
 Alpha  occ. eigenvalues --   -0.84076  -0.79067  -0.76435  -0.75817  -0.72943
 Alpha  occ. eigenvalues --   -0.68037  -0.59247  -0.58283  -0.54696  -0.53119
 Alpha  occ. eigenvalues --   -0.52919  -0.47876  -0.45675  -0.40918  -0.38832
 Alpha  occ. eigenvalues --   -0.37571  -0.36770  -0.33868  -0.33418
 Alpha virt. eigenvalues --    0.01628   0.06902   0.07136   0.09032   0.10725
 Alpha virt. eigenvalues --    0.11039   0.12184   0.12907   0.12980   0.13850
 Alpha virt. eigenvalues --    0.14211   0.15750   0.16542   0.17361   0.18411

 Mulliken charges:
               1
     1  O   -1.030533
     2  N    6.354779
     3  O   -2.702265
     4  O   -2.675587
     5  O   -0.974990
     6  C   -0.284015
     7  F    1.122647
     8  Cl   0.116012
     9  Cl   0.073951
 Sum of Mulliken charges =   0.00000

 Dipole moment (field-independent basis, Debye):
    X=             -1.4736    Y=              1.3952    Z=              3.9285  Tot=              4.4217

 Test job not archived.
 1\1\GINC-SE102\SP\RHF\Aug-CC-pVDZ\C1Cl2F1N1O4\OHZDE\08-Apr-2025\0\\#t
 hf aug-cc-pvdz iop(5/13=1,5/36=2,99/5=2) pseudo=read geom=check guess=
 (read,tcheck) scf=(maxcycle=1)\\title\\0,1\O,0,0.94288,-1.00786,0.1572
 77\N,0,2.254053,-0.165486,0.040892\O,0,2.287651,0.835888,0.665193\O,0,
 3.003567,-0.744695,-0.66857\O,0,0.058041,-0.344849,1.022589\C,0,-1.041
 742,0.157044,0.314933\F,0,-1.760642,0.755961,1.263498\Cl,0,-2.008371,-
 1.152519,-0.421789\Cl,0,-0.580998,1.358673,-0.928755\\Version=ES64L-G1
 6RevC.01\State=1-A\HF=-1412.4062425\RMSD=6.107e-02\Dipole=-0.5797461,0

 Normal termination of Gaussian 16 at Tue Apr  8 22:54:05 2025.
