 Gaussian 16, Revision C.01,

 ----------------------------------------------------------------------
 #t hf aug-cc-pvdz symm=none int=(grid=ultrafine) guess=(read,tcheck) s
 table=opt
 ----------------------------------------------------------------------
 -----
 title
 -----
 Symbolic Z-matrix:
 Charge =  0 Multiplicity = 2

 SCF Done:  E(UHF) =  -189.232510339     A.U. after   19 cycles
 Normal termination of Gaussian 16 at Tue Apr  8 22:58:36 2025.
 Gaussian 16:  ES64L-G16RevC.01  3-Jul-2019

 ----------------------------------------------------------------------
 #t hf aug-cc-pvdz iop(5/13=1,5/36=2,99/5=2) pseudo=read geom=check gue
 ss=(read,tcheck) scf=(maxcycle=1)
 ----------------------------------------------------------------------
 -----
 title
 -----
 Structure from the checkpoint file:  "BDE49_expt_1917_mol3.chk"
 Charge =  0 Multiplicity = 2

                         Standard orientation:
 ---------------------------------------------------------------------
 Center     Atomic      Atomic             Coordinates (Angstroms)
 Number     Number       Type             X           Y           Z
 ---------------------------------------------------------------------
      1          8           0       -1.186401   -0.278559    0.000011
      2          8           0       -0.157137    0.543878   -0.000009
      3          6           0        1.096022   -0.183189   -0.000002
      4          1           0        1.874888    0.578410   -0.000025
      5          1           0        1.148634   -0.800936   -0.896938
      6          1           0        1.148648   -0.800895    0.896961
 ---------------------------------------------------------------------

 SCF Done:  E(UHF) =  -190.000607161     A.U. after    2 cycles

 The electronic state is 2-A.
 Alpha  occ. eigenvalues --  -21.14826 -21.13129 -11.42379  -2.04603  -1.37760
 Alpha  occ. eigenvalues --   -0.97984  -0.65849  -0.65139  -0.57837  -0.54138
 Alpha  occ. eigenvalues --   -0.46407  -0.33600  -0.29781
 Alpha virt. eigenvalues --    0.03590   0.05833   0.06118   0.10284   0.14347
 Alpha virt. eigenvalues --    0.14790   0.15182   0.16498   0.20696   0.22643
 Alpha virt. eigenvalues --    0.24585   0.26338   0.27339   0.29604   0.29825

  Beta  occ. eigenvalues --  -21.12377 -21.10974 -11.42447  -1.99307  -1.29323
  Beta  occ. eigenvalues --   -0.96834  -0.64789  -0.63233  -0.56639  -0.44963
  Beta  occ. eigenvalues --   -0.40530  -0.31288
  Beta virt. eigenvalues --    0.03621   0.05833   0.05906   0.10311   0.13170
  Beta virt. eigenvalues --    0.14529   0.15310   0.15712   0.16575   0.20794
  Beta virt. eigenvalues --    0.24759   0.25524   0.26427   0.29422   0.29690

 Mulliken charges and spin densities:
               1          2
     1  O   -0.197790   0.887604
     2  O   -1.062654   0.128189
     3  C   -2.560860  -0.010461
     4  H    1.184252  -0.002557
     5  H    1.318526  -0.001387
     6  H    1.318525  -0.001387
 Sum of Mulliken charges =  -0.00000   1.00000

 Dipole moment (field-independent basis, Debye):
    X=              1.2232    Y=             -0.3050    Z=             -0.0000  Tot=              1.2606
                          Isotropic Fermi Contact Couplings
        Atom                 a.u.       MegaHertz       Gauss      10(-4) cm-1
     1  O(17)              0.19533    -118.40848     -42.25109     -39.49682
     2  O(17)              0.06498     -39.39332     -14.05652     -13.14020
     3  C(13)             -0.01035     -11.63783      -4.15267      -3.88196
     4  H(1)              -0.00077      -3.43202      -1.22463      -1.14480
     5  H(1)               0.00199       8.90171       3.17635       2.96929
     6  H(1)               0.00199       8.90180       3.17638       2.96932
 --------------------------------------------------------
       Center         ----  Spin Dipole Couplings  ----

 Normal termination of Gaussian 16 at Tue Apr  8 22:58:37 2025.
