 Gaussian 16, Revision C.01,

 ----------------------------------------------------------------------
 #t hf aug-cc-pvdz symm=none int=(grid=ultrafine) guess=(read,tcheck) s
 table=(opt,rrhf)
 ----------------------------------------------------------------------
 -----
 title
 -----
 Symbolic Z-matrix:
 Charge =  0 Multiplicity = 1

 SCF Done:  E(RHF) =  -1377.44914837     A.U. after   16 cycles
 Normal termination of Gaussian 16 at Wed Apr  9 00:17:29 2025.
 Gaussian 16:  ES64L-G16RevC.01  3-Jul-2019

 ----------------------------------------------------------------------
 #t hf aug-cc-pvdz iop(5/13=1,5/36=2,99/5=2) pseudo=read geom=check gue
 ss=(read,tcheck) scf=(maxcycle=1)
 ----------------------------------------------------------------------
 -----
 title
 -----
 Structure from the checkpoint file:  "BDE49_nonexpt_248_mol1.chk"
 Charge =  0 Multiplicity = 1

                         Standard orientation:
 ---------------------------------------------------------------------
 Center     Atomic      Atomic             Coordinates (Angstroms)
 Number     Number       Type             X           Y           Z
 ---------------------------------------------------------------------
      1         17           0       -3.179103    1.505027   -0.000443
      2         17           0       -3.179103   -1.505027   -0.000437
      3          5           0       -2.256281    0.000000    0.000727
      4          6           0       -0.703373    0.000000    0.000482
      5          6           0        0.021301   -1.207526    0.000372
      6          6           0        1.409678   -1.217083    0.000168
      7          6           0        2.080038   -0.000000    0.000065
      8          6           0        0.021301    1.207526    0.000367
      9          1           0       -0.509873    2.150824    0.000445
     10          6           0        1.409678    1.217083    0.000163
     11          1           0        1.975603    2.137894    0.000077
     12          7           0        3.565808   -0.000000   -0.000160
     13          8           0        4.127941   -1.084782    0.000107
     14          8           0        4.127942    1.084782    0.000104
     15          1           0       -0.509873   -2.150824    0.000453
     16          1           0        1.975603   -2.137894    0.000086
 ---------------------------------------------------------------------

 SCF Done:  E(RHF) =  -1379.96645497     A.U. after    2 cycles

 The electronic state is 1-A.
 Alpha  occ. eigenvalues --  -99.91356 -99.91341 -21.10741 -21.10623 -16.01239
 Alpha  occ. eigenvalues --  -11.56027 -11.49368 -11.48421 -11.46422 -11.45424
 Alpha  occ. eigenvalues --  -11.41003 -10.48780 -10.48529  -9.68766  -9.68524
 Alpha  occ. eigenvalues --   -9.68212  -9.68200  -9.67998  -9.67914  -7.75820
 Alpha  occ. eigenvalues --   -2.01102  -1.70391  -1.43676  -1.37010  -1.31103
 Alpha  occ. eigenvalues --   -1.19741  -1.14063  -1.02779  -0.91897  -0.87091
 Alpha  occ. eigenvalues --   -0.81580  -0.75418  -0.69060  -0.68811  -0.67475
 Alpha  occ. eigenvalues --   -0.66859  -0.63276  -0.62296  -0.59595  -0.57277
 Alpha  occ. eigenvalues --   -0.56502  -0.53924  -0.53841  -0.51689  -0.48085
 Alpha  occ. eigenvalues --   -0.46569  -0.38736  -0.37268  -0.36822  -0.32406
 Alpha  occ. eigenvalues --   -0.32376
 Alpha virt. eigenvalues --    0.01046   0.02253   0.03728   0.04040   0.04210
 Alpha virt. eigenvalues --    0.06339   0.06711   0.07257   0.09269   0.09513
 Alpha virt. eigenvalues --    0.09729   0.09866   0.11541   0.11792   0.12903

 Mulliken charges:
               1
     1  Cl  -1.491175
     2  Cl  -1.491175
     3  B    1.346273
     4  C   -3.867435
     5  C    0.283908
     6  C   -1.673595
     7  C    3.430504
     8  C    0.283908
     9  H    1.840982
    10  C   -1.673595
    11  H    1.904765
    12  N    3.345484
    13  O   -2.992299
    14  O   -2.992298
    15  H    1.840982
    16  H    1.904765
 Sum of Mulliken charges =   0.00000

 Dipole moment (field-independent basis, Debye):
    X=             -0.7482    Y=             -0.0000    Z=              0.0015  Tot=              0.7482

 Test job not archived.
 1\1\GINC-SE038\SP\RHF\Aug-CC-pVDZ\C6H4B1Cl2N1O2\OHZDE\09-Apr-2025\0\\#
 t hf aug-cc-pvdz iop(5/13=1,5/36=2,99/5=2) pseudo=read geom=check gues
 s=(read,tcheck) scf=(maxcycle=1)\\title\\0,1\Cl,0,3.179103,-1.505027,-
 0.000443\Cl,0,3.179103,1.505027,-0.000437\B,0,2.256281,0.,0.000727\C,0
 ,0.703373,0.,0.000482\C,0,-0.021301,1.207526,0.000372\C,0,-1.409678,1.
 217083,0.000168\C,0,-2.080038,0.,0.000065\C,0,-0.021301,-1.207526,0.00
 0367\H,0,0.509873,-2.150824,0.000445\C,0,-1.409678,-1.217083,0.000163\
 H,0,-1.975603,-2.137894,0.000077\N,0,-3.565808,0.,-0.00016\O,0,-4.1279

 Normal termination of Gaussian 16 at Wed Apr  9 00:17:45 2025.
