 Gaussian 16, Revision C.01,

 ----------------------------------------------------------------------
 #t hf aug-cc-pvdz symm=none int=(grid=ultrafine) guess=(read,tcheck) s
 table=(opt,rrhf)
 ----------------------------------------------------------------------
 -----
 title
 -----
 Symbolic Z-matrix:
 Charge =  0 Multiplicity = 1

 SCF Done:  E(RHF) =  -1440.37497190     A.U. after   16 cycles
 Normal termination of Gaussian 16 at Tue Apr  8 23:28:13 2025.
 Gaussian 16:  ES64L-G16RevC.01  3-Jul-2019

 ----------------------------------------------------------------------
 #t hf aug-cc-pvdz iop(5/13=1,5/36=2,99/5=2) pseudo=read geom=check gue
 ss=(read,tcheck) scf=(maxcycle=1)
 ----------------------------------------------------------------------
 -----
 title
 -----
 Structure from the checkpoint file:  "BDE49_nonexpt_1253_mol1.chk"
 Charge =  0 Multiplicity = 1

                         Standard orientation:
 ---------------------------------------------------------------------
 Center     Atomic      Atomic             Coordinates (Angstroms)
 Number     Number       Type             X           Y           Z
 ---------------------------------------------------------------------
      1         17           0        3.398956    0.215534    0.041325
      2         15           0        1.494716    0.102946   -0.899251
      3          6           0        0.511954   -0.197078    0.696783
      4          7           0        0.695892   -1.529486    1.251842
      5          1           0        1.670470   -1.802873    1.202968
      6          1           0        0.413653   -1.560770    2.226851
      7          6           0       -0.985124   -0.011989    0.486225
      8          9           0       -1.670640   -0.197939    1.625576
      9          7           0       -1.363708    1.418894    0.003195
     10          8           0       -2.182814    1.513689   -0.883198
     11          8           0       -0.822685    2.316058    0.617780
     12          7           0       -1.538184   -0.990914   -0.566751
     13          8           0       -2.527677   -1.617296   -0.295338
     14          8           0       -0.890891   -1.020994   -1.602564
     15          1           0        1.614067   -1.261467   -1.236183
     16          1           0        0.808128    0.631590    1.352918
 ---------------------------------------------------------------------

 SCF Done:  E(RHF) =  -1443.46318117     A.U. after    2 cycles

 The electronic state is 1-A.
 Alpha  occ. eigenvalues -- -105.27000 -99.90591 -29.36692 -21.15554 -21.15351
 Alpha  occ. eigenvalues --  -21.14760 -21.13870 -16.05107 -16.04792 -15.78776
 Alpha  occ. eigenvalues --  -11.65655 -11.49197 -10.47827  -9.67757  -9.67140
 Alpha  occ. eigenvalues --   -9.67005  -2.83516  -2.06298  -2.04076  -1.75544
 Alpha  occ. eigenvalues --   -1.75119  -1.56216  -1.53027  -1.52421  -1.43027
 Alpha  occ. eigenvalues --   -1.32864  -1.24548  -1.05815  -1.03207  -0.95628
 Alpha  occ. eigenvalues --   -0.80838  -0.80333  -0.78558  -0.72185  -0.70721
 Alpha  occ. eigenvalues --   -0.67816  -0.67140  -0.65245  -0.64730  -0.61030
 Alpha  occ. eigenvalues --   -0.54687  -0.54344  -0.49818  -0.45518  -0.44986
 Alpha  occ. eigenvalues --   -0.42310  -0.41311  -0.38445  -0.36974  -0.36129
 Alpha  occ. eigenvalues --   -0.34412  -0.33790  -0.31780  -0.26988  -0.07136
 Alpha virt. eigenvalues --    0.03819   0.05606   0.05960   0.06295   0.08369
 Alpha virt. eigenvalues --    0.09225   0.09681   0.10294   0.10374   0.11514
 Alpha virt. eigenvalues --    0.12017   0.13099   0.13634   0.14446   0.15190

 Mulliken charges:
               1
     1  Cl  -1.221147
     2  P    3.037680
     3  C   -0.515606
     4  N   -2.839625
     5  H    0.733640
     6  H    0.484376
     7  C    2.265145
     8  F    0.691640
     9  N    4.345522
    10  O   -2.889897
    11  O   -3.144275
    12  N    4.135203
    13  O   -2.824661
    14  O   -3.062220
    15  H   -0.725820
    16  H    1.530045
 Sum of Mulliken charges =   0.00000

 Dipole moment (field-independent basis, Debye):
    X=             -2.6454    Y=              1.2851    Z=              0.7464  Tot=              3.0342

 Test job not archived.
 1\1\GINC-SE173\SP\RHF\Aug-CC-pVDZ\C2H4Cl1F1N3O4P1\OHZDE\08-Apr-2025\0\
 \#t hf aug-cc-pvdz iop(5/13=1,5/36=2,99/5=2) pseudo=read geom=check gu
 ess=(read,tcheck) scf=(maxcycle=1)\\title\\0,1\Cl,0,3.398956,0.215533,
 0.041325\P,0,1.494716,0.102946,-0.899251\C,0,0.511954,-0.197078,0.6967
 83\N,0,0.695892,-1.529486,1.251842\H,0,1.67047,-1.802873,1.202968\H,0,
 0.413653,-1.56077,2.226851\C,0,-0.985124,-0.011989,0.486225\F,0,-1.670
 64,-0.197939,1.625576\N,0,-1.363708,1.418894,0.003195\O,0,-2.182814,1.
 513689,-0.883198\O,0,-0.822685,2.316058,0.61778\N,0,-1.538184,-0.99091

 Normal termination of Gaussian 16 at Tue Apr  8 23:28:24 2025.
