 Gaussian 16, Revision C.01,

 ----------------------------------------------------------------------
 #t hf aug-cc-pvdz symm=none int=(grid=ultrafine) guess=(read,tcheck) s
 table=(opt,rrhf)
 ----------------------------------------------------------------------
 -----
 title
 -----
 Symbolic Z-matrix:
 Charge =  0 Multiplicity = 1

 SCF Done:  E(RHF) =  -716.711881046     A.U. after   14 cycles
 Normal termination of Gaussian 16 at Wed Apr  9 00:02:27 2025.
 Gaussian 16:  ES64L-G16RevC.01  3-Jul-2019

 ----------------------------------------------------------------------
 #t hf aug-cc-pvdz iop(5/13=1,5/36=2,99/5=2) pseudo=read geom=check gue
 ss=(read,tcheck) scf=(maxcycle=1)
 ----------------------------------------------------------------------
 -----
 title
 -----
 Structure from the checkpoint file:  "BDE49_nonexpt_2147_mol1.chk"
 Charge =  0 Multiplicity = 1

                         Standard orientation:
 ---------------------------------------------------------------------
 Center     Atomic      Atomic             Coordinates (Angstroms)
 Number     Number       Type             X           Y           Z
 ---------------------------------------------------------------------
      1         14           0        0.343001   -0.000127    0.000000
      2          7           0       -1.353266   -0.717823   -0.000002
      3          9           0        1.071819   -0.547869    1.285635
      4          9           0        0.379777    1.574812    0.000000
      5          9           0        1.071822   -0.547870   -1.285633
      6          8           0       -2.254989    0.089358   -0.000001
 ---------------------------------------------------------------------

 SCF Done:  E(RHF) =  -718.400038349     A.U. after    2 cycles

 The electronic state is 1-A.
 Alpha  occ. eigenvalues --  -76.36228 -29.33199 -29.33194 -29.33174 -21.17857
 Alpha  occ. eigenvalues --  -15.87789  -5.73359  -2.37686  -2.37506  -2.34975
 Alpha  occ. eigenvalues --   -1.88335  -1.10878  -0.96165  -0.75982  -0.75970
 Alpha  occ. eigenvalues --   -0.66285  -0.58832  -0.55865  -0.46225  -0.45883
 Alpha  occ. eigenvalues --   -0.45711  -0.43343  -0.39165  -0.38888  -0.33840
 Alpha  occ. eigenvalues --   -0.33789  -0.32304  -0.27157
 Alpha virt. eigenvalues --    0.06381   0.07254   0.07282   0.09826   0.10597
 Alpha virt. eigenvalues --    0.14722   0.17493   0.17550   0.19326   0.20516
 Alpha virt. eigenvalues --    0.22247   0.23038   0.24026   0.24388   0.25747

 Mulliken charges:
               1
     1  Si   3.304574
     2  N    0.734014
     3  F   -0.849287
     4  F   -0.917011
     5  F   -0.849288
     6  O   -1.423001
 Sum of Mulliken charges =  -0.00000

 Dipole moment (field-independent basis, Debye):
    X=              2.8015    Y=              1.6544    Z=              0.0000  Tot=              3.2535

 Test job not archived.
 1\1\GINC-SE336\SP\RHF\Aug-CC-pVDZ\F3N1O1Si1\OHZDE\09-Apr-2025\0\\#t hf
  aug-cc-pvdz iop(5/13=1,5/36=2,99/5=2) pseudo=read geom=check guess=(r
 ead,tcheck) scf=(maxcycle=1)\\title\\0,1\Si,0,0.343001,-0.000127,0.\N,
 0,-1.353266,-0.717823,-0.000002\F,0,1.071819,-0.547869,1.285635\F,0,0.
 379777,1.574812,0.\F,0,1.071822,-0.54787,-1.285633\O,0,-2.254989,0.089
 358,-0.000001\\Version=ES64L-G16RevC.01\State=1-A\HF=-718.4000383\RMSD
 =5.586e-02\Dipole=1.1021992,0.6508914,0.0000017\Quadrupole=-1.3918671,
 -0.6012675,1.9931345,-2.0710369,-0.0000048,-0.0000038\PG=C01 [X(F3N1O1

 Normal termination of Gaussian 16 at Wed Apr  9 00:02:30 2025.
