 Gaussian 16, Revision C.01,

 ----------------------------------------------------------------------
 #t hf aug-cc-pvdz symm=none int=(grid=ultrafine) guess=(read,tcheck) s
 table=(opt,rrhf)
 ----------------------------------------------------------------------
 -----
 title
 -----
 Symbolic Z-matrix:
 Charge =  0 Multiplicity = 1

 SCF Done:  E(RHF) =  -2234.20414457     A.U. after   13 cycles
 Normal termination of Gaussian 16 at Tue Apr  8 23:43:29 2025.
 Gaussian 16:  ES64L-G16RevC.01  3-Jul-2019

 ----------------------------------------------------------------------
 #t hf aug-cc-pvdz iop(5/13=1,5/36=2,99/5=2) pseudo=read geom=check gue
 ss=(read,tcheck) scf=(maxcycle=1)
 ----------------------------------------------------------------------
 -----
 title
 -----
 Structure from the checkpoint file:  "BDE49_nonexpt_1681_mol1.chk"
 Charge =  0 Multiplicity = 1

                         Standard orientation:
 ---------------------------------------------------------------------
 Center     Atomic      Atomic             Coordinates (Angstroms)
 Number     Number       Type             X           Y           Z
 ---------------------------------------------------------------------
      1         14           0       -0.670146   -0.002387   -0.005397
      2         15           0        1.599578   -0.015111   -0.141125
      3         17           0       -1.270269    1.943348   -0.293054
      4         17           0       -1.333264   -0.647794    1.824400
      5         17           0       -1.452057   -1.189695   -1.479714
      6          8           0        2.146961    0.339755   -1.456955
      7          8           0        2.092282    0.937161    1.063156
      8          1           0        2.340251    1.815446    0.745902
      9          8           0        1.909886   -1.472037    0.435228
     10          1           0        2.800134   -1.793986    0.237359
 ---------------------------------------------------------------------

 SCF Done:  E(RHF) =  -2236.20438937     A.U. after    2 cycles

 The electronic state is 1-A.
 Alpha  occ. eigenvalues -- -105.32466 -99.91994 -99.91986 -99.91899 -76.36447
 Alpha  occ. eigenvalues --  -21.13814 -21.13394 -21.04356 -10.49475 -10.49434
 Alpha  occ. eigenvalues --  -10.49326  -9.69300  -9.69294  -9.69208  -9.68781
 Alpha  occ. eigenvalues --   -9.68773  -9.68681  -9.68590  -9.68567  -9.68460
 Alpha  occ. eigenvalues --   -5.70175  -2.94572  -2.31997  -2.31945  -2.30838
 Alpha  occ. eigenvalues --   -1.99761  -1.91831  -1.80398  -1.52568  -1.41826
 Alpha  occ. eigenvalues --   -1.35180  -1.31236  -1.31174  -1.27428  -0.81042
 Alpha  occ. eigenvalues --   -0.71477  -0.63603  -0.63391  -0.62010  -0.59832
 Alpha  occ. eigenvalues --   -0.58032  -0.57855  -0.55564  -0.54796  -0.54208
 Alpha  occ. eigenvalues --   -0.52909  -0.46738  -0.43231  -0.36350  -0.36019
 Alpha  occ. eigenvalues --   -0.31062  -0.26776  -0.17832
 Alpha virt. eigenvalues --    0.03525   0.05075   0.05458   0.06220   0.06458
 Alpha virt. eigenvalues --    0.07032   0.08560   0.09084   0.10056   0.10407
 Alpha virt. eigenvalues --    0.12353   0.12877   0.13096   0.13306   0.14564

 Mulliken charges:
               1
     1  Si   2.203855
     2  P    7.082963
     3  Cl  -0.827631
     4  Cl  -0.844576
     5  Cl  -0.824543
     6  O   -2.882751
     7  O   -2.746884
     8  H    0.782278
     9  O   -2.853402
    10  H    0.910691
 Sum of Mulliken charges =  -0.00000

 Dipole moment (field-independent basis, Debye):
    X=              3.4868    Y=             -0.6356    Z=              2.2100  Tot=              4.1768

 Test job not archived.
 1\1\GINC-SE095\SP\RHF\Aug-CC-pVDZ\Cl3H2O3P1Si1\OHZDE\08-Apr-2025\0\\#t
  hf aug-cc-pvdz iop(5/13=1,5/36=2,99/5=2) pseudo=read geom=check guess
 =(read,tcheck) scf=(maxcycle=1)\\title\\0,1\Si,0,-0.670146,-0.002387,-
 0.005397\P,0,1.599578,-0.015111,-0.141125\Cl,0,-1.270269,1.943348,-0.2
 93054\Cl,0,-1.333264,-0.647794,1.8244\Cl,0,-1.452057,-1.189695,-1.4797
 14\O,0,2.146961,0.339755,-1.456955\O,0,2.092282,0.937161,1.063156\H,0,
 2.340251,1.815446,0.745902\O,0,1.909886,-1.472037,0.435228\H,0,2.80013
 4,-1.793986,0.237359\\Version=ES64L-G16RevC.01\State=1-A\HF=-2236.2043

 Normal termination of Gaussian 16 at Tue Apr  8 23:43:35 2025.
