 Gaussian 16, Revision C.01,

 ----------------------------------------------------------------------
 #t hf aug-cc-pvdz symm=none int=(grid=ultrafine) guess=(read,tcheck) s
 table=(opt,rrhf)
 ----------------------------------------------------------------------
 -----
 title
 -----
 Symbolic Z-matrix:
 Charge =  0 Multiplicity = 1

 SCF Done:  E(RHF) =  -1984.97028545     A.U. after   16 cycles
 Normal termination of Gaussian 16 at Wed Apr  9 00:50:23 2025.
 Gaussian 16:  ES64L-G16RevC.01  3-Jul-2019

 ----------------------------------------------------------------------
 #t hf aug-cc-pvdz iop(5/13=1,5/36=2,99/5=2) pseudo=read geom=check gue
 ss=(read,tcheck) scf=(maxcycle=1)
 ----------------------------------------------------------------------
 -----
 title
 -----
 Structure from the checkpoint file:  "BDE49_nonexpt_870_mol1.chk"
 Charge =  0 Multiplicity = 1

                         Standard orientation:
 ---------------------------------------------------------------------
 Center     Atomic      Atomic             Coordinates (Angstroms)
 Number     Number       Type             X           Y           Z
 ---------------------------------------------------------------------
      1          5           0        1.884307    0.118344   -0.000003
      2         17           0       -3.407443   -0.714800    0.000013
      3         17           0       -0.458960   -1.948153    0.000030
      4         16           0        2.654748   -0.100808    1.618852
      5         16           0        2.654745   -0.100859   -1.618852
      6          7           0       -2.233349    1.622914   -0.000023
      7          6           0       -2.001285    0.328006   -0.000003
      8          6           0       -0.709327   -0.221180    0.000004
      9          6           0        0.393347    0.638260   -0.000010
     10          6           0        0.126591    2.014675   -0.000031
     11          1           0        0.939111    2.731529   -0.000043
     12          6           0       -1.189335    2.455677   -0.000037
     13          1           0       -1.425042    3.514879   -0.000053
     14          1           0        3.877429   -0.497158   -1.222647
     15          1           0        3.877432   -0.497120    1.222656
 ---------------------------------------------------------------------

 SCF Done:  E(RHF) =  -1987.15742051     A.U. after    2 cycles

 The electronic state is 1-A.
 Alpha  occ. eigenvalues --  -99.91033 -99.90155 -75.71658 -75.71459 -15.76720
 Alpha  occ. eigenvalues --  -13.20072 -13.18625 -13.13083 -13.12245 -13.08798
 Alpha  occ. eigenvalues --  -13.06440 -11.52961 -11.50346 -11.47418 -11.45804
 Alpha  occ. eigenvalues --  -11.40833 -10.48417 -10.47558  -9.68474  -9.67751
 Alpha  occ. eigenvalues --   -9.67526  -9.67391  -9.66648  -9.66471  -8.05486
 Alpha  occ. eigenvalues --   -8.05467  -7.71568  -1.51538  -1.35716  -1.32456
 Alpha  occ. eigenvalues --   -1.25493  -1.17649  -1.11958  -1.10731  -0.93895
 Alpha  occ. eigenvalues --   -0.90955  -0.77743  -0.69922  -0.68268  -0.65523
 Alpha  occ. eigenvalues --   -0.63245  -0.62341  -0.56498  -0.54935  -0.54909
 Alpha  occ. eigenvalues --   -0.52397  -0.51348  -0.50708  -0.49557  -0.46360
 Alpha  occ. eigenvalues --   -0.39535  -0.38657  -0.35956  -0.35751  -0.32790
 Alpha  occ. eigenvalues --   -0.27143
 Alpha virt. eigenvalues --    0.01497   0.02527   0.03418   0.03645   0.05823
 Alpha virt. eigenvalues --    0.06885   0.07619   0.07788   0.08489   0.08679
 Alpha virt. eigenvalues --    0.09221   0.09252   0.09799   0.10382   0.11124

 Mulliken charges:
               1
     1  B    5.002080
     2  Cl  -0.177666
     3  Cl  -0.749987
     4  S   -3.216417
     5  S   -3.216422
     6  N   -3.796390
     7  C   -1.658035
     8  C    2.684859
     9  C    1.127660
    10  C   -0.223460
    11  H    1.657515
    12  C   -0.683064
    13  H    1.572614
    14  H    0.838359
    15  H    0.838355
 Sum of Mulliken charges =  -0.00000

 Dipole moment (field-independent basis, Debye):
    X=              2.7644    Y=              2.5056    Z=             -0.0000  Tot=              3.7310

 Test job not archived.
 1\1\GINC-SE366\SP\RHF\Aug-CC-pVDZ\C5H4B1Cl2N1S2\OHZDE\09-Apr-2025\0\\#
 t hf aug-cc-pvdz iop(5/13=1,5/36=2,99/5=2) pseudo=read geom=check gues
 s=(read,tcheck) scf=(maxcycle=1)\\title\\0,1\B,0,-1.884307,0.118344,0.
 000003\Cl,0,3.407443,-0.7148,-0.000013\Cl,0,0.45896,-1.948153,-0.00003
 \S,0,-2.654748,-0.100808,-1.618852\S,0,-2.654745,-0.100859,1.618852\N,
 0,2.233349,1.622914,0.000023\C,0,2.001285,0.328006,0.000003\C,0,0.7093
 27,-0.22118,-0.000004\C,0,-0.393347,0.63826,0.00001\C,0,-0.126591,2.01
 4675,0.000031\H,0,-0.939111,2.731529,0.000043\C,0,1.189335,2.455677,0.

 Normal termination of Gaussian 16 at Wed Apr  9 00:50:31 2025.
