 Gaussian 16, Revision C.01,

 ----------------------------------------------------------------------
 #t hf aug-cc-pvdz symm=none int=(grid=ultrafine) guess=(read,tcheck) s
 table=(opt,rrhf)
 ----------------------------------------------------------------------
 -----
 title
 -----
 Symbolic Z-matrix:
 Charge =  0 Multiplicity = 1

 SCF Done:  E(RHF) =  -2523.44028394     A.U. after   14 cycles
 Normal termination of Gaussian 16 at Tue Apr  8 23:11:10 2025.
 Gaussian 16:  ES64L-G16RevC.01  3-Jul-2019

 ----------------------------------------------------------------------
 #t hf aug-cc-pvdz iop(5/13=1,5/36=2,99/5=2) pseudo=read geom=check gue
 ss=(read,tcheck) scf=(maxcycle=1)
 ----------------------------------------------------------------------
 -----
 title
 -----
 Structure from the checkpoint file:  "BDE49_expt_627_mol1.chk"
 Charge =  0 Multiplicity = 1

                         Standard orientation:
 ---------------------------------------------------------------------
 Center     Atomic      Atomic             Coordinates (Angstroms)
 Number     Number       Type             X           Y           Z
 ---------------------------------------------------------------------
      1          6           0        0.709533    0.029335   -0.000231
      2          8           0        1.125404   -0.048460   -1.307856
      3          8           0        2.559173    0.022057   -1.396098
      4          1           0        2.781125   -0.922454   -1.439672
      5          6           0       -0.874710   -0.012340   -0.081620
      6         17           0        1.325172   -1.384253    0.961487
      7         17           0       -1.392185   -1.525504   -0.890402
      8         17           0       -1.583077    0.053687    1.552809
      9         17           0       -1.455007    1.381106   -1.040086
     10         17           0        1.265882    1.535653    0.802217
 ---------------------------------------------------------------------

 SCF Done:  E(RHF) =  -2525.62850734     A.U. after    2 cycles

 The electronic state is 1-A.
 Alpha  occ. eigenvalues --  -99.92731 -99.92663 -99.92568 -99.92223 -99.91820
 Alpha  occ. eigenvalues --  -21.16699 -21.15652 -11.60635 -11.56466 -10.50228
 Alpha  occ. eigenvalues --  -10.49979 -10.49871 -10.49588 -10.49202  -9.70049
 Alpha  occ. eigenvalues --   -9.69971  -9.69750  -9.69491  -9.69219  -9.69180
 Alpha  occ. eigenvalues --   -9.69143  -9.69095  -9.69073  -9.68959  -9.68908
 Alpha  occ. eigenvalues --   -9.68736  -9.68623  -9.68306  -9.68206  -2.01802
 Alpha  occ. eigenvalues --   -1.54828  -1.45720  -1.36205  -1.31939  -1.31922
 Alpha  occ. eigenvalues --   -1.31442  -1.07013  -0.90708  -0.77348  -0.76345
 Alpha  occ. eigenvalues --   -0.73600  -0.69505  -0.67103  -0.63190  -0.57653
 Alpha  occ. eigenvalues --   -0.57016  -0.56806  -0.56036  -0.54127  -0.52803
 Alpha  occ. eigenvalues --   -0.52794  -0.50996  -0.50088  -0.49449  -0.47178
 Alpha  occ. eigenvalues --   -0.38426  -0.37884
 Alpha virt. eigenvalues --   -0.00359   0.02009   0.04431   0.04509   0.05626
 Alpha virt. eigenvalues --    0.06647   0.07576   0.09437   0.09780   0.10413
 Alpha virt. eigenvalues --    0.12257   0.12749   0.13205   0.13878   0.15462

 Mulliken charges:
               1
     1  C    2.141564
     2  O   -1.969941
     3  O   -0.712565
     4  H    0.910235
     5  C   -0.856128
     6  Cl   0.066148
     7  Cl   0.108873
     8  Cl   0.081671
     9  Cl   0.140639
    10  Cl   0.089505
 Sum of Mulliken charges =   0.00000

 Dipole moment (field-independent basis, Debye):
    X=              1.5091    Y=             -0.5238    Z=             -1.8686  Tot=              2.4583

 Test job not archived.
 1\1\GINC-SE070\SP\RHF\Aug-CC-pVDZ\C2H1Cl5O2\OHZDE\08-Apr-2025\0\\#t hf
  aug-cc-pvdz iop(5/13=1,5/36=2,99/5=2) pseudo=read geom=check guess=(r
 ead,tcheck) scf=(maxcycle=1)\\title\\0,1\C,0,0.709533,0.029335,-0.0002
 31\O,0,1.125404,-0.04846,-1.307856\O,0,2.559173,0.022056,-1.396098\H,0
 ,2.781125,-0.922455,-1.439672\C,0,-0.87471,-0.01234,-0.08162\Cl,0,1.32
 5171,-1.384254,0.961487\Cl,0,-1.392186,-1.525504,-0.890402\Cl,0,-1.583
 077,0.053688,1.552809\Cl,0,-1.455007,1.381107,-1.040086\Cl,0,1.265882,
 1.535652,0.802217\\Version=ES64L-G16RevC.01\State=1-A\HF=-2525.6285073

 Normal termination of Gaussian 16 at Tue Apr  8 23:11:16 2025.
