 Gaussian 16, Revision C.01,

 ----------------------------------------------------------------------
 #t hf aug-cc-pvdz symm=none int=(grid=ultrafine) guess=(read,tcheck) s
 table=(opt,rrhf)
 ----------------------------------------------------------------------
 -----
 title
 -----
 Symbolic Z-matrix:
 Charge =  0 Multiplicity = 1

 SCF Done:  E(RHF) =  -766.898130412     A.U. after   12 cycles
 Normal termination of Gaussian 16 at Wed Apr  9 00:15:37 2025.
 Gaussian 16:  ES64L-G16RevC.01  3-Jul-2019

 ----------------------------------------------------------------------
 #t hf aug-cc-pvdz iop(5/13=1,5/36=2,99/5=2) pseudo=read geom=check gue
 ss=(read,tcheck) scf=(maxcycle=1)
 ----------------------------------------------------------------------
 -----
 title
 -----
 Structure from the checkpoint file:  "BDE49_nonexpt_2494_mol1.chk"
 Charge =  0 Multiplicity = 1

                         Standard orientation:
 ---------------------------------------------------------------------
 Center     Atomic      Atomic             Coordinates (Angstroms)
 Number     Number       Type             X           Y           Z
 ---------------------------------------------------------------------
      1         16           0       -0.860650   -0.756024   -0.000010
      2          6           0       -2.270976    0.425424   -0.000001
      3          1           0       -2.259829    1.049983    0.893689
      4          1           0       -3.180426   -0.175528   -0.000011
      5          1           0       -2.259824    1.050003   -0.893677
      6         14           0        0.800493    0.619921    0.000009
      7          6           0        2.383419   -0.383046    0.000000
      8          1           0        2.445192   -1.019969    0.886037
      9          1           0        3.250364    0.284092    0.000015
     10          1           0        2.445199   -1.019941   -0.886056
     11          1           0        0.724075    1.497276    1.195594
     12          1           0        0.724079    1.497305   -1.195555
 ---------------------------------------------------------------------

 SCF Done:  E(RHF) =  -767.713933990     A.U. after    2 cycles

 The electronic state is 1-A.
 Alpha  occ. eigenvalues --  -76.22863 -75.66392 -13.08923 -13.05769 -13.01021
 Alpha  occ. eigenvalues --  -11.39813 -11.35483  -8.00531  -5.56422  -2.19838
 Alpha  occ. eigenvalues --   -2.18459  -2.18153  -1.17352  -1.04526  -0.93084
 Alpha  occ. eigenvalues --   -0.71851  -0.58705  -0.58646  -0.56553  -0.56415
 Alpha  occ. eigenvalues --   -0.46927  -0.45769  -0.40351  -0.32047  -0.24974
 Alpha virt. eigenvalues --    0.02607   0.03687   0.04954   0.05519   0.06839
 Alpha virt. eigenvalues --    0.07742   0.07784   0.08290   0.08843   0.09291
 Alpha virt. eigenvalues --    0.10935   0.11108   0.12999   0.14074   0.15372

 Mulliken charges:
               1
     1  S   -0.898442
     2  C   -4.578006
     3  H    1.390572
     4  H    1.399212
     5  H    1.390572
     6  Si   6.179954
     7  C   -4.925829
     8  H    1.291376
     9  H    1.286517
    10  H    1.291378
    11  H   -1.913653
    12  H   -1.913651
 Sum of Mulliken charges =  -0.00000

 Dipole moment (field-independent basis, Debye):
    X=             -0.3803    Y=             -1.3451    Z=             -0.0000  Tot=              1.3978

 Test job not archived.
 1\1\GINC-SE162\SP\RHF\Aug-CC-pVDZ\C2H8S1Si1\OHZDE\09-Apr-2025\0\\#t hf
  aug-cc-pvdz iop(5/13=1,5/36=2,99/5=2) pseudo=read geom=check guess=(r
 ead,tcheck) scf=(maxcycle=1)\\title\\0,1\S,0,-0.86065,-0.756024,-0.000
 01\C,0,-2.270976,0.425424,-0.000001\H,0,-2.259829,1.049983,0.893689\H,
 0,-3.180426,-0.175528,-0.000011\H,0,-2.259824,1.050003,-0.893677\Si,0,
 0.800493,0.619921,0.000009\C,0,2.383419,-0.383046,0.\H,0,2.445192,-1.0
 19969,0.886037\H,0,3.250364,0.284092,0.000015\H,0,2.445199,-1.019941,-
 0.886056\H,0,0.724075,1.497276,1.195594\H,0,0.724079,1.497305,-1.19555

 Normal termination of Gaussian 16 at Wed Apr  9 00:15:41 2025.
