 Gaussian 16, Revision C.01,

 ----------------------------------------------------------------------
 #t hf aug-cc-pvdz symm=none int=(grid=ultrafine) guess=(read,tcheck) s
 table=(opt,rrhf)
 ----------------------------------------------------------------------
 -----
 title
 -----
 Symbolic Z-matrix:
 Charge =  0 Multiplicity = 1

 SCF Done:  E(RHF) =  -193.956259070     A.U. after   13 cycles
 Normal termination of Gaussian 16 at Tue Apr  8 23:04:54 2025.
 Gaussian 16:  ES64L-G16RevC.01  3-Jul-2019

 ----------------------------------------------------------------------
 #t hf aug-cc-pvdz iop(5/13=1,5/36=2,99/5=2) pseudo=read geom=check gue
 ss=(read,tcheck) scf=(maxcycle=1)
 ----------------------------------------------------------------------
 -----
 title
 -----
 Structure from the checkpoint file:  "BDE49_expt_31_mol1.chk"
 Charge =  0 Multiplicity = 1

                         Standard orientation:
 ---------------------------------------------------------------------
 Center     Atomic      Atomic             Coordinates (Angstroms)
 Number     Number       Type             X           Y           Z
 ---------------------------------------------------------------------
      1          6           0       -0.389563   -0.000001   -0.399400
      2          6           0        1.049265   -0.000415   -0.122531
      3          6           0        2.227001   -0.000460    0.118814
      4          1           0        3.268569    0.001192    0.327407
      5          6           0       -1.058664    1.274437    0.152623
      6          1           0       -0.963982    1.316842    1.240692
      7          1           0       -2.121987    1.281986   -0.102134
      8          1           0       -0.596298    2.171457   -0.264128
      9          6           0       -1.059388   -1.274022    0.152705
     10          1           0       -0.513226    0.000001   -1.489844
     11          1           0       -0.964727   -1.316412    1.240777
     12          1           0       -0.597537   -2.171330   -0.263992
     13          1           0       -2.122716   -1.280973   -0.102050
 ---------------------------------------------------------------------

 SCF Done:  E(RHF) =  -194.938375980     A.U. after    2 cycles

 The electronic state is 1-A.
 Alpha  occ. eigenvalues --  -11.44636 -11.40925 -11.39455 -11.38758 -11.36484
 Alpha  occ. eigenvalues --   -1.26242  -1.05787  -1.00569  -0.87908  -0.72415
 Alpha  occ. eigenvalues --   -0.64875  -0.61276  -0.56834  -0.53954  -0.49271
 Alpha  occ. eigenvalues --   -0.48661  -0.47371  -0.35806  -0.35510
 Alpha virt. eigenvalues --    0.03409   0.05090   0.05953   0.05954   0.06086
 Alpha virt. eigenvalues --    0.06723   0.06804   0.07552   0.10589   0.11607
 Alpha virt. eigenvalues --    0.12208   0.12591   0.13752   0.15084   0.15260

 Mulliken charges:
               1
     1  C   -3.513159
     2  C    5.597441
     3  C   -4.554644
     4  H    0.752806
     5  C   -3.631547
     6  H    1.338196
     7  H    1.238527
     8  H    1.200058
     9  C   -3.632034
    10  H    1.427318
    11  H    1.338363
    12  H    1.200284
    13  H    1.238390
 Sum of Mulliken charges =   0.00000

 Dipole moment (field-independent basis, Debye):
    X=             -0.5683    Y=              0.0027    Z=             -0.1442  Tot=              0.5863

 Test job not archived.
 1\1\GINC-SE177\SP\RHF\Aug-CC-pVDZ\C5H8\OHZDE\08-Apr-2025\0\\#t hf aug-
 cc-pvdz iop(5/13=1,5/36=2,99/5=2) pseudo=read geom=check guess=(read,t
 check) scf=(maxcycle=1)\\title\\0,1\C,0,-0.389563,-0.000001,-0.3994\C,
 0,1.049265,-0.000415,-0.122531\C,0,2.227001,-0.00046,0.118814\H,0,3.26
 8569,0.001193,0.327407\C,0,-1.058664,1.274437,0.152623\H,0,-0.963982,1
 .316842,1.240692\H,0,-2.121987,1.281985,-0.102134\H,0,-0.596298,2.1714
 57,-0.264128\C,0,-1.059388,-1.274022,0.152705\H,0,-0.513226,0.000001,-
 1.489844\H,0,-0.964727,-1.316412,1.240777\H,0,-0.597536,-2.17133,-0.26

 Normal termination of Gaussian 16 at Tue Apr  8 23:04:57 2025.
