 Gaussian 16, Revision C.01,

 ----------------------------------------------------------------------
 #t hf aug-cc-pvdz symm=none int=(grid=ultrafine) guess=(read,tcheck) s
 table=(opt,rrhf)
 ----------------------------------------------------------------------
 -----
 title
 -----
 Symbolic Z-matrix:
 Charge =  0 Multiplicity = 1

 SCF Done:  E(RHF) =  -563.819631491     A.U. after   14 cycles
 Normal termination of Gaussian 16 at Tue Apr  8 23:19:50 2025.
 Gaussian 16:  ES64L-G16RevC.01  3-Jul-2019

 ----------------------------------------------------------------------
 #t hf aug-cc-pvdz iop(5/13=1,5/36=2,99/5=2) pseudo=read geom=check gue
 ss=(read,tcheck) scf=(maxcycle=1)
 ----------------------------------------------------------------------
 -----
 title
 -----
 Structure from the checkpoint file:  "BDE49_nonexpt_1112_mol1.chk"
 Charge =  0 Multiplicity = 1

                         Standard orientation:
 ---------------------------------------------------------------------
 Center     Atomic      Atomic             Coordinates (Angstroms)
 Number     Number       Type             X           Y           Z
 ---------------------------------------------------------------------
      1          9           0       -1.686424    0.544336    0.203813
      2          8           0       -0.938031   -0.481714   -0.495311
      3         14           0        0.596544   -0.467020    0.196893
      4          9           0        1.404969    0.849306   -0.201671
      5          1           0        0.505766   -0.513057    1.658349
      6          1           0        1.179965   -1.637727   -0.471645
 ---------------------------------------------------------------------

 SCF Done:  E(RHF) =  -564.946196380     A.U. after    2 cycles

 The electronic state is 1-A.
 Alpha  occ. eigenvalues --  -76.30319 -29.31394 -29.29442 -21.15909  -5.65010
 Alpha  occ. eigenvalues --   -2.31121  -2.28104  -2.25835  -1.76327  -0.89472
 Alpha  occ. eigenvalues --   -0.71493  -0.62998  -0.56582  -0.54430  -0.50189
 Alpha  occ. eigenvalues --   -0.38132  -0.36087  -0.35648  -0.35389  -0.26236
 Alpha  occ. eigenvalues --   -0.24506
 Alpha virt. eigenvalues --    0.04665   0.05960   0.06852   0.07364   0.09133
 Alpha virt. eigenvalues --    0.13754   0.15361   0.16692   0.20098   0.20932
 Alpha virt. eigenvalues --    0.23059   0.25234   0.26428   0.26704   0.27510

 Mulliken charges:
               1
     1  F    0.002966
     2  O   -1.050606
     3  Si   5.486970
     4  F   -1.008451
     5  H   -1.737811
     6  H   -1.693068
 Sum of Mulliken charges =   0.00000

 Dipole moment (field-independent basis, Debye):
    X=              0.6029    Y=              2.4711    Z=              0.2400  Tot=              2.5549

 Test job not archived.
 1\1\GINC-SE071\SP\RHF\Aug-CC-pVDZ\F2H2O1Si1\OHZDE\08-Apr-2025\0\\#t hf
  aug-cc-pvdz iop(5/13=1,5/36=2,99/5=2) pseudo=read geom=check guess=(r
 ead,tcheck) scf=(maxcycle=1)\\title\\0,1\F,0,-1.686424,0.544335,0.2038
 13\O,0,-0.938031,-0.481714,-0.495311\Si,0,0.596544,-0.46702,0.196893\F
 ,0,1.404969,0.849307,-0.201671\H,0,0.505766,-0.513057,1.658349\H,0,1.1
 79966,-1.637727,-0.471645\\Version=ES64L-G16RevC.01\State=1-A\HF=-564.
 9461964\RMSD=8.012e-02\Dipole=0.2372175,0.9722158,0.094422\Quadrupole=
 2.1318259,-0.4879929,-1.6438331,0.5106926,-0.6322573,-0.7170921\PG=C01

 Normal termination of Gaussian 16 at Tue Apr  8 23:19:51 2025.
