 Gaussian 16, Revision C.01,

 ----------------------------------------------------------------------
 #t hf aug-cc-pvdz symm=none int=(grid=ultrafine) guess=(read,tcheck) s
 table=(opt,rrhf)
 ----------------------------------------------------------------------
 -----
 title
 -----
 Symbolic Z-matrix:
 Charge =  0 Multiplicity = 1

 SCF Done:  E(RHF) =  -308.271439871     A.U. after   13 cycles
 Normal termination of Gaussian 16 at Wed Apr  9 00:38:56 2025.
 Gaussian 16:  ES64L-G16RevC.01  3-Jul-2019

 ----------------------------------------------------------------------
 #t hf aug-cc-pvdz iop(5/13=1,5/36=2,99/5=2) pseudo=read geom=check gue
 ss=(read,tcheck) scf=(maxcycle=1)
 ----------------------------------------------------------------------
 -----
 title
 -----
 Structure from the checkpoint file:  "BDE49_nonexpt_601_mol1.chk"
 Charge =  0 Multiplicity = 1

                         Standard orientation:
 ---------------------------------------------------------------------
 Center     Atomic      Atomic             Coordinates (Angstroms)
 Number     Number       Type             X           Y           Z
 ---------------------------------------------------------------------
      1          6           0       -1.488724    0.287698   -0.000000
      2          5           0        1.029417   -0.030853   -0.000001
      3          8           0        1.419397    1.286705   -0.000002
      4          8           0        1.996744   -1.001479    0.000002
      5          6           0       -2.744816   -0.167151    0.000002
      6          1           0       -3.576835    0.522640    0.000002
      7          1           0       -2.971802   -1.227812    0.000002
      8          1           0        2.878923   -0.620013    0.000001
      9          1           0        0.704118    1.925746   -0.000004
     10          7           0       -0.330874   -0.476551   -0.000000
     11          1           0       -1.317671    1.361461   -0.000000
     12          1           0       -0.475590   -1.476990    0.000001
 ---------------------------------------------------------------------

 SCF Done:  E(RHF) =  -309.616030809     A.U. after    2 cycles

 The electronic state is 1-A.
 Alpha  occ. eigenvalues --  -21.06423 -21.05183 -15.72688 -11.44573 -11.36822
 Alpha  occ. eigenvalues --   -7.65526  -1.82780  -1.65972  -1.38586  -1.08810
 Alpha  occ. eigenvalues --   -0.84798  -0.78820  -0.69078  -0.64433  -0.60432
 Alpha  occ. eigenvalues --   -0.55210  -0.54149  -0.51182  -0.44092  -0.43728
 Alpha  occ. eigenvalues --   -0.39907  -0.36716  -0.29097
 Alpha virt. eigenvalues --    0.03418   0.04296   0.04529   0.05530   0.06308
 Alpha virt. eigenvalues --    0.07206   0.08059   0.08922   0.09272   0.10987
 Alpha virt. eigenvalues --    0.11192   0.13201   0.15070   0.15310   0.16072

 Mulliken charges:
               1
     1  C    1.566929
     2  B    6.529569
     3  O   -4.052829
     4  O   -4.066087
     5  C   -2.879912
     6  H    1.294673
     7  H    1.379936
     8  H    0.893078
     9  H    1.463402
    10  N   -4.859870
    11  H    1.726936
    12  H    1.004174
 Sum of Mulliken charges =  -0.00000

 Dipole moment (field-independent basis, Debye):
    X=              0.3751    Y=              0.4857    Z=             -0.0000  Tot=              0.6137

 Test job not archived.
 1\1\GINC-SE457\SP\RHF\Aug-CC-pVDZ\C2H6B1N1O2\OHZDE\09-Apr-2025\0\\#t h
 f aug-cc-pvdz iop(5/13=1,5/36=2,99/5=2) pseudo=read geom=check guess=(
 read,tcheck) scf=(maxcycle=1)\\title\\0,1\C,0,1.488724,0.287698,0.\B,0
 ,-1.029417,-0.030853,0.000001\O,0,-1.419397,1.286705,0.000002\O,0,-1.9
 96744,-1.001479,-0.000002\C,0,2.744816,-0.167151,-0.000002\H,0,3.57683
 5,0.522641,-0.000002\H,0,2.971802,-1.227812,-0.000002\H,0,-2.878923,-0
 .620013,-0.000001\H,0,-0.704118,1.925746,0.000004\N,0,0.330874,-0.4765
 51,0.\H,0,1.317671,1.361461,0.\H,0,0.47559,-1.47699,-0.000001\\Version

 Normal termination of Gaussian 16 at Wed Apr  9 00:38:59 2025.
