 Gaussian 16, Revision C.01,

 ----------------------------------------------------------------------
 #t hf aug-cc-pvdz symm=none int=(grid=ultrafine) guess=(read,tcheck) s
 table=opt
 ----------------------------------------------------------------------
 -----
 title
 -----
 Symbolic Z-matrix:
 Charge =  0 Multiplicity = 2

 SCF Done:  E(UHF) =  -534.269667854     A.U. after   17 cycles
 Normal termination of Gaussian 16 at Tue Apr  8 22:44:25 2025.
 Gaussian 16:  ES64L-G16RevC.01  3-Jul-2019

 ----------------------------------------------------------------------
 #t hf aug-cc-pvdz iop(5/13=1,5/36=2,99/5=2) pseudo=read geom=check gue
 ss=(read,tcheck) scf=(maxcycle=1)
 ----------------------------------------------------------------------
 -----
 title
 -----
 Structure from the checkpoint file:  "BDE49_expt_1476_mol3.chk"
 Charge =  0 Multiplicity = 2

                         Standard orientation:
 ---------------------------------------------------------------------
 Center     Atomic      Atomic             Coordinates (Angstroms)
 Number     Number       Type             X           Y           Z
 ---------------------------------------------------------------------
      1          8           0        0.000000    0.000000   -1.094922
      2         17           0        0.000000    0.000000    0.515257
 ---------------------------------------------------------------------

 SCF Done:  E(UHF) =  -534.760020862     A.U. after    2 cycles

 Unable to determine electronic state:  an orbital has unidentified symmetry.
 Alpha  occ. eigenvalues --  -99.96473 -21.18391 -10.53665  -9.73321  -9.72606
 Alpha  occ. eigenvalues --   -9.72231  -1.81190  -1.23650  -0.66565  -0.63491
 Alpha  occ. eigenvalues --   -0.61728  -0.45668  -0.40088
 Alpha virt. eigenvalues --    0.02903   0.11109   0.11833   0.12170   0.16092
 Alpha virt. eigenvalues --    0.19584   0.24655   0.25728   0.29112   0.29118
 Alpha virt. eigenvalues --    0.34062   0.35664   0.37383   0.60128   0.78448

  Beta  occ. eigenvalues --  -99.96422 -21.14452 -10.53612  -9.73797  -9.72207
  Beta  occ. eigenvalues --   -9.71912  -1.71227  -1.19304  -0.62916  -0.59572
  Beta  occ. eigenvalues --   -0.58672  -0.37328
  Beta virt. eigenvalues --    0.04206   0.05921   0.11127   0.11919   0.12147
  Beta virt. eigenvalues --    0.17090   0.19588   0.26027   0.28127   0.29650
  Beta virt. eigenvalues --    0.29651   0.35494   0.38281   0.43152   0.61487

 Mulliken charges and spin densities:
               1          2
     1  O   -0.791509   1.012967
     2  Cl   0.791509  -0.012967
 Sum of Mulliken charges =   0.00000   1.00000

 Dipole moment (field-independent basis, Debye):
    X=             -0.0000    Y=              0.0000    Z=             -1.1513  Tot=              1.1513
                          Isotropic Fermi Contact Couplings
        Atom                 a.u.       MegaHertz       Gauss      10(-4) cm-1
     1  O(17)              0.15456     -93.69213     -33.43168     -31.25233
     2  Cl(35)             0.04151      18.19868       6.49374       6.07042
 --------------------------------------------------------
       Center         ----  Spin Dipole Couplings  ----
                      3XX-RR        3YY-RR        3ZZ-RR
 --------------------------------------------------------
     1   Atom       -0.668007      1.710376     -1.042369
     2   Atom        0.018834      0.619012     -0.637846

 Normal termination of Gaussian 16 at Tue Apr  8 22:44:27 2025.
