 Gaussian 16, Revision C.01,

 ----------------------------------------------------------------------
 #t hf aug-cc-pvdz symm=none int=(grid=ultrafine) guess=(read,tcheck) s
 table=(opt,rrhf)
 ----------------------------------------------------------------------
 -----
 title
 -----
 Symbolic Z-matrix:
 Charge =  0 Multiplicity = 1

 SCF Done:  E(RHF) =  -2672.38130553     A.U. after   14 cycles
 Normal termination of Gaussian 16 at Wed Apr  9 00:49:23 2025.
 Gaussian 16:  ES64L-G16RevC.01  3-Jul-2019

 ----------------------------------------------------------------------
 #t hf aug-cc-pvdz iop(5/13=1,5/36=2,99/5=2) pseudo=read geom=check gue
 ss=(read,tcheck) scf=(maxcycle=1)
 ----------------------------------------------------------------------
 -----
 title
 -----
 Structure from the checkpoint file:  "BDE49_nonexpt_874_mol1.chk"
 Charge =  0 Multiplicity = 1

                         Standard orientation:
 ---------------------------------------------------------------------
 Center     Atomic      Atomic             Coordinates (Angstroms)
 Number     Number       Type             X           Y           Z
 ---------------------------------------------------------------------
      1         16           0       -0.951168   -0.999487    0.806490
      2          5           0       -2.214309    0.101444    0.041215
      3         16           0       -3.778875   -0.713273   -0.400134
      4         16           0       -2.088069    1.867328   -0.281290
      5         16           0        0.710278    0.183431    1.258023
      6          6           0        1.751948    0.015490   -0.248233
      7          9           0        1.121630    0.493115   -1.339972
      8         17           0        2.254079   -1.661199   -0.607928
      9         17           0        3.185249    1.043749    0.081032
     10          1           0       -0.830210    2.008990    0.181603
     11          1           0       -3.447812   -1.958516   -0.010731
 ---------------------------------------------------------------------

 SCF Done:  E(RHF) =  -2674.39476838     A.U. after    2 cycles

 The electronic state is 1-A.
 Alpha  occ. eigenvalues --  -99.93294 -99.92748 -75.75825 -75.73715 -75.71178
 Alpha  occ. eigenvalues --  -75.70799 -29.33292 -13.19344 -13.18479 -13.18271
 Alpha  occ. eigenvalues --  -13.16282 -13.15256 -13.13521 -13.13059 -13.11415
 Alpha  occ. eigenvalues --  -13.09093 -13.08463 -13.06187 -13.04751 -11.59245
 Alpha  occ. eigenvalues --  -10.50682 -10.50120  -9.70510  -9.69965  -9.69697
 Alpha  occ. eigenvalues --   -9.69646  -9.69151  -9.69123  -8.09737  -8.07668
 Alpha  occ. eigenvalues --   -8.05243  -8.04600  -7.69857  -1.47211  -1.32541
 Alpha  occ. eigenvalues --   -1.28915  -1.20945  -1.12101  -1.11409  -1.01185
 Alpha  occ. eigenvalues --   -0.79483  -0.73515  -0.69954  -0.66749  -0.57600
 Alpha  occ. eigenvalues --   -0.56842  -0.55314  -0.52367  -0.50898  -0.49792
 Alpha  occ. eigenvalues --   -0.45828  -0.44252  -0.39351  -0.36169  -0.34732
 Alpha  occ. eigenvalues --   -0.33856  -0.32066  -0.28793  -0.26189  -0.25120
 Alpha virt. eigenvalues --    0.01242   0.01752   0.02425   0.02938   0.04360
 Alpha virt. eigenvalues --    0.06760   0.07967   0.08589   0.09295   0.09691
 Alpha virt. eigenvalues --    0.09962   0.10392   0.10936   0.11814   0.13009

 Mulliken charges:
               1
     1  S   -1.452778
     2  B    4.519905
     3  S   -2.462756
     4  S   -2.315098
     5  S    0.084421
     6  C   -1.090658
     7  F    0.604643
     8  Cl  -0.021212
     9  Cl   0.118682
    10  H    1.080953
    11  H    0.933898
 Sum of Mulliken charges =  -0.00000

 Dipole moment (field-independent basis, Debye):
    X=             -6.2109    Y=              2.5090    Z=             -2.4827  Tot=              7.1438

 Test job not archived.
 1\1\GINC-SE457\SP\RHF\Aug-CC-pVDZ\C1H2B1Cl2F1S4\OHZDE\09-Apr-2025\0\\#
 t hf aug-cc-pvdz iop(5/13=1,5/36=2,99/5=2) pseudo=read geom=check gues
 s=(read,tcheck) scf=(maxcycle=1)\\title\\0,1\S,0,-0.951168,-0.999487,0
 .80649\B,0,-2.214309,0.101444,0.041215\S,0,-3.778875,-0.713273,-0.4001
 34\S,0,-2.088069,1.867328,-0.28129\S,0,0.710278,0.183431,1.258023\C,0,
 1.751948,0.01549,-0.248233\F,0,1.12163,0.493115,-1.339972\Cl,0,2.25407
 9,-1.661199,-0.607928\Cl,0,3.185249,1.043749,0.081032\H,0,-0.83021,2.0
 0899,0.181603\H,0,-3.447812,-1.958516,-0.010731\\Version=ES64L-G16RevC

 Normal termination of Gaussian 16 at Wed Apr  9 00:49:30 2025.
