 Gaussian 16, Revision C.01,

 ----------------------------------------------------------------------
 #t hf aug-cc-pvdz symm=none int=(grid=ultrafine) guess=(read,tcheck) s
 table=(opt,rrhf)
 ----------------------------------------------------------------------
 -----
 title
 -----
 Symbolic Z-matrix:
 Charge =  0 Multiplicity = 1

 SCF Done:  E(RHF) =  -2112.62822373     A.U. after   13 cycles

 1\1\GINC-SE118\Stability\RHF\Aug-CC-pVDZ\C2Cl4F2\OHZDE\08-Apr-2025\0\\
 #t hf aug-cc-pvdz symm=none int=(grid=ultrafine) guess=(read,tcheck) s
 table=(opt,rrhf)\\title\\0,1\C,0,0.560351,-0.132981,-0.000004\C,0,-0.8
 19821,0.624933,-0.000005\Cl,0,0.693086,-1.140334,1.46462\Cl,0,1.859757
 ,1.098426,0.000022\Cl,0,0.693112,-1.140298,-1.464649\F,0,-0.887666,1.4
 08347,1.084963\Cl,0,-2.214485,-0.482594,0.00003\F,0,-0.887687,1.408307
 ,-1.085\\Version=ES64L-G16RevC.01\HF=-2112.6282237\RMSD=2.277e-09\Dipo
 le=0.0700734,-0.2625161,0.0000029\Quadrupole=0.4269131,-0.210586,-0.21

 Normal termination of Gaussian 16 at Tue Apr  8 22:30:49 2025.
 Gaussian 16:  ES64L-G16RevC.01  3-Jul-2019

 ----------------------------------------------------------------------
 #t hf aug-cc-pvdz iop(5/13=1,5/36=2,99/5=2) pseudo=read geom=check gue
 ss=(read,tcheck) scf=(maxcycle=1)
 ----------------------------------------------------------------------
 -----
 title
 -----
 Structure from the checkpoint file:  "BDE49_expt_1012_mol1.chk"
 Charge =  0 Multiplicity = 1

                         Standard orientation:
 ---------------------------------------------------------------------
 Center     Atomic      Atomic             Coordinates (Angstroms)
 Number     Number       Type             X           Y           Z
 ---------------------------------------------------------------------
      1          6           0       -0.560351   -0.132981    0.000004
      2          6           0        0.819821    0.624933    0.000005
      3         17           0       -0.693086   -1.140334   -1.464620
      4         17           0       -1.859757    1.098426   -0.000022
      5         17           0       -0.693112   -1.140298    1.464649
      6          9           0        0.887666    1.408347   -1.084963
      7         17           0        2.214485   -0.482594   -0.000030
      8          9           0        0.887687    1.408307    1.085000
 ---------------------------------------------------------------------

 SCF Done:  E(RHF) =  -2114.62958038     A.U. after    2 cycles

 The electronic state is 1-A.
 Alpha  occ. eigenvalues --  -99.93552 -99.93544 -99.93326 -99.93010 -29.33604
 Alpha  occ. eigenvalues --  -29.33556 -11.62752 -11.57589 -10.51062 -10.50832
 Alpha  occ. eigenvalues --  -10.50648 -10.50520  -9.70879  -9.70794  -9.70537
 Alpha  occ. eigenvalues --   -9.70345  -9.70011  -9.69976  -9.69950  -9.69880
 Alpha  occ. eigenvalues --   -9.69716  -9.69640  -9.69472  -9.69418  -1.52643
 Alpha  occ. eigenvalues --   -1.41216  -1.32966  -1.32903  -1.24574  -1.01277
 Alpha  occ. eigenvalues --   -0.91009  -0.81182  -0.78702  -0.70947  -0.69797
 Alpha  occ. eigenvalues --   -0.58818  -0.58054  -0.57096  -0.55207  -0.54656
 Alpha  occ. eigenvalues --   -0.53070  -0.52404  -0.51877  -0.47727  -0.42685
 Alpha  occ. eigenvalues --   -0.37720  -0.34358  -0.33491  -0.25898
 Alpha virt. eigenvalues --   -0.00181   0.03750   0.05864   0.06029   0.06626
 Alpha virt. eigenvalues --    0.08730   0.10125   0.10318   0.11578   0.13445
 Alpha virt. eigenvalues --    0.13543   0.14798   0.14972   0.15767   0.16114

 Mulliken charges:
               1
     1  C   -1.868781
     2  C    0.349833
     3  Cl   0.181353
     4  Cl   0.256265
     5  Cl   0.181345
     6  F    0.642936
     7  Cl  -0.385876
     8  F    0.642925
 Sum of Mulliken charges =   0.00000

 Dipole moment (field-independent basis, Debye):
    X=              0.2560    Y=              4.7724    Z=              0.0001  Tot=              4.7793

 Test job not archived.
 1\1\GINC-SE118\SP\RHF\Aug-CC-pVDZ\C2Cl4F2\OHZDE\08-Apr-2025\0\\#t hf a
 ug-cc-pvdz iop(5/13=1,5/36=2,99/5=2) pseudo=read geom=check guess=(rea
 d,tcheck) scf=(maxcycle=1)\\title\\0,1\C,0,0.560351,-0.132981,-0.00000
 4\C,0,-0.819821,0.624933,-0.000005\Cl,0,0.693086,-1.140334,1.46462\Cl,
 0,1.859757,1.098426,0.000022\Cl,0,0.693112,-1.140298,-1.464649\F,0,-0.
 887666,1.408347,1.084963\Cl,0,-2.214485,-0.482594,0.00003\F,0,-0.88768
 7,1.408307,-1.085\\Version=ES64L-G16RevC.01\State=1-A\HF=-2114.6295804
 \RMSD=1.283e-01\Dipole=-0.1007162,1.8776077,-0.0000319\Quadrupole=-4.2

 Normal termination of Gaussian 16 at Tue Apr  8 22:30:54 2025.
