 Gaussian 16, Revision C.01,

 ----------------------------------------------------------------------
 #t hf aug-cc-pvdz symm=none int=(grid=ultrafine) guess=(read,tcheck) s
 table=(opt,rrhf)
 ----------------------------------------------------------------------
 -----
 title
 -----
 Symbolic Z-matrix:
 Charge =  0 Multiplicity = 1

 SCF Done:  E(RHF) =  -1724.68808976     A.U. after   14 cycles
 Normal termination of Gaussian 16 at Wed Apr  9 00:10:51 2025.
 Gaussian 16:  ES64L-G16RevC.01  3-Jul-2019

 ----------------------------------------------------------------------
 #t hf aug-cc-pvdz iop(5/13=1,5/36=2,99/5=2) pseudo=read geom=check gue
 ss=(read,tcheck) scf=(maxcycle=1)
 ----------------------------------------------------------------------
 -----
 title
 -----
 Structure from the checkpoint file:  "BDE49_nonexpt_2350_mol1.chk"
 Charge =  0 Multiplicity = 1

                         Standard orientation:
 ---------------------------------------------------------------------
 Center     Atomic      Atomic             Coordinates (Angstroms)
 Number     Number       Type             X           Y           Z
 ---------------------------------------------------------------------
      1         14           0        0.805115   -0.865012    1.175694
      2         14           0       -0.805117    0.864974    1.175721
      3          6           0        1.881248   -0.729158   -0.412101
      4          8           0        1.995393   -1.476119   -1.311922
      5          1           0        0.193222   -2.207257    1.192795
      6          1           0        1.720438   -0.663309    2.317471
      7         17           0        2.827317    0.896963   -0.411894
      8          6           0       -1.881243    0.729174   -0.412083
      9          1           0       -0.193226    2.207220    1.192867
     10          1           0       -1.720445    0.663234    2.317486
     11          8           0       -1.995379    1.476154   -1.311889
     12         17           0       -2.827323   -0.896947   -0.411920
 ---------------------------------------------------------------------

 SCF Done:  E(RHF) =  -1726.40898803     A.U. after    2 cycles

 The electronic state is 1-A.
 Alpha  occ. eigenvalues --  -99.89990 -99.89989 -76.27647 -76.27616 -21.13566
 Alpha  occ. eigenvalues --  -21.13553 -11.54550 -11.54335 -10.47175 -10.47174
 Alpha  occ. eigenvalues --   -9.67042  -9.67015  -9.66486  -9.66475  -9.66392
 Alpha  occ. eigenvalues --   -9.66386  -5.61197  -5.61196  -2.24608  -2.24530
 Alpha  occ. eigenvalues --   -2.23557  -2.23457  -2.22933  -2.21857  -1.78034
 Alpha  occ. eigenvalues --   -1.77984  -1.30930  -1.30686  -0.93746  -0.90188
 Alpha  occ. eigenvalues --   -0.78010  -0.73774  -0.64021  -0.62682  -0.59892
 Alpha  occ. eigenvalues --   -0.59399  -0.58857  -0.58164  -0.52527  -0.51704
 Alpha  occ. eigenvalues --   -0.49991  -0.49484  -0.47872  -0.47523  -0.41662
 Alpha  occ. eigenvalues --   -0.35282  -0.34286
 Alpha virt. eigenvalues --    0.02740   0.03304   0.04019   0.05220   0.05899
 Alpha virt. eigenvalues --    0.06525   0.06661   0.06769   0.07352   0.07713
 Alpha virt. eigenvalues --    0.08258   0.08686   0.09080   0.09277   0.10974

 Mulliken charges:
               1
     1  Si   4.847377
     2  Si   4.847384
     3  C    0.716413
     4  O   -2.029514
     5  H   -1.709672
     6  H   -1.774614
     7  Cl  -0.049986
     8  C    0.716411
     9  H   -1.709673
    10  H   -1.774621
    11  O   -2.029512
    12  Cl  -0.049991
 Sum of Mulliken charges =  -0.00000

 Dipole moment (field-independent basis, Debye):
    X=              0.0001    Y=              0.0000    Z=              1.0483  Tot=              1.0483

 Test job not archived.
 1\1\GINC-SE343\SP\RHF\Aug-CC-pVDZ\C2H4Cl2O2Si2\OHZDE\09-Apr-2025\0\\#t
  hf aug-cc-pvdz iop(5/13=1,5/36=2,99/5=2) pseudo=read geom=check guess
 =(read,tcheck) scf=(maxcycle=1)\\title\\0,1\Si,0,-0.805115,0.865012,1.
 175694\Si,0,0.805117,-0.864974,1.175721\C,0,-1.881248,0.729158,-0.4121
 01\O,0,-1.995393,1.476119,-1.311922\H,0,-0.193222,2.207257,1.192795\H,
 0,-1.720438,0.663309,2.317471\Cl,0,-2.827317,-0.896963,-0.411894\C,0,1
 .881243,-0.729174,-0.412083\H,0,0.193226,-2.20722,1.192867\H,0,1.72044
 5,-0.663234,2.317486\O,0,1.995379,-1.476154,-1.311889\Cl,0,2.827323,0.

 Normal termination of Gaussian 16 at Wed Apr  9 00:10:57 2025.
