 Gaussian 16, Revision C.01,

 ----------------------------------------------------------------------
 #t hf aug-cc-pvdz symm=none int=(grid=ultrafine) guess=(read,tcheck) s
 table=(opt,rrhf)
 ----------------------------------------------------------------------
 -----
 title
 -----
 Symbolic Z-matrix:
 Charge =  0 Multiplicity = 1

 SCF Done:  E(RHF) =  -670.593967335     A.U. after   15 cycles
 Normal termination of Gaussian 16 at Wed Apr  9 00:05:27 2025.
 Gaussian 16:  ES64L-G16RevC.01  3-Jul-2019

 ----------------------------------------------------------------------
 #t hf aug-cc-pvdz iop(5/13=1,5/36=2,99/5=2) pseudo=read geom=check gue
 ss=(read,tcheck) scf=(maxcycle=1)
 ----------------------------------------------------------------------
 -----
 title
 -----
 Structure from the checkpoint file:  "BDE49_nonexpt_2192_mol1.chk"
 Charge =  0 Multiplicity = 1

                         Standard orientation:
 ---------------------------------------------------------------------
 Center     Atomic      Atomic             Coordinates (Angstroms)
 Number     Number       Type             X           Y           Z
 ---------------------------------------------------------------------
      1          6           0        2.788719    0.229224    0.049503
      2          6           0        1.795026    1.207232    0.022153
      3          6           0        0.453366    0.843819   -0.027351
      4          6           0        2.434154   -1.115635    0.026149
      5          6           0        1.089926   -1.480713   -0.021516
      6          6           0        0.090590   -0.512195   -0.047092
      7          1           0        3.198080   -1.883601    0.045930
      8          1           0        0.786950   -2.520520   -0.039282
      9          8           0       -1.208675   -0.913819   -0.099688
     10         14           0       -2.698910   -0.187743    0.059449
     11          1           0        3.830422    0.524255    0.087449
     12          1           0        2.060086    2.260644    0.036135
     13          8           0       -0.577198    1.748551   -0.062767
     14          1           0       -0.232068    2.643847    0.006880
     15          1           0       -3.027337    0.693071   -1.078899
     16          1           0       -2.830819    0.541978    1.337679
     17          1           0       -3.624273   -1.339522    0.060386
 ---------------------------------------------------------------------

 SCF Done:  E(RHF) =  -672.462477743     A.U. after    2 cycles

 The electronic state is 1-A.
 Alpha  occ. eigenvalues --  -76.23753 -21.11364 -21.06308 -11.53863 -11.45933
 Alpha  occ. eigenvalues --  -11.45495 -11.41873 -11.40903 -11.36965  -5.57124
 Alpha  occ. eigenvalues --   -2.23786  -2.19001  -2.18676  -1.78341  -1.71811
 Alpha  occ. eigenvalues --   -1.30667  -1.08903  -1.06573  -0.88578  -0.85582
 Alpha  occ. eigenvalues --   -0.75850  -0.70726  -0.65498  -0.63673  -0.58209
 Alpha  occ. eigenvalues --   -0.57673  -0.57208  -0.50959  -0.49178  -0.48440
 Alpha  occ. eigenvalues --   -0.47148  -0.44614  -0.42514  -0.42243  -0.37241
 Alpha  occ. eigenvalues --   -0.30964  -0.25939
 Alpha virt. eigenvalues --    0.03254   0.04571   0.04798   0.05667   0.06271
 Alpha virt. eigenvalues --    0.07038   0.07096   0.07649   0.08263   0.09328
 Alpha virt. eigenvalues --    0.11141   0.11197   0.12784   0.13040   0.13167

 Mulliken charges:
               1
     1  C   -1.288909
     2  C   -3.165136
     3  C    3.726524
     4  C   -0.522650
     5  C   -3.040458
     6  C    5.061913
     7  H    1.548130
     8  H    1.851173
     9  O   -5.325042
    10  Si   6.561450
    11  H    1.509526
    12  H    1.728729
    13  O   -4.490297
    14  H    1.096193
    15  H   -1.704466
    16  H   -1.733173
    17  H   -1.813506
 Sum of Mulliken charges =  -0.00000

 Dipole moment (field-independent basis, Debye):
    X=              0.8223    Y=              1.1232    Z=             -0.0041  Tot=              1.3920

 Test job not archived.
 1\1\GINC-SE334\SP\RHF\Aug-CC-pVDZ\C6H8O2Si1\OHZDE\09-Apr-2025\0\\#t hf
  aug-cc-pvdz iop(5/13=1,5/36=2,99/5=2) pseudo=read geom=check guess=(r
 ead,tcheck) scf=(maxcycle=1)\\title\\0,1\C,0,2.788719,0.229224,0.04950
 3\C,0,1.795026,1.207232,0.022153\C,0,0.453366,0.843819,-0.027351\C,0,2
 .434154,-1.115635,0.026149\C,0,1.089926,-1.480713,-0.021516\C,0,0.0905
 9,-0.512195,-0.047092\H,0,3.19808,-1.883602,0.04593\H,0,0.78695,-2.520
 52,-0.039282\O,0,-1.208675,-0.913819,-0.099688\Si,0,-2.69891,-0.187743
 ,0.059449\H,0,3.830422,0.524254,0.087449\H,0,2.060086,2.260644,0.03613

 Normal termination of Gaussian 16 at Wed Apr  9 00:05:35 2025.
