 Gaussian 16, Revision C.01,

 ----------------------------------------------------------------------
 #t hf aug-cc-pvdz symm=none int=(grid=ultrafine) guess=(read,tcheck) s
 table=(opt,rrhf)
 ----------------------------------------------------------------------
 -----
 title
 -----
 Symbolic Z-matrix:
 Charge =  0 Multiplicity = 1

 SCF Done:  E(RHF) =  -857.605121623     A.U. after   11 cycles

 1\1\GINC-SE460\Stability\RHF\Aug-CC-pVDZ\Cl1H1S1\OHZDE\09-Apr-2025\0\\
 #t hf aug-cc-pvdz symm=none int=(grid=ultrafine) guess=(read,tcheck) s
 table=(opt,rrhf)\\title\\0,1\S,0,0.039387,1.034531,0.\Cl,0,0.039387,-1
 .0422,0.\H,0,-1.299773,1.164902,0.\\Version=ES64L-G16RevC.01\HF=-857.6
 051216\RMSD=8.566e-09\Dipole=-0.387951,0.4382025,0.\Quadrupole=0.88642
 61,1.1479337,-2.0343598,-1.1641096,0.,0.\PG=Unknown\\@
 The archive entry for this job was punched.

 Normal termination of Gaussian 16 at Wed Apr  9 00:19:33 2025.
 Gaussian 16:  ES64L-G16RevC.01  3-Jul-2019

 ----------------------------------------------------------------------
 #t hf aug-cc-pvdz iop(5/13=1,5/36=2,99/5=2) pseudo=read geom=check gue
 ss=(read,tcheck) scf=(maxcycle=1)
 ----------------------------------------------------------------------
 -----
 title
 -----
 Structure from the checkpoint file:  "BDE49_nonexpt_2592_mol1.chk"
 Charge =  0 Multiplicity = 1

                         Standard orientation:
 ---------------------------------------------------------------------
 Center     Atomic      Atomic             Coordinates (Angstroms)
 Number     Number       Type             X           Y           Z
 ---------------------------------------------------------------------
      1         16           0        0.039387    1.034531    0.000000
      2         17           0        0.039387   -1.042200    0.000000
      3          1           0       -1.299773    1.164902    0.000000
 ---------------------------------------------------------------------

 SCF Done:  E(RHF) =  -858.070356429     A.U. after    2 cycles

 The electronic state is 1-A'.
 Alpha  occ. eigenvalues --  -99.91711 -75.75741 -13.15439 -13.09407 -13.06341
 Alpha  occ. eigenvalues --  -10.48813  -9.68482  -9.67826  -9.67798  -8.09328
 Alpha  occ. eigenvalues --   -1.34492  -1.08246  -0.61238  -0.56007  -0.55834
 Alpha  occ. eigenvalues --   -0.45891  -0.27340
 Alpha virt. eigenvalues --    0.01226   0.04411   0.09553   0.12262   0.12384
 Alpha virt. eigenvalues --    0.12884   0.15959   0.17192   0.18040   0.19499
 Alpha virt. eigenvalues --    0.24733   0.24759   0.26382   0.27211   0.34066

 Mulliken charges:
               1
     1  S   -0.690055
     2  Cl  -0.424903
     3  H    1.114957
 Sum of Mulliken charges =  -0.00000

 Dipole moment (field-independent basis, Debye):
    X=              0.7242    Y=              3.2110    Z=              0.0000  Tot=              3.2917

 Test job not archived.
 1\1\GINC-SE460\SP\RHF\Aug-CC-pVDZ\Cl1H1S1\OHZDE\09-Apr-2025\0\\#t hf a
 ug-cc-pvdz iop(5/13=1,5/36=2,99/5=2) pseudo=read geom=check guess=(rea
 d,tcheck) scf=(maxcycle=1)\\title\\0,1\S,0,0.039387,1.034531,0.\Cl,0,0
 .039387,-1.0422,0.\H,0,-1.299773,1.164902,0.\\Version=ES64L-G16RevC.01
 \State=1-A'\HF=-858.0703564\RMSD=6.577e-02\Dipole=0.2849254,1.2633234,
 0.\Quadrupole=0.1697167,3.0872745,-3.2569912,0.2673846,0.,0.\PG=CS [SG
 (Cl1H1S1)]\\@

 Normal termination of Gaussian 16 at Wed Apr  9 00:19:35 2025.
