 Gaussian 16, Revision C.01,

 ----------------------------------------------------------------------
 #t hf aug-cc-pvdz symm=none int=(grid=ultrafine) guess=(read,tcheck) s
 table=opt
 ----------------------------------------------------------------------
 -----
 title
 -----
 Symbolic Z-matrix:
 Charge =  0 Multiplicity = 2

 SCF Done:  E(UHF) =  -596.635432329     A.U. after   16 cycles
 Normal termination of Gaussian 16 at Wed Apr  9 00:04:33 2025.
 Gaussian 16:  ES64L-G16RevC.01  3-Jul-2019

 ----------------------------------------------------------------------
 #t hf aug-cc-pvdz iop(5/13=1,5/36=2,99/5=2) pseudo=read geom=check gue
 ss=(read,tcheck) scf=(maxcycle=1)
 ----------------------------------------------------------------------
 -----
 title
 -----
 Structure from the checkpoint file:  "BDE49_nonexpt_2176_mol2.chk"
 Charge =  0 Multiplicity = 2

                         Standard orientation:
 ---------------------------------------------------------------------
 Center     Atomic      Atomic             Coordinates (Angstroms)
 Number     Number       Type             X           Y           Z
 ---------------------------------------------------------------------
      1         14           0       -0.847967   -0.605610   -0.203120
      2          8           0       -1.128365   -0.732342    1.424028
      3          6           0        0.567020    0.669688   -0.341714
      4          6           0        1.881855    0.178741    0.294159
      5          6           0        2.516282   -1.022168   -0.414018
      6          1           0        1.703479   -0.064302    1.347515
      7          1           0        2.596663    1.012117    0.293220
      8          1           0        1.849656   -1.890163   -0.409013
      9          1           0        3.450387   -1.318253    0.070951
     10          1           0        2.742989   -0.789050   -1.459332
     11          6           0        0.094912    2.006859    0.264728
     12          1           0        0.737317    0.813566   -1.417877
     13          1           0       -0.094588    1.901934    1.335857
     14          1           0       -0.828272    2.356752   -0.203484
     15          1           0        0.858970    2.780805    0.129446
     16          1           0       -1.969743   -1.101199    1.705228
     17          8           0       -2.261026   -0.017882   -0.870543
     18          1           0       -2.420596   -0.220595   -1.795635
 ---------------------------------------------------------------------

 SCF Done:  E(UHF) =  -598.215484547     A.U. after    2 cycles

 The electronic state is 2-A.
 Alpha  occ. eigenvalues --  -76.23872 -21.07555 -21.07093 -11.41305 -11.39010
 Alpha  occ. eigenvalues --  -11.36587 -11.33875  -5.58011  -2.25185  -2.22896
 Alpha  occ. eigenvalues --   -2.19859  -1.68025  -1.63608  -1.23257  -1.07028
 Alpha  occ. eigenvalues --   -0.91370  -0.82708  -0.70919  -0.63008  -0.59891
 Alpha  occ. eigenvalues --   -0.58419  -0.57772  -0.55922  -0.52329  -0.49872
 Alpha  occ. eigenvalues --   -0.48421  -0.45778  -0.43687  -0.42301  -0.40110
 Alpha  occ. eigenvalues --   -0.39569  -0.35737  -0.23612
 Alpha virt. eigenvalues --    0.04035   0.04969   0.05234   0.05908   0.06019
 Alpha virt. eigenvalues --    0.06161   0.06523   0.07053   0.07429   0.08538
 Alpha virt. eigenvalues --    0.08882   0.09024   0.09327   0.09898   0.13533

  Beta  occ. eigenvalues --  -76.23396 -21.07196 -21.06769 -11.41214 -11.38876
  Beta  occ. eigenvalues --  -11.36544 -11.33742  -5.57229  -2.24696  -2.22448
  Beta  occ. eigenvalues --   -2.16944  -1.67165  -1.62853  -1.22873  -1.06776
  Beta  occ. eigenvalues --   -0.91129  -0.81864  -0.69235  -0.62736  -0.59719
  Beta  occ. eigenvalues --   -0.58193  -0.57333  -0.55583  -0.50520  -0.48384
  Beta  occ. eigenvalues --   -0.47464  -0.45482  -0.43151  -0.41920  -0.38722
  Beta  occ. eigenvalues --   -0.38056  -0.34256
  Beta virt. eigenvalues --    0.03440   0.05034   0.05315   0.05857   0.06003
  Beta virt. eigenvalues --    0.06129   0.06534   0.07036   0.07448   0.08292
  Beta virt. eigenvalues --    0.08587   0.08956   0.09346   0.09812   0.10238

 Mulliken charges and spin densities:
               1          2
     1  Si   4.438943   1.250565
     2  O   -2.974954   0.020832
     3  C   -2.502631  -0.052462
     4  C   -3.057456   0.096624
     5  C   -3.765415   0.029772
     6  H    1.423192  -0.007155
     7  H    1.404651   0.002138
     8  H    1.436611  -0.052053
     9  H    1.101522   0.002603
    10  H    1.259982   0.009109
    11  C   -3.972479  -0.092087
    12  H    1.859641  -0.080300
    13  H    1.390105  -0.011982
    14  H    1.220962  -0.007141
    15  H    1.235422   0.007254
    16  H    1.092650   0.010307
    17  O   -2.626896  -0.106062
    18  H    1.036149  -0.019962
 Sum of Mulliken charges =  -0.00000   1.00000

 Dipole moment (field-independent basis, Debye):
    X=             -0.3508    Y=              0.0628    Z=             -0.3176  Tot=              0.4774
                          Isotropic Fermi Contact Couplings
        Atom                 a.u.       MegaHertz       Gauss      10(-4) cm-1
     1  Si(29)             0.46442    -412.74530    -147.27779    -137.67701
     2  O(17)              0.02985     -18.09222      -6.45575      -6.03491
     3  C(13)              0.05407      60.78790      21.69063      20.27666
     4  C(13)             -0.00443      -4.98518      -1.77884      -1.66288
     5  C(13)              0.00251       2.81936       1.00602       0.94044
     6  H(1)               0.00019       0.83157       0.29672       0.27738
     7  H(1)               0.00123       5.47670       1.95422       1.82683
     8  H(1)               0.00043       1.92321       0.68625       0.64152

 Normal termination of Gaussian 16 at Wed Apr  9 00:04:41 2025.
