 Gaussian 16, Revision C.01,

 ----------------------------------------------------------------------
 #t hf aug-cc-pvdz symm=none int=(grid=ultrafine) guess=(read,tcheck) s
 table=(opt,rrhf)
 ----------------------------------------------------------------------
 -----
 title
 -----
 Symbolic Z-matrix:
 Charge =  0 Multiplicity = 1

 SCF Done:  E(RHF) =  -1982.14334888     A.U. after   16 cycles
 Normal termination of Gaussian 16 at Tue Apr  8 23:29:54 2025.
 Gaussian 16:  ES64L-G16RevC.01  3-Jul-2019

 ----------------------------------------------------------------------
 #t hf aug-cc-pvdz iop(5/13=1,5/36=2,99/5=2) pseudo=read geom=check gue
 ss=(read,tcheck) scf=(maxcycle=1)
 ----------------------------------------------------------------------
 -----
 title
 -----
 Structure from the checkpoint file:  "BDE49_nonexpt_1263_mol1.chk"
 Charge =  0 Multiplicity = 1

                         Standard orientation:
 ---------------------------------------------------------------------
 Center     Atomic      Atomic             Coordinates (Angstroms)
 Number     Number       Type             X           Y           Z
 ---------------------------------------------------------------------
      1         17           0       -2.778898   -1.540988   -0.412319
      2         17           0        0.749687    2.232818    1.178594
      3          8           0       -2.044366    1.583447   -1.508395
      4          8           0        0.232801   -1.513129    1.742926
      5         15           0       -1.830779   -0.054290    0.729919
      6         15           0        0.600692    1.368814   -0.753968
      7          6           0       -1.310842    1.095756   -0.703017
      8          6           0       -0.073068   -0.833425    0.803504
      9          6           0        0.886378   -0.440309   -0.327924
     10          1           0        0.493699   -0.919968   -1.241653
     11          6           0        2.348613   -0.892733   -0.095703
     12          1           0        2.597134   -0.633366    0.938347
     13          6           0        2.469445   -2.418358   -0.247040
     14          1           0        3.492469   -2.737345   -0.031526
     15          1           0        2.235956   -2.726424   -1.272067
     16          1           0        1.803639   -2.945243    0.435716
     17          6           0        3.344306   -0.185092   -1.026070
     18          1           0        4.352004   -0.570185   -0.851162
     19          1           0        3.102687   -0.359166   -2.079853
     20          1           0        3.373830    0.895132   -0.862493
 ---------------------------------------------------------------------

 SCF Done:  E(RHF) =  -1984.73851213     A.U. after    2 cycles

 The electronic state is 1-A.
 Alpha  occ. eigenvalues -- -105.26802-105.25738 -99.91753 -99.91497 -21.12152
 Alpha  occ. eigenvalues --  -21.10122 -11.53700 -11.51385 -11.47365 -11.43485
 Alpha  occ. eigenvalues --  -11.40481 -11.37874 -10.48979 -10.48728  -9.68932
 Alpha  occ. eigenvalues --   -9.68627  -9.68383  -9.68270  -9.67982  -9.67915
 Alpha  occ. eigenvalues --   -2.84501  -2.83776  -1.76674  -1.75634  -1.56802
 Alpha  occ. eigenvalues --   -1.54685  -1.53799  -1.53497  -1.52826  -1.51817
 Alpha  occ. eigenvalues --   -1.27953  -1.25009  -1.24763  -1.07643  -1.01981
 Alpha  occ. eigenvalues --   -0.89812  -0.83792  -0.81708  -0.72668  -0.65393
 Alpha  occ. eigenvalues --   -0.63379  -0.63164  -0.59048  -0.57679  -0.56582
 Alpha  occ. eigenvalues --   -0.55823  -0.55705  -0.55164  -0.54773  -0.52253
 Alpha  occ. eigenvalues --   -0.50409  -0.49413  -0.48908  -0.48094  -0.47706
 Alpha  occ. eigenvalues --   -0.46319  -0.45069  -0.37292  -0.27244  -0.15501
 Alpha  occ. eigenvalues --   -0.09543  -0.01432
 Alpha virt. eigenvalues --    0.03965   0.05071   0.05294   0.05329   0.05871
 Alpha virt. eigenvalues --    0.06110   0.06800   0.07707   0.07921   0.08601
 Alpha virt. eigenvalues --    0.08928   0.09773   0.09897   0.10076   0.11504

 Mulliken charges:
               1
     1  Cl  -1.400025
     2  Cl  -1.453962
     3  O   -3.115329
     4  O   -3.466571
     5  P    5.153350
     6  P    5.655581
     7  C   -0.639104
     8  C    1.852506
     9  C   -2.967446
    10  H    1.381789
    11  C   -2.716062
    12  H    1.868811
    13  C   -4.207978
    14  H    1.270681
    15  H    1.258350
    16  H    1.291392
    17  C   -3.806506
    18  H    1.162989
    19  H    1.508069
    20  H    1.369466
 Sum of Mulliken charges =  -0.00000

 Dipole moment (field-independent basis, Debye):
    X=              1.8017    Y=              2.4608    Z=             -0.2620  Tot=              3.0611

 Test job not archived.
 1\1\GINC-SE069\SP\RHF\Aug-CC-pVDZ\C6H8Cl2O2P2\OHZDE\08-Apr-2025\0\\#t
 hf aug-cc-pvdz iop(5/13=1,5/36=2,99/5=2) pseudo=read geom=check guess=
 (read,tcheck) scf=(maxcycle=1)\\title\\0,1\Cl,0,-2.778898,-1.540988,-0
 .412319\Cl,0,0.749687,2.232818,1.178594\O,0,-2.044366,1.583447,-1.5083
 95\O,0,0.232801,-1.513129,1.742926\P,0,-1.830779,-0.05429,0.729919\P,0
 ,0.600692,1.368814,-0.753968\C,0,-1.310842,1.095756,-0.703017\C,0,-0.0
 73068,-0.833425,0.803504\C,0,0.886378,-0.440309,-0.327924\H,0,0.493699
 ,-0.919968,-1.241653\C,0,2.348613,-0.892733,-0.095703\H,0,2.597134,-0.

 Normal termination of Gaussian 16 at Tue Apr  8 23:30:10 2025.
