 Gaussian 16, Revision C.01,

 ----------------------------------------------------------------------
 #t hf aug-cc-pvdz symm=none int=(grid=ultrafine) guess=(read,tcheck) s
 table=(opt,rrhf)
 ----------------------------------------------------------------------
 -----
 title
 -----
 Symbolic Z-matrix:
 Charge =  0 Multiplicity = 1

 SCF Done:  E(RHF) =  -388.322648062     A.U. after   12 cycles

 1\1\GINC-SE364\Stability\RHF\Aug-CC-pVDZ\C8H18O1\OHZDE\08-Apr-2025\0\\
 #t hf aug-cc-pvdz symm=none int=(grid=ultrafine) guess=(read,tcheck) s
 table=(opt,rrhf)\\title\\0,1\O,0,0.,0.,0.687615\C,0,-1.299503,0.000921
 ,0.052885\C,0,-2.222014,0.422855,1.206071\H,0,-1.955769,1.423565,1.552
 678\H,0,-2.109218,-0.267702,2.044307\C,0,1.299503,-0.000921,0.052885\C
 ,0,2.222014,-0.422856,1.20607\H,0,1.955769,-1.423566,1.552677\H,0,2.10
 9218,0.267701,2.044307\C,0,-1.445195,1.004767,-1.100955\H,0,-2.485787,
 1.018649,-1.437134\H,0,-0.828833,0.742648,-1.962585\H,0,-1.182886,2.01

 Normal termination of Gaussian 16 at Tue Apr  8 22:45:45 2025.
 Gaussian 16:  ES64L-G16RevC.01  3-Jul-2019

 ----------------------------------------------------------------------
 #t hf aug-cc-pvdz iop(5/13=1,5/36=2,99/5=2) pseudo=read geom=check gue
 ss=(read,tcheck) scf=(maxcycle=1)
 ----------------------------------------------------------------------
 -----
 title
 -----
 Structure from the checkpoint file:  "BDE49_expt_1389_mol1.chk"
 Charge =  0 Multiplicity = 1

                         Standard orientation:
 ---------------------------------------------------------------------
 Center     Atomic      Atomic             Coordinates (Angstroms)
 Number     Number       Type             X           Y           Z
 ---------------------------------------------------------------------
      1          8           0       -0.000000    0.000000    0.687615
      2          6           0       -1.299503    0.000921    0.052885
      3          6           0       -2.222014    0.422855    1.206071
      4          1           0       -1.955769    1.423565    1.552678
      5          1           0       -2.109218   -0.267702    2.044307
      6          6           0        1.299503   -0.000921    0.052885
      7          6           0        2.222014   -0.422856    1.206070
      8          1           0        1.955769   -1.423566    1.552677
      9          1           0        2.109218    0.267701    2.044307
     10          6           0       -1.445195    1.004767   -1.100955
     11          1           0       -2.485787    1.018649   -1.437134
     12          1           0       -0.828833    0.742648   -1.962585
     13          1           0       -1.182886    2.013792   -0.776870
     14          6           0        1.445195   -1.004766   -1.100956
     15          1           0        2.485787   -1.018648   -1.437135
     16          1           0        0.828833   -0.742647   -1.962585
     17          1           0        1.182886   -2.013791   -0.776871
     18          6           0       -1.688788   -1.415278   -0.409057
     19          1           0       -1.509832   -2.129526    0.397791
     20          1           0       -1.125047   -1.735919   -1.285178
     21          1           0       -2.751272   -1.448959   -0.667453
     22          6           0        1.688788    1.415278   -0.409057
     23          1           0        1.509833    2.129526    0.397792
     24          1           0        1.125047    1.735919   -1.285177
     25          1           0        2.751272    1.448959   -0.667453
     26          1           0       -3.268691    0.424885    0.890328
     27          1           0        3.268691   -0.424886    0.890328
 ---------------------------------------------------------------------

 SCF Done:  E(RHF) =  -390.298694307     A.U. after    2 cycles

 The electronic state is 1-A.
 Alpha  occ. eigenvalues --  -21.01202 -11.45466 -11.44669 -11.39618 -11.39312
 Alpha  occ. eigenvalues --  -11.38567 -11.38558 -11.34701 -11.34613  -1.73071
 Alpha  occ. eigenvalues --   -1.24279  -1.16765  -1.01654  -1.00559  -0.99895
 Alpha  occ. eigenvalues --   -0.99674  -0.81723  -0.74072  -0.63302  -0.62876
 Alpha  occ. eigenvalues --   -0.62015  -0.59962  -0.59128  -0.57394  -0.55210
 Alpha  occ. eigenvalues --   -0.54163  -0.53136  -0.52543  -0.50868  -0.50563
 Alpha  occ. eigenvalues --   -0.47258  -0.46571  -0.45017  -0.43398  -0.40095
 Alpha  occ. eigenvalues --   -0.32827  -0.27646
 Alpha virt. eigenvalues --    0.04053   0.04682   0.04842   0.04874   0.04992
 Alpha virt. eigenvalues --    0.05346   0.05939   0.06718   0.06776   0.07782
 Alpha virt. eigenvalues --    0.07957   0.08005   0.08794   0.09020   0.09207

 Mulliken charges:
               1
     1  O   -5.006920
     2  C    5.013510
     3  C   -4.821448
     4  H    1.308190
     5  H    1.379008
     6  C    5.013512
     7  C   -4.821449
     8  H    1.308190
     9  H    1.379007
    10  C   -4.749254
    11  H    1.038883
    12  H    1.554417
    13  H    1.388770
    14  C   -4.749255
    15  H    1.038883
    16  H    1.554418
    17  H    1.388770
    18  C   -4.706719
    19  H    1.301268
    20  H    1.517708
    21  H    1.101732
    22  C   -4.706719
    23  H    1.301267
    24  H    1.517710
    25  H    1.101732
    26  H    1.177395
    27  H    1.177396
 Sum of Mulliken charges =   0.00000

 Dipole moment (field-independent basis, Debye):
    X=             -0.0000    Y=             -0.0000    Z=             -0.3293  Tot=              0.3293

 Test job not archived.
 1\1\GINC-SE364\SP\RHF\Aug-CC-pVDZ\C8H18O1\OHZDE\08-Apr-2025\0\\#t hf a
 ug-cc-pvdz iop(5/13=1,5/36=2,99/5=2) pseudo=read geom=check guess=(rea
 d,tcheck) scf=(maxcycle=1)\\title\\0,1\O,0,0.,0.,0.687615\C,0,-1.29950
 3,0.000921,0.052885\C,0,-2.222014,0.422855,1.206071\H,0,-1.955769,1.42
 3565,1.552678\H,0,-2.109218,-0.267702,2.044307\C,0,1.299503,-0.000921,
 0.052885\C,0,2.222014,-0.422856,1.20607\H,0,1.955769,-1.423566,1.55267
 7\H,0,2.109218,0.267701,2.044307\C,0,-1.445195,1.004767,-1.100955\H,0,
 -2.485787,1.018649,-1.437134\H,0,-0.828833,0.742648,-1.962585\H,0,-1.1

 Normal termination of Gaussian 16 at Tue Apr  8 22:46:03 2025.
