 Gaussian 16, Revision C.01,

 ----------------------------------------------------------------------
 #t hf aug-cc-pvdz symm=none int=(grid=ultrafine) guess=(read,tcheck) s
 table=(opt,rrhf)
 ----------------------------------------------------------------------
 -----
 title
 -----
 Symbolic Z-matrix:
 Charge =  0 Multiplicity = 1

 SCF Done:  E(RHF) =  -529.459524779     A.U. after   14 cycles
 Normal termination of Gaussian 16 at Tue Apr  8 22:48:29 2025.
 Gaussian 16:  ES64L-G16RevC.01  3-Jul-2019

 ----------------------------------------------------------------------
 #t hf aug-cc-pvdz iop(5/13=1,5/36=2,99/5=2) pseudo=read geom=check gue
 ss=(read,tcheck) scf=(maxcycle=1)
 ----------------------------------------------------------------------
 -----
 title
 -----
 Structure from the checkpoint file:  "BDE49_expt_1605_mol1.chk"
 Charge =  0 Multiplicity = 1

                         Standard orientation:
 ---------------------------------------------------------------------
 Center     Atomic      Atomic             Coordinates (Angstroms)
 Number     Number       Type             X           Y           Z
 ---------------------------------------------------------------------
      1          6           0        1.500691    0.807160   -0.000000
      2         16           0        0.460113   -0.705232   -0.000003
      3          1           0        1.315361    1.393031    0.897716
      4          1           0        1.315351    1.393067   -0.897691
      5          1           0        2.528766    0.443832   -0.000018
      6          6           0       -1.080370    0.005785    0.000085
      7          7           0       -2.149029    0.453731   -0.000066
 ---------------------------------------------------------------------

 SCF Done:  E(RHF) =  -530.289798350     A.U. after    2 cycles

 The electronic state is 1-A.
 Alpha  occ. eigenvalues --  -75.74658 -15.77101 -13.21141 -13.14319 -13.07166
 Alpha  occ. eigenvalues --  -11.44245 -11.43401  -8.08831  -1.33552  -1.22163
 Alpha  occ. eigenvalues --   -1.00782  -0.68122  -0.62463  -0.60756  -0.52375
 Alpha  occ. eigenvalues --   -0.49292  -0.49084  -0.40122  -0.26622
 Alpha virt. eigenvalues --    0.01693   0.05176   0.05451   0.05708   0.09296
 Alpha virt. eigenvalues --    0.10868   0.11929   0.12460   0.13428   0.14050
 Alpha virt. eigenvalues --    0.15418   0.16415   0.17553   0.18208   0.19059

 Mulliken charges:
               1
     1  C   -4.595238
     2  S    1.696927
     3  H    1.430082
     4  H    1.430071
     5  H    1.337891
     6  C    0.688173
     7  N   -1.987905
 Sum of Mulliken charges =   0.00000

 Dipole moment (field-independent basis, Debye):
    X=              4.4338    Y=             -1.4161    Z=             -0.0001  Tot=              4.6544

 Test job not archived.
 1\1\GINC-SE009\SP\RHF\Aug-CC-pVDZ\C2H3N1S1\OHZDE\08-Apr-2025\0\\#t hf
 aug-cc-pvdz iop(5/13=1,5/36=2,99/5=2) pseudo=read geom=check guess=(re
 ad,tcheck) scf=(maxcycle=1)\\title\\0,1\C,0,-1.500691,0.80716,0.\S,0,-
 0.460113,-0.705232,0.000003\H,0,-1.315361,1.393031,-0.897716\H,0,-1.31
 5351,1.393067,0.897691\H,0,-2.528766,0.443832,0.000018\C,0,1.08037,0.0
 05785,-0.000085\N,0,2.149029,0.453731,0.000066\\Version=ES64L-G16RevC.
 01\State=1-A\HF=-530.2897983\RMSD=9.480e-02\Dipole=-1.7443799,-0.55711
 75,0.0000475\Quadrupole=-1.6107612,2.1540417,-0.5432805,-1.1484368,-0.

 Normal termination of Gaussian 16 at Tue Apr  8 22:48:31 2025.
