 Gaussian 16, Revision C.01,

 ----------------------------------------------------------------------
 #t hf aug-cc-pvdz symm=none int=(grid=ultrafine) guess=(read,tcheck) s
 table=(opt,rrhf)
 ----------------------------------------------------------------------
 -----
 title
 -----
 Symbolic Z-matrix:
 Charge =  0 Multiplicity = 1

 SCF Done:  E(RHF) =  -498.010336985     A.U. after   16 cycles
 Normal termination of Gaussian 16 at Wed Apr  9 00:00:30 2025.
 Gaussian 16:  ES64L-G16RevC.01  3-Jul-2019

 ----------------------------------------------------------------------
 #t hf aug-cc-pvdz iop(5/13=1,5/36=2,99/5=2) pseudo=read geom=check gue
 ss=(read,tcheck) scf=(maxcycle=1)
 ----------------------------------------------------------------------
 -----
 title
 -----
 Structure from the checkpoint file:  "BDE49_nonexpt_2107_mol1.chk"
 Charge =  0 Multiplicity = 1

                         Standard orientation:
 ---------------------------------------------------------------------
 Center     Atomic      Atomic             Coordinates (Angstroms)
 Number     Number       Type             X           Y           Z
 ---------------------------------------------------------------------
      1         14           0       -0.404995    0.047699    0.429049
      2          7           0        1.183842   -0.898177    0.174507
      3          8           0        2.087207   -0.264894   -0.340223
      4          6           0       -1.724651   -0.988143   -0.402160
      5          1           0       -1.671655   -2.024959   -0.060748
      6          1           0       -1.608939   -0.979992   -1.489416
      7          6           0       -0.276029    1.797920   -0.209863
      8          1           0       -0.163092    1.813711   -1.296959
      9          1           0        0.590100    2.303619    0.223757
     10          1           0       -1.172515    2.368401    0.050086
     11          1           0       -2.720815   -0.603611   -0.164924
     12          1           0       -0.563626    0.002768    1.903904
 ---------------------------------------------------------------------

 SCF Done:  E(RHF) =  -499.119445103     A.U. after    2 cycles

 The electronic state is 1-A.
 Alpha  occ. eigenvalues --  -76.22873 -21.12026 -15.82070 -11.36351 -11.36069
 Alpha  occ. eigenvalues --   -5.56906  -2.20882  -2.20647  -2.19271  -1.82523
 Alpha  occ. eigenvalues --   -1.08622  -1.02798  -0.98105  -0.69877  -0.59954
 Alpha  occ. eigenvalues --   -0.58345  -0.57216  -0.56265  -0.54393  -0.51714
 Alpha  occ. eigenvalues --   -0.50634  -0.44332  -0.41344  -0.23691
 Alpha virt. eigenvalues --    0.02783   0.04822   0.05615   0.05910   0.06819
 Alpha virt. eigenvalues --    0.06866   0.07211   0.08513   0.08934   0.09821
 Alpha virt. eigenvalues --    0.11414   0.13147   0.14741   0.15121   0.15910

 Mulliken charges:
               1
     1  Si   5.970224
     2  N    0.195178
     3  O   -1.446701
     4  C   -5.017581
     5  H    1.251005
     6  H    1.275754
     7  C   -5.185764
     8  H    1.312311
     9  H    1.256911
    10  H    1.279734
    11  H    1.293027
    12  H   -2.184096
 Sum of Mulliken charges =  -0.00000

 Dipole moment (field-independent basis, Debye):
    X=             -1.6885    Y=              1.5260    Z=             -0.7377  Tot=              2.3925

 Test job not archived.
 1\1\GINC-SE458\SP\RHF\Aug-CC-pVDZ\C2H7N1O1Si1\OHZDE\09-Apr-2025\0\\#t
 hf aug-cc-pvdz iop(5/13=1,5/36=2,99/5=2) pseudo=read geom=check guess=
 (read,tcheck) scf=(maxcycle=1)\\title\\0,1\Si,0,-0.404995,0.047699,0.4
 29049\N,0,1.183842,-0.898177,0.174507\O,0,2.087207,-0.264894,-0.340223
 \C,0,-1.724651,-0.988143,-0.40216\H,0,-1.671655,-2.024959,-0.060748\H,
 0,-1.608939,-0.979992,-1.489416\C,0,-0.276029,1.79792,-0.209863\H,0,-0
 .163092,1.813711,-1.296959\H,0,0.5901,2.303619,0.223757\H,0,-1.172515,
 2.368401,0.050086\H,0,-2.720815,-0.603611,-0.164924\H,0,-0.563626,0.00

 Normal termination of Gaussian 16 at Wed Apr  9 00:00:34 2025.
