 Gaussian 16, Revision C.01,

 ----------------------------------------------------------------------
 #t hf aug-cc-pvdz symm=none int=(grid=ultrafine) guess=(read,tcheck) s
 table=(opt,rrhf)
 ----------------------------------------------------------------------
 -----
 title
 -----
 Symbolic Z-matrix:
 Charge =  0 Multiplicity = 1

 SCF Done:  E(RHF) =  -325.014133297     A.U. after   16 cycles
 Normal termination of Gaussian 16 at Tue Apr  8 22:40:09 2025.
 Gaussian 16:  ES64L-G16RevC.01  3-Jul-2019

 ----------------------------------------------------------------------
 #t hf aug-cc-pvdz iop(5/13=1,5/36=2,99/5=2) pseudo=read geom=check gue
 ss=(read,tcheck) scf=(maxcycle=1)
 ----------------------------------------------------------------------
 -----
 title
 -----
 Structure from the checkpoint file:  "BDE49_expt_1235_mol1.chk"
 Charge =  0 Multiplicity = 1

                         Standard orientation:
 ---------------------------------------------------------------------
 Center     Atomic      Atomic             Coordinates (Angstroms)
 Number     Number       Type             X           Y           Z
 ---------------------------------------------------------------------
      1          6           0        0.760055   -0.014745    0.009174
      2          7           0       -1.702752    0.462373   -0.032381
      3          8           0       -2.667851   -0.256011    0.009650
      4          6           0        1.097279    1.457742    0.306302
      5          1           0        0.303256    1.939582    0.879270
      6          1           0        1.235317    2.023834   -0.620213
      7          6           0        1.874156   -0.639309   -0.849237
      8          1           0        1.990492   -0.107736   -1.798562
      9          1           0        1.664565   -1.689441   -1.073060
     10          1           0        2.831287   -0.594015   -0.321434
     11          1           0        2.025860    1.525973    0.880377
     12          6           0        0.618315   -0.801884    1.325452
     13          1           0        1.559394   -0.787914    1.882214
     14          1           0        0.355914   -1.847212    1.135634
     15          1           0       -0.155852   -0.372172    1.966670
     16          6           0       -0.559609   -0.111000   -0.793236
     17          1           0       -0.803486   -1.139354   -1.080162
     18          1           0       -0.485860    0.515103   -1.691996
 ---------------------------------------------------------------------

 SCF Done:  E(RHF) =  -326.573023847     A.U. after    2 cycles

 The electronic state is 1-A.
 Alpha  occ. eigenvalues --  -21.12019 -15.85236 -11.44588 -11.41971 -11.39545
 Alpha  occ. eigenvalues --  -11.39208 -11.35644  -1.85407  -1.31542  -1.12495
 Alpha  occ. eigenvalues --   -1.01461  -1.01304  -0.88582  -0.78110  -0.66601
 Alpha  occ. eigenvalues --   -0.64782  -0.62439  -0.59517  -0.57690  -0.54209
 Alpha  occ. eigenvalues --   -0.53488  -0.52490  -0.51994  -0.48026  -0.44205
 Alpha  occ. eigenvalues --   -0.43171  -0.41979  -0.26928
 Alpha virt. eigenvalues --    0.03780   0.05063   0.05358   0.05465   0.05726
 Alpha virt. eigenvalues --    0.05789   0.06541   0.06891   0.07694   0.08799
 Alpha virt. eigenvalues --    0.09085   0.11613   0.12003   0.13249   0.13724

 Mulliken charges:
               1
     1  C    3.938847
     2  N    0.902843
     3  O   -2.135810
     4  C   -4.825515
     5  H    1.327294
     6  H    1.216202
     7  C   -4.419574
     8  H    1.226696
     9  H    1.223437
    10  H    1.164490
    11  H    1.189971
    12  C   -4.454373
    13  H    1.227784
    14  H    1.204746
    15  H    1.267347
    16  C   -3.119141
    17  H    1.565975
    18  H    1.498779
 Sum of Mulliken charges =  -0.00000

 Dipole moment (field-independent basis, Debye):
    X=              1.2432    Y=             -0.6252    Z=             -0.4650  Tot=              1.4672

 Test job not archived.
 1\1\GINC-SE339\SP\RHF\Aug-CC-pVDZ\C5H11N1O1\OHZDE\08-Apr-2025\0\\#t hf
  aug-cc-pvdz iop(5/13=1,5/36=2,99/5=2) pseudo=read geom=check guess=(r
 ead,tcheck) scf=(maxcycle=1)\\title\\0,1\C,0,0.760055,-0.014745,0.0091
 74\N,0,-1.702752,0.462373,-0.032381\O,0,-2.667851,-0.256011,0.00965\C,
 0,1.097279,1.457742,0.306302\H,0,0.303256,1.939582,0.87927\H,0,1.23531
 7,2.023834,-0.620213\C,0,1.874156,-0.639309,-0.849237\H,0,1.990492,-0.
 107736,-1.798562\H,0,1.664565,-1.689441,-1.07306\H,0,2.831287,-0.59401
 5,-0.321434\H,0,2.02586,1.525973,0.880377\C,0,0.618315,-0.801884,1.325

 Normal termination of Gaussian 16 at Tue Apr  8 22:40:16 2025.
