 Gaussian 16, Revision C.01,

 ----------------------------------------------------------------------
 #t hf aug-cc-pvdz symm=none int=(grid=ultrafine) guess=(read,tcheck) s
 table=opt
 ----------------------------------------------------------------------
 -----
 title
 -----
 Symbolic Z-matrix:
 Charge =  0 Multiplicity = 2

 SCF Done:  E(UHF) =  -2065.14952373     A.U. after   16 cycles
 Normal termination of Gaussian 16 at Wed Apr  9 00:16:37 2025.
 Gaussian 16:  ES64L-G16RevC.01  3-Jul-2019

 ----------------------------------------------------------------------
 #t hf aug-cc-pvdz iop(5/13=1,5/36=2,99/5=2) pseudo=read geom=check gue
 ss=(read,tcheck) scf=(maxcycle=1)
 ----------------------------------------------------------------------
 -----
 title
 -----
 Structure from the checkpoint file:  "BDE49_nonexpt_2531_mol2.chk"
 Charge =  0 Multiplicity = 2

                         Standard orientation:
 ---------------------------------------------------------------------
 Center     Atomic      Atomic             Coordinates (Angstroms)
 Number     Number       Type             X           Y           Z
 ---------------------------------------------------------------------
      1         16           0       -1.558400    0.003861   -1.466133
      2         14           0        0.002076    0.000123   -0.037323
      3         17           0        1.210375    1.652969   -0.181295
      4         17           0       -0.955366   -0.004425    1.781289
      5         17           0        1.210011   -1.652280   -0.189368
 ---------------------------------------------------------------------

 SCF Done:  E(UHF) =  -2066.20140257     A.U. after    2 cycles

 The electronic state is 2-A.
 Alpha  occ. eigenvalues --  -99.91896 -99.91645 -99.91644 -76.37345 -75.74573
 Alpha  occ. eigenvalues --  -13.11983 -13.10132 -13.08016 -10.49375 -10.49150
 Alpha  occ. eigenvalues --  -10.49103  -9.69202  -9.68960  -9.68921  -9.68610
 Alpha  occ. eigenvalues --   -9.68558  -9.68363  -9.68297  -9.68268  -9.68221
 Alpha  occ. eigenvalues --   -8.08278  -5.71005  -2.32691  -2.32387  -2.31723
 Alpha  occ. eigenvalues --   -1.35792  -1.31164  -1.30840  -1.13943  -0.79581
 Alpha  occ. eigenvalues --   -0.63688  -0.63185  -0.60258  -0.58149  -0.57608
 Alpha  occ. eigenvalues --   -0.54812  -0.54447  -0.52731  -0.41467  -0.36452
 Alpha  occ. eigenvalues --   -0.32004
 Alpha virt. eigenvalues --    0.02268   0.05113   0.05385   0.05606   0.06089
 Alpha virt. eigenvalues --    0.09181   0.09513   0.09888   0.12572   0.13231
 Alpha virt. eigenvalues --    0.13849   0.14213   0.15005   0.15250   0.16639

  Beta  occ. eigenvalues --  -99.91854 -99.91643 -99.91641 -76.37377 -75.73614
  Beta  occ. eigenvalues --  -13.11448 -13.07441 -13.04295 -10.49330 -10.49148
  Beta  occ. eigenvalues --  -10.49100  -9.69124  -9.68960  -9.68922  -9.68535
  Beta  occ. eigenvalues --   -9.68509  -9.68353  -9.68284  -9.68248  -9.68219
  Beta  occ. eigenvalues --   -8.07209  -5.71057  -2.32730  -2.32430  -2.31841
  Beta  occ. eigenvalues --   -1.35615  -1.30934  -1.30822  -1.04576  -0.78835
  Beta  occ. eigenvalues --   -0.63291  -0.63182  -0.59921  -0.57688  -0.57512
  Beta  occ. eigenvalues --   -0.54600  -0.54417  -0.52688  -0.40053  -0.30357
  Beta virt. eigenvalues --   -0.02025   0.02563   0.05188   0.05621   0.05804
  Beta virt. eigenvalues --    0.06294   0.09435   0.09896   0.10317   0.12857
  Beta virt. eigenvalues --    0.13257   0.13912   0.14951   0.15131   0.15701

 Mulliken charges and spin densities:
               1          2
     1  S   -1.042335   1.130142
     2  Si   3.169778  -0.160819
     3  Cl  -0.709607   0.005095
     4  Cl  -0.708233   0.020493
     5  Cl  -0.709603   0.005089
 Sum of Mulliken charges =   0.00000   1.00000

 Dipole moment (field-independent basis, Debye):
    X=             -2.6804    Y=              0.0069    Z=             -2.5303  Tot=              3.6860
                          Isotropic Fermi Contact Couplings
        Atom                 a.u.       MegaHertz       Gauss      10(-4) cm-1
     1  S(33)              0.22409      76.96993      27.46478      25.67440
     2  Si(29)            -0.05100      45.32324      16.17246      15.11820
     3  Cl(35)             0.00012       0.05474       0.01953       0.01826
     4  Cl(35)             0.03279      14.37504       5.12937       4.79500
     5  Cl(35)             0.00011       0.04976       0.01776       0.01660
 --------------------------------------------------------
       Center         ----  Spin Dipole Couplings  ----
                      3XX-RR        3YY-RR        3ZZ-RR

 Normal termination of Gaussian 16 at Wed Apr  9 00:16:39 2025.
