 Gaussian 16, Revision C.01,

 ----------------------------------------------------------------------
 #t hf aug-cc-pvdz symm=none int=(grid=ultrafine) guess=(read,tcheck) s
 table=opt
 ----------------------------------------------------------------------
 -----
 title
 -----
 Symbolic Z-matrix:
 Charge =  0 Multiplicity = 2

 SCF Done:  E(UHF) =  -253.197241418     A.U. after   15 cycles
 Normal termination of Gaussian 16 at Tue Apr  8 22:40:23 2025.
 Gaussian 16:  ES64L-G16RevC.01  3-Jul-2019

 ----------------------------------------------------------------------
 #t hf aug-cc-pvdz iop(5/13=1,5/36=2,99/5=2) pseudo=read geom=check gue
 ss=(read,tcheck) scf=(maxcycle=1)
 ----------------------------------------------------------------------
 -----
 title
 -----
 Structure from the checkpoint file:  "BDE49_expt_1275_mol3.chk"
 Charge =  0 Multiplicity = 2

                         Standard orientation:
 ---------------------------------------------------------------------
 Center     Atomic      Atomic             Coordinates (Angstroms)
 Number     Number       Type             X           Y           Z
 ---------------------------------------------------------------------
      1          7           0        0.000000   -0.000000    0.603513
      2          9           0        0.000000    1.064992   -0.234699
      3          9           0       -0.000000   -1.064992   -0.234699
 ---------------------------------------------------------------------

 SCF Done:  E(UHF) =  -254.078276674     A.U. after    2 cycles

 The electronic state is 2-B1.
 Alpha  occ. eigenvalues --  -29.34368 -29.34327 -15.95209  -1.55127  -0.86346
 Alpha  occ. eigenvalues --   -0.72582  -0.69403  -0.47699  -0.43647  -0.33649
 Alpha  occ. eigenvalues --   -0.31083  -0.24424  -0.23572
 Alpha virt. eigenvalues --    0.13041   0.13498   0.15753   0.19149   0.19984
 Alpha virt. eigenvalues --    0.23601   0.27789   0.28541   0.30816   0.34404
 Alpha virt. eigenvalues --    0.42772   0.45476   0.53469   0.55190   0.55547

  Beta  occ. eigenvalues --  -29.34070 -29.34029 -15.91463  -1.44400  -0.84142
  Beta  occ. eigenvalues --   -0.66413  -0.49834  -0.47054  -0.43145  -0.31033
  Beta  occ. eigenvalues --   -0.30073  -0.24392
  Beta virt. eigenvalues --    0.12413   0.13454   0.15785   0.17019   0.19321
  Beta virt. eigenvalues --    0.20501   0.23873   0.27897   0.28944   0.34325
  Beta virt. eigenvalues --    0.34348   0.43920   0.45633   0.54847   0.55066

 Mulliken charges and spin densities:
               1          2
     1  N   -0.568892   0.781110
     2  F    0.284446   0.109445
     3  F    0.284446   0.109445
 Sum of Mulliken charges =  -0.00000   1.00000

 Dipole moment (field-independent basis, Debye):
    X=             -0.0000    Y=             -0.0000    Z=             -2.3045  Tot=              2.3045
                          Isotropic Fermi Contact Couplings
        Atom                 a.u.       MegaHertz       Gauss      10(-4) cm-1
     1  N(14)              0.21421      69.21134      24.69633      23.08642
     2  F(19)              0.02653     111.64018      39.83599      37.23916
     3  F(19)              0.02653     111.64018      39.83599      37.23916
 --------------------------------------------------------
       Center         ----  Spin Dipole Couplings  ----
                      3XX-RR        3YY-RR        3ZZ-RR
 --------------------------------------------------------
     1   Atom        1.839699     -0.878225     -0.961474

 Normal termination of Gaussian 16 at Tue Apr  8 22:40:24 2025.
