 Gaussian 16, Revision C.01,

 ----------------------------------------------------------------------
 #t hf aug-cc-pvdz symm=none int=(grid=ultrafine) guess=(read,tcheck) s
 table=(opt,rrhf)
 ----------------------------------------------------------------------
 -----
 title
 -----
 Symbolic Z-matrix:
 Charge =  0 Multiplicity = 1

 SCF Done:  E(RHF) =  -554.847876266     A.U. after   12 cycles

 1\1\GINC-SE331\Stability\RHF\Aug-CC-pVDZ\C4H10S1\OHZDE\08-Apr-2025\0\\
 #t hf aug-cc-pvdz symm=none int=(grid=ultrafine) guess=(read,tcheck) s
 table=(opt,rrhf)\\title\\0,1\S,0,1.386919,-1.866802,0.\C,0,-0.234368,-
 0.986188,0.\C,0,0.,0.524846,0.\H,0,0.894785,-3.117333,0.\H,0,-0.796266
 ,-1.283467,0.887561\C,0,-1.311125,1.322151,0.\H,0,0.594718,0.800166,-0
 .878506\H,0,0.594718,0.800166,0.878506\C,0,-1.086102,2.83691,0.\H,0,-1
 .905976,1.040908,0.877061\H,0,-1.905976,1.040908,-0.877061\H,0,-0.5226
 02,3.153039,0.883104\H,0,-2.035662,3.378565,0.\H,0,-0.522602,3.153039,

 Normal termination of Gaussian 16 at Tue Apr  8 22:46:42 2025.
 Gaussian 16:  ES64L-G16RevC.01  3-Jul-2019

 ----------------------------------------------------------------------
 #t hf aug-cc-pvdz iop(5/13=1,5/36=2,99/5=2) pseudo=read geom=check gue
 ss=(read,tcheck) scf=(maxcycle=1)
 ----------------------------------------------------------------------
 -----
 title
 -----
 Structure from the checkpoint file:  "BDE49_expt_1549_mol1.chk"
 Charge =  0 Multiplicity = 1

                         Standard orientation:
 ---------------------------------------------------------------------
 Center     Atomic      Atomic             Coordinates (Angstroms)
 Number     Number       Type             X           Y           Z
 ---------------------------------------------------------------------
      1         16           0        1.386919   -1.866802    0.000000
      2          6           0       -0.234368   -0.986188    0.000000
      3          6           0        0.000000    0.524846    0.000000
      4          1           0        0.894784   -3.117333    0.000000
      5          1           0       -0.796266   -1.283467    0.887561
      6          6           0       -1.311125    1.322151    0.000000
      7          1           0        0.594718    0.800166   -0.878506
      8          1           0        0.594718    0.800166    0.878506
      9          6           0       -1.086102    2.836910    0.000000
     10          1           0       -1.905976    1.040908    0.877061
     11          1           0       -1.905976    1.040908   -0.877061
     12          1           0       -0.522601    3.153039    0.883104
     13          1           0       -2.035661    3.378565    0.000000
     14          1           0       -0.522601    3.153039   -0.883104
     15          1           0       -0.796266   -1.283467   -0.887561
 ---------------------------------------------------------------------

 SCF Done:  E(RHF) =  -555.905137260     A.U. after    2 cycles

 The electronic state is 1-A'.
 Alpha  occ. eigenvalues --  -75.67940 -13.13691 -13.07165 -13.00394 -11.42755
 Alpha  occ. eigenvalues --  -11.40971 -11.38065 -11.35226  -8.01785  -1.26895
 Alpha  occ. eigenvalues --   -1.14119  -1.01881  -0.89137  -0.83197  -0.66237
 Alpha  occ. eigenvalues --   -0.59915  -0.59041  -0.54480  -0.53382  -0.50873
 Alpha  occ. eigenvalues --   -0.46421  -0.46326  -0.42423  -0.37122  -0.23367
 Alpha virt. eigenvalues --    0.03706   0.04170   0.05180   0.05665   0.05822
 Alpha virt. eigenvalues --    0.06341   0.06439   0.06651   0.08279   0.10032
 Alpha virt. eigenvalues --    0.10295   0.10609   0.13344   0.14509   0.15102

 Mulliken charges:
               1
     1  S   -0.417356
     2  C   -3.751331
     3  C   -2.325475
     4  H    0.847215
     5  H    1.400722
     6  C   -2.884876
     7  H    1.537220
     8  H    1.537220
     9  C   -3.885283
    10  H    1.435967
    11  H    1.435967
    12  H    1.289642
    13  H    1.090005
    14  H    1.289642
    15  H    1.400722
 Sum of Mulliken charges =   0.00000

 Dipole moment (field-independent basis, Debye):
    X=             -0.1197    Y=              1.1902    Z=             -0.0000  Tot=              1.1962

 Test job not archived.
 1\1\GINC-SE331\SP\RHF\Aug-CC-pVDZ\C4H10S1\OHZDE\08-Apr-2025\0\\#t hf a
 ug-cc-pvdz iop(5/13=1,5/36=2,99/5=2) pseudo=read geom=check guess=(rea
 d,tcheck) scf=(maxcycle=1)\\title\\0,1\S,0,1.386919,-1.866802,0.\C,0,-
 0.234368,-0.986188,0.\C,0,0.,0.524846,0.\H,0,0.894785,-3.117333,0.\H,0
 ,-0.796266,-1.283467,0.887561\C,0,-1.311125,1.322151,0.\H,0,0.594718,0
 .800166,-0.878506\H,0,0.594718,0.800166,0.878506\C,0,-1.086102,2.83691
 ,0.\H,0,-1.905976,1.040908,0.877061\H,0,-1.905976,1.040908,-0.877061\H
 ,0,-0.522602,3.153039,0.883104\H,0,-2.035662,3.378565,0.\H,0,-0.522602

 Normal termination of Gaussian 16 at Tue Apr  8 22:46:46 2025.
