 Gaussian 16, Revision C.01,

 ----------------------------------------------------------------------
 #t hf aug-cc-pvdz symm=none int=(grid=ultrafine) guess=(read,tcheck) s
 table=(opt,rrhf)
 ----------------------------------------------------------------------
 -----
 title
 -----
 Symbolic Z-matrix:
 Charge =  0 Multiplicity = 1

 SCF Done:  E(RHF) =  -1120.88073280     A.U. after   13 cycles
 Normal termination of Gaussian 16 at Tue Apr  8 23:45:36 2025.
 Gaussian 16:  ES64L-G16RevC.01  3-Jul-2019

 ----------------------------------------------------------------------
 #t hf aug-cc-pvdz iop(5/13=1,5/36=2,99/5=2) pseudo=read geom=check gue
 ss=(read,tcheck) scf=(maxcycle=1)
 ----------------------------------------------------------------------
 -----
 title
 -----
 Structure from the checkpoint file:  "BDE49_nonexpt_1708_mol1.chk"
 Charge =  0 Multiplicity = 1

                         Standard orientation:
 ---------------------------------------------------------------------
 Center     Atomic      Atomic             Coordinates (Angstroms)
 Number     Number       Type             X           Y           Z
 ---------------------------------------------------------------------
      1         16           0       -0.220718   -1.216932   -0.519068
      2         15           0       -1.580053    0.266882    0.044510
      3          8           0       -1.498007    1.531985   -0.698356
      4          6           0        1.229292   -0.145287   -0.945103
      5          6           0        2.136143    0.230411    0.234837
      6          6           0        2.804192   -0.993840    0.870303
      7          1           0        2.064055   -1.711602    1.230697
      8          1           0        3.425459   -0.698484    1.719917
      9          1           0        3.450218   -1.504622    0.147373
     10          6           0        3.181097    1.251086   -0.242842
     11          1           0        1.511228    0.713509    0.994218
     12          1           0        3.824252    0.822452   -1.019018
     13          1           0        3.824235    1.561021    0.585184
     14          1           0        2.707255    2.146432   -0.654262
     15          1           0        0.823196    0.739348   -1.435512
     16          1           0        1.779638   -0.727873   -1.689485
     17          8           0       -1.402223    0.393887    1.631944
     18          1           0       -1.813833    1.201291    1.968795
     19          8           0       -2.991011   -0.501733   -0.031270
     20          1           0       -3.337818   -0.521112   -0.932165
 ---------------------------------------------------------------------

 SCF Done:  E(RHF) =  -1123.06125309     A.U. after    2 cycles

 The electronic state is 1-A.
 Alpha  occ. eigenvalues -- -105.31962 -75.69731 -21.12119 -21.11984 -21.02896
 Alpha  occ. eigenvalues --  -13.15749 -13.11507 -13.06147 -11.44054 -11.41164
 Alpha  occ. eigenvalues --  -11.38642 -11.35533  -8.03954  -2.94183  -1.98706
 Alpha  occ. eigenvalues --   -1.90522  -1.80403  -1.54369  -1.40707  -1.28440
 Alpha  occ. eigenvalues --   -1.26183  -1.10542  -1.00422  -0.93615  -0.81299
 Alpha  occ. eigenvalues --   -0.69543  -0.65582  -0.60752  -0.60534  -0.59166
 Alpha  occ. eigenvalues --   -0.55180  -0.54222  -0.53640  -0.49293  -0.46582
 Alpha  occ. eigenvalues --   -0.45817  -0.44514  -0.42731  -0.38813  -0.34613
 Alpha  occ. eigenvalues --   -0.34041  -0.29661  -0.26606  -0.22050  -0.14771
 Alpha virt. eigenvalues --    0.03715   0.04510   0.05425   0.05645   0.05850
 Alpha virt. eigenvalues --    0.06153   0.06667   0.06853   0.07474   0.08117
 Alpha virt. eigenvalues --    0.09812   0.10676   0.11438   0.12365   0.12803

 Mulliken charges:
               1
     1  S   -1.391522
     2  P    8.204588
     3  O   -2.885349
     4  C   -4.185406
     5  C   -0.886636
     6  C   -4.129413
     7  H    1.403282
     8  H    1.261761
     9  H    1.301474
    10  C   -4.126935
    11  H    2.048756
    12  H    1.314966
    13  H    1.257260
    14  H    1.289460
    15  H    1.699969
    16  H    1.499674
    17  O   -2.601682
    18  H    0.741693
    19  O   -2.659903
    20  H    0.843960
 Sum of Mulliken charges =   0.00000

 Dipole moment (field-independent basis, Debye):
    X=             -0.9396    Y=             -1.2711    Z=              1.6220  Tot=              2.2648

 Test job not archived.
 1\1\GINC-SE094\SP\RHF\Aug-CC-pVDZ\C4H11O3P1S1\OHZDE\08-Apr-2025\0\\#t
 hf aug-cc-pvdz iop(5/13=1,5/36=2,99/5=2) pseudo=read geom=check guess=
 (read,tcheck) scf=(maxcycle=1)\\title\\0,1\S,0,-0.220718,-1.216932,-0.
 519068\P,0,-1.580053,0.266882,0.04451\O,0,-1.498007,1.531985,-0.698356
 \C,0,1.229292,-0.145287,-0.945103\C,0,2.136143,0.230411,0.234837\C,0,2
 .804192,-0.99384,0.870303\H,0,2.064055,-1.711602,1.230697\H,0,3.425459
 ,-0.698484,1.719917\H,0,3.450218,-1.504622,0.147373\C,0,3.181097,1.251
 086,-0.242842\H,0,1.511228,0.713509,0.994218\H,0,3.824252,0.822452,-1.

 Normal termination of Gaussian 16 at Tue Apr  8 23:45:47 2025.
