 Gaussian 16, Revision C.01,

 ----------------------------------------------------------------------
 #t hf aug-cc-pvdz symm=none int=(grid=ultrafine) guess=(read,tcheck) s
 table=(opt,rrhf)
 ----------------------------------------------------------------------
 -----
 title
 -----
 Symbolic Z-matrix:
 Charge =  0 Multiplicity = 1

 SCF Done:  E(RHF) =  -1375.27930009     A.U. after   13 cycles
 Normal termination of Gaussian 16 at Wed Apr  9 00:52:25 2025.
 Gaussian 16:  ES64L-G16RevC.01  3-Jul-2019

 ----------------------------------------------------------------------
 #t hf aug-cc-pvdz iop(5/13=1,5/36=2,99/5=2) pseudo=read geom=check gue
 ss=(read,tcheck) scf=(maxcycle=1)
 ----------------------------------------------------------------------
 -----
 title
 -----
 Structure from the checkpoint file:  "BDE49_nonexpt_911_mol1.chk"
 Charge =  0 Multiplicity = 1

                         Standard orientation:
 ---------------------------------------------------------------------
 Center     Atomic      Atomic             Coordinates (Angstroms)
 Number     Number       Type             X           Y           Z
 ---------------------------------------------------------------------
      1         16           0       -0.219640   -0.802948   -0.553072
      2          5           0        1.322020   -0.065127    0.020361
      3         16           0        2.880141   -0.992915   -0.181425
      4          6           0       -1.569708    0.445881   -0.227443
      5          6           0       -1.690207    1.419172   -1.400306
      6          1           0       -0.754630    1.950580   -1.580662
      7          1           0       -2.467636    2.160993   -1.188995
      8          1           0       -1.963797    0.891175   -2.317512
      9          6           0       -2.880370   -0.309326    0.040986
     10          6           0       -2.911993   -1.104095    1.348119
     11          1           0       -3.094660   -0.968965   -0.808025
     12          1           0       -3.681795    0.438864    0.052431
     13          1           0       -2.147008   -1.883331    1.362451
     14          1           0       -3.884075   -1.584788    1.483801
     15          1           0       -2.739921   -0.451325    2.209269
     16          1           0       -1.280934    0.983044    0.679228
     17         16           0        1.380056    1.580517    0.807074
     18          1           0        2.702039    1.611630    1.050485
     19          1           0        2.367084   -2.086505   -0.773633
 ---------------------------------------------------------------------

 SCF Done:  E(RHF) =  -1376.89838559     A.U. after    2 cycles

 The electronic state is 1-A.
 Alpha  occ. eigenvalues --  -75.69798 -75.69447 -75.67840 -13.17593 -13.16827
 Alpha  occ. eigenvalues --  -13.16127 -13.11721 -13.10774 -13.07760 -13.05761
 Alpha  occ. eigenvalues --  -13.05024 -13.03673 -11.44885 -11.41453 -11.38115
 Alpha  occ. eigenvalues --  -11.36138  -8.03826  -8.03328  -8.01926  -7.67661
 Alpha  occ. eigenvalues --   -1.30500  -1.21269  -1.10637  -1.09698  -1.05088
 Alpha  occ. eigenvalues --   -0.92420  -0.82255  -0.68519  -0.62202  -0.60630
 Alpha  occ. eigenvalues --   -0.59658  -0.57290  -0.55145  -0.52253  -0.50023
 Alpha  occ. eigenvalues --   -0.47740  -0.47147  -0.44709  -0.39137  -0.37515
 Alpha  occ. eigenvalues --   -0.33963  -0.31653  -0.25372  -0.24165
 Alpha virt. eigenvalues --    0.02395   0.02646   0.02892   0.03279   0.05644
 Alpha virt. eigenvalues --    0.06011   0.06879   0.07004   0.07466   0.08564
 Alpha virt. eigenvalues --    0.09046   0.09242   0.09605   0.10041   0.10612

 Mulliken charges:
               1
     1  S   -1.314355
     2  B    4.689738
     3  S   -2.830000
     4  C   -0.588505
     5  C   -4.707608
     6  H    1.292420
     7  H    1.209173
     8  H    1.360316
     9  C   -3.236164
    10  C   -3.993868
    11  H    1.479797
    12  H    1.395455
    13  H    1.558758
    14  H    1.088616
    15  H    1.275519
    16  H    2.011227
    17  S   -2.662332
    18  H    0.935986
    19  H    1.035827
 Sum of Mulliken charges =   0.00000

 Dipole moment (field-independent basis, Debye):
    X=             -1.3227    Y=              0.7482    Z=              0.3095  Tot=              1.5508

 Test job not archived.
 1\1\GINC-SE125\SP\RHF\Aug-CC-pVDZ\C4H11B1S3\OHZDE\09-Apr-2025\0\\#t hf
  aug-cc-pvdz iop(5/13=1,5/36=2,99/5=2) pseudo=read geom=check guess=(r
 ead,tcheck) scf=(maxcycle=1)\\title\\0,1\S,0,-0.21964,-0.802948,-0.553
 072\B,0,1.32202,-0.065127,0.020361\S,0,2.880141,-0.992915,-0.181425\C,
 0,-1.569708,0.445881,-0.227443\C,0,-1.690207,1.419172,-1.400306\H,0,-0
 .75463,1.95058,-1.580662\H,0,-2.467636,2.160993,-1.188995\H,0,-1.96379
 7,0.891175,-2.317512\C,0,-2.88037,-0.309326,0.040986\C,0,-2.911993,-1.
 104095,1.348119\H,0,-3.09466,-0.968965,-0.808025\H,0,-3.681795,0.43886

 Normal termination of Gaussian 16 at Wed Apr  9 00:52:35 2025.
