 Gaussian 16, Revision C.01,

 ----------------------------------------------------------------------
 #t hf aug-cc-pvdz symm=none int=(grid=ultrafine) guess=(read,tcheck) s
 table=(opt,rrhf)
 ----------------------------------------------------------------------
 -----
 title
 -----
 Symbolic Z-matrix:
 Charge =  0 Multiplicity = 1

 SCF Done:  E(RHF) =  -193.081503218     A.U. after   13 cycles
 Normal termination of Gaussian 16 at Wed Apr  9 00:36:18 2025.
 Gaussian 16:  ES64L-G16RevC.01  3-Jul-2019

 ----------------------------------------------------------------------
 #t hf aug-cc-pvdz iop(5/13=1,5/36=2,99/5=2) pseudo=read geom=check gue
 ss=(read,tcheck) scf=(maxcycle=1)
 ----------------------------------------------------------------------
 -----
 title
 -----
 Structure from the checkpoint file:  "BDE49_nonexpt_510_mol1.chk"
 Charge =  0 Multiplicity = 1

                         Standard orientation:
 ---------------------------------------------------------------------
 Center     Atomic      Atomic             Coordinates (Angstroms)
 Number     Number       Type             X           Y           Z
 ---------------------------------------------------------------------
      1          1           0       -2.714228   -0.763587   -0.000201
      2          5           0       -1.912658    0.114798   -0.000020
      3          6           0        0.643966   -0.025226    0.000009
      4          8           0        1.805128    0.076939   -0.000008
      5          7           0       -0.541656   -0.219435    0.000010
      6          1           0       -2.235706    1.261487    0.000243
 ---------------------------------------------------------------------

 SCF Done:  E(RHF) =  -193.898553876     A.U. after    2 cycles

 The electronic state is 1-A.
 Alpha  occ. eigenvalues --  -21.13360 -15.75747 -11.60305  -7.66494  -1.78110
 Alpha  occ. eigenvalues --   -1.40506  -0.96276  -0.65692  -0.62715  -0.60835
 Alpha  occ. eigenvalues --   -0.59441  -0.50989  -0.38581  -0.34869
 Alpha virt. eigenvalues --    0.03344   0.03682   0.03836   0.04928   0.09749
 Alpha virt. eigenvalues --    0.10257   0.11365   0.11767   0.12974   0.13384
 Alpha virt. eigenvalues --    0.13794   0.19279   0.20560   0.20657   0.22112

 Mulliken charges:
               1
     1  H   -2.789815
     2  B    6.360387
     3  C    4.331369
     4  O   -2.421198
     5  N   -2.918944
     6  H   -2.561800
 Sum of Mulliken charges =   0.00000

 Dipole moment (field-independent basis, Debye):
    X=              0.7627    Y=              0.3507    Z=             -0.0001  Tot=              0.8395

 Test job not archived.
 1\1\GINC-SE150\SP\RHF\Aug-CC-pVDZ\C1H2B1N1O1\OHZDE\09-Apr-2025\0\\#t h
 f aug-cc-pvdz iop(5/13=1,5/36=2,99/5=2) pseudo=read geom=check guess=(
 read,tcheck) scf=(maxcycle=1)\\title\\0,1\H,0,-2.714228,-0.763587,-0.0
 00201\B,0,-1.912658,0.114798,-0.00002\C,0,0.643966,-0.025226,0.000009\
 O,0,1.805128,0.076939,-0.000008\N,0,-0.541656,-0.219435,0.00001\H,0,-2
 .235706,1.261487,0.000243\\Version=ES64L-G16RevC.01\State=1-A\HF=-193.
 8985539\RMSD=1.723e-01\Dipole=0.300078,0.137963,-0.0000312\Quadrupole=
 -0.9794867,-0.5402747,1.5197614,-0.2047321,0.0000689,-0.0004149\PG=C01

 Normal termination of Gaussian 16 at Wed Apr  9 00:36:20 2025.
