 Gaussian 16, Revision C.01,

 ----------------------------------------------------------------------
 #t hf aug-cc-pvdz symm=none int=(grid=ultrafine) guess=(read,tcheck) s
 table=(opt,rrhf)
 ----------------------------------------------------------------------
 -----
 title
 -----
 Symbolic Z-matrix:
 Charge =  0 Multiplicity = 1

 SCF Done:  E(RHF) =  -966.674784403     A.U. after   18 cycles
 Normal termination of Gaussian 16 at Tue Apr  8 23:03:40 2025.
 Gaussian 16:  ES64L-G16RevC.01  3-Jul-2019

 ----------------------------------------------------------------------
 #t hf aug-cc-pvdz iop(5/13=1,5/36=2,99/5=2) pseudo=read geom=check gue
 ss=(read,tcheck) scf=(maxcycle=1)
 ----------------------------------------------------------------------
 -----
 title
 -----
 Structure from the checkpoint file:  "BDE49_expt_1831_mol1.chk"
 Charge =  0 Multiplicity = 1

                         Standard orientation:
 ---------------------------------------------------------------------
 Center     Atomic      Atomic             Coordinates (Angstroms)
 Number     Number       Type             X           Y           Z
 ---------------------------------------------------------------------
      1          6           0       -2.275126   -1.386008   -0.000069
      2          6           0       -3.590694   -1.839986   -0.000039
      3          6           0       -4.641135   -0.925228    0.000033
      4          6           0       -4.371874    0.446174    0.000075
      5          6           0       -3.062167    0.905833    0.000045
      6          6           0       -2.005929   -0.015280   -0.000027
      7          1           0       -1.436656   -2.071877   -0.000125
      8          1           0       -5.190411    1.157336    0.000130
      9          1           0       -2.838093    1.964502    0.000076
     10          1           0       -3.794832   -2.904557   -0.000072
     11          1           0       -5.667095   -1.275563    0.000057
     12          7           0       -0.623799    0.333748   -0.000065
     13          7           0       -0.391650    1.553340   -0.000026
     14         16           0        1.266774    2.060017   -0.000031
     15          6           0        2.250040    0.570009   -0.000000
     16          6           0        2.635575   -0.012549   -1.210822
     17          6           0        2.635570   -0.012505    1.210845
     18          6           0        3.415365   -1.165655    1.207885
     19          6           0        3.415371   -1.165699   -1.207816
     20          6           0        3.806124   -1.741374    0.000046
     21          1           0        3.717118   -1.614374    2.147471
     22          1           0        4.415577   -2.638064    0.000063
     23          1           0        2.325147    0.440419    2.144462
     24          1           0        2.325156    0.440341   -2.144457
     25          1           0        3.717128   -1.614453   -2.147385
 ---------------------------------------------------------------------

 SCF Done:  E(RHF) =  -969.593908390     A.U. after    2 cycles

 The electronic state is 1-A.
 Alpha  occ. eigenvalues --  -75.71143 -15.81237 -15.79350 -13.20811 -13.17787
 Alpha  occ. eigenvalues --  -13.08843 -11.52653 -11.52532 -11.44581 -11.44513
 Alpha  occ. eigenvalues --  -11.44085 -11.43602 -11.42188 -11.41741 -11.41261
 Alpha  occ. eigenvalues --  -11.41017 -11.37346 -11.36933  -8.05300  -1.56558
 Alpha  occ. eigenvalues --   -1.36433  -1.33247  -1.20111  -1.11485  -1.10163
 Alpha  occ. eigenvalues --   -1.09767  -1.04330  -0.92855  -0.87478  -0.87220
 Alpha  occ. eigenvalues --   -0.84855  -0.79294  -0.72203  -0.70908  -0.66482
 Alpha  occ. eigenvalues --   -0.64586  -0.61597  -0.60366  -0.59356  -0.58690
 Alpha  occ. eigenvalues --   -0.58492  -0.56720  -0.54176  -0.52408  -0.49678
 Alpha  occ. eigenvalues --   -0.48955  -0.47400  -0.45936  -0.44577  -0.38221
 Alpha  occ. eigenvalues --   -0.34322  -0.34130  -0.33801  -0.33546  -0.31542
 Alpha  occ. eigenvalues --   -0.23813
 Alpha virt. eigenvalues --    0.03248   0.04264   0.05071   0.05113   0.05347
 Alpha virt. eigenvalues --    0.05529   0.06066   0.06546   0.07131   0.07775
 Alpha virt. eigenvalues --    0.08500   0.08501   0.09643   0.10894   0.11013

 Mulliken charges:
               1
     1  C   -1.963991
     2  C   -0.361105
     3  C   -2.771387
     4  C   -0.611920
     5  C   -2.920023
     6  C    4.009602
     7  H    1.722123
     8  H    1.510715
     9  H    1.762893
    10  H    1.527321
    11  H    1.564818
    12  N   -2.878946
    13  N   -1.334191
    14  S    1.320724
    15  C    2.351712
    16  C   -3.186054
    17  C   -3.186066
    18  C   -1.465945
    19  C   -1.465998
    20  C   -1.890675
    21  H    1.554867
    22  H    1.538290
    23  H    1.809190
    24  H    1.809187
    25  H    1.554861
 Sum of Mulliken charges =  -0.00000

 Dipole moment (field-independent basis, Debye):
    X=              1.0054    Y=             -0.4846    Z=              0.0001  Tot=              1.1161

 Test job not archived.
 1\1\GINC-SE221\SP\RHF\Aug-CC-pVDZ\C12H10N2S1\OHZDE\08-Apr-2025\0\\#t h
 f aug-cc-pvdz iop(5/13=1,5/36=2,99/5=2) pseudo=read geom=check guess=(
 read,tcheck) scf=(maxcycle=1)\\title\\0,1\C,0,-2.275126,-1.386008,-0.0
 00069\C,0,-3.590694,-1.839986,-0.000039\C,0,-4.641135,-0.925228,0.0000
 33\C,0,-4.371874,0.446174,0.000075\C,0,-3.062167,0.905833,0.000045\C,0
 ,-2.005929,-0.01528,-0.000027\H,0,-1.436656,-2.071877,-0.000125\H,0,-5
 .190411,1.157336,0.00013\H,0,-2.838093,1.964502,0.000076\H,0,-3.794832
 ,-2.904557,-0.000072\H,0,-5.667095,-1.275563,0.000057\N,0,-0.623799,0.

 Normal termination of Gaussian 16 at Tue Apr  8 23:04:05 2025.
