 Gaussian 16, Revision C.01,

 ----------------------------------------------------------------------
 #t hf aug-cc-pvdz symm=none int=(grid=ultrafine) guess=(read,tcheck) s
 table=(opt,rrhf)
 ----------------------------------------------------------------------
 -----
 title
 -----
 Symbolic Z-matrix:
 Charge =  0 Multiplicity = 1

 SCF Done:  E(RHF) =  -402.582139486     A.U. after   14 cycles
 Normal termination of Gaussian 16 at Tue Apr  8 23:21:59 2025.
 Gaussian 16:  ES64L-G16RevC.01  3-Jul-2019

 ----------------------------------------------------------------------
 #t hf aug-cc-pvdz iop(5/13=1,5/36=2,99/5=2) pseudo=read geom=check gue
 ss=(read,tcheck) scf=(maxcycle=1)
 ----------------------------------------------------------------------
 -----
 title
 -----
 Structure from the checkpoint file:  "BDE49_nonexpt_1166_mol1.chk"
 Charge =  0 Multiplicity = 1

                         Standard orientation:
 ---------------------------------------------------------------------
 Center     Atomic      Atomic             Coordinates (Angstroms)
 Number     Number       Type             X           Y           Z
 ---------------------------------------------------------------------
      1          9           0       -1.033782    1.358102   -0.503123
      2          8           0       -0.658936    0.729854    0.747470
      3          6           0       -0.187071   -0.582679    0.411198
      4          8           0        0.903610   -0.551310   -0.431595
      5          8           0       -1.147361   -1.384078   -0.134052
      6          6           0        1.991954    0.271098   -0.003640
      7          1           0        1.719839    1.328027   -0.030171
      8          1           0        2.804588    0.079495   -0.701849
      9          1           0        2.313728    0.001453    1.009097
     10          1           0       -1.185202   -1.181610   -1.077787
     11          1           0        0.043291   -0.936527    1.428884
 ---------------------------------------------------------------------

 SCF Done:  E(RHF) =  -404.201143489     A.U. after    2 cycles

 The electronic state is 1-A.
 Alpha  occ. eigenvalues --  -29.29367 -21.15895 -21.10515 -21.08082 -11.51197
 Alpha  occ. eigenvalues --  -11.42301  -1.90256  -1.74299  -1.70551  -1.03536
 Alpha  occ. eigenvalues --   -0.93609  -0.72083  -0.70169  -0.67625  -0.61921
 Alpha  occ. eigenvalues --   -0.59995  -0.56982  -0.51064  -0.43332  -0.42207
 Alpha  occ. eigenvalues --   -0.36394  -0.35606  -0.33567  -0.26691  -0.22638
 Alpha virt. eigenvalues --    0.03802   0.05314   0.05810   0.06156   0.06658
 Alpha virt. eigenvalues --    0.11067   0.11594   0.13056   0.14656   0.14980
 Alpha virt. eigenvalues --    0.15731   0.16537   0.18523   0.21098   0.21953

 Mulliken charges:
               1
     1  F   -0.194882
     2  O   -1.556203
     3  C    4.346776
     4  O   -3.033605
     5  O   -2.903203
     6  C   -2.935071
     7  H    1.308447
     8  H    1.282353
     9  H    1.272298
    10  H    0.687575
    11  H    1.725514
 Sum of Mulliken charges =   0.00000

 Dipole moment (field-independent basis, Debye):
    X=              0.7718    Y=              0.6291    Z=             -1.2828  Tot=              1.6239

 Test job not archived.
 1\1\GINC-SE398\SP\RHF\Aug-CC-pVDZ\C2H5F1O3\OHZDE\08-Apr-2025\0\\#t hf
 aug-cc-pvdz iop(5/13=1,5/36=2,99/5=2) pseudo=read geom=check guess=(re
 ad,tcheck) scf=(maxcycle=1)\\title\\0,1\F,0,1.033783,-1.358102,-0.5031
 23\O,0,0.658936,-0.729854,0.74747\C,0,0.187071,0.582679,0.411198\O,0,-
 0.90361,0.55131,-0.431595\O,0,1.147361,1.384078,-0.134052\C,0,-1.99195
 4,-0.271099,-0.00364\H,0,-1.719838,-1.328028,-0.030171\H,0,-2.804588,-
 0.079496,-0.701849\H,0,-2.313728,-0.001454,1.009097\H,0,1.185202,1.181
 61,-1.077787\H,0,-0.043291,0.936527,1.428884\\Version=ES64L-G16RevC.01

 Normal termination of Gaussian 16 at Tue Apr  8 23:22:03 2025.
