 Gaussian 16, Revision C.01,

 ----------------------------------------------------------------------
 #t hf aug-cc-pvdz symm=none int=(grid=ultrafine) guess=(read,tcheck) s
 table=opt
 ----------------------------------------------------------------------
 -----
 title
 -----
 Symbolic Z-matrix:
 Charge =  0 Multiplicity = 2

 SCF Done:  E(UHF) =  -156.684931033     A.U. after   15 cycles
 Normal termination of Gaussian 16 at Tue Apr  8 22:41:41 2025.
 Gaussian 16:  ES64L-G16RevC.01  3-Jul-2019

 ----------------------------------------------------------------------
 #t hf aug-cc-pvdz iop(5/13=1,5/36=2,99/5=2) pseudo=read geom=check gue
 ss=(read,tcheck) scf=(maxcycle=1)
 ----------------------------------------------------------------------
 -----
 title
 -----
 Structure from the checkpoint file:  "BDE49_expt_1338_mol2.chk"
 Charge =  0 Multiplicity = 2

                         Standard orientation:
 ---------------------------------------------------------------------
 Center     Atomic      Atomic             Coordinates (Angstroms)
 Number     Number       Type             X           Y           Z
 ---------------------------------------------------------------------
      1          6           0        0.000010    1.483372    0.102728
      2          6           0        0.000001    0.059637   -0.347678
      3          6           0        1.271155   -0.680749    0.101758
      4          1           0        2.171713   -0.167977   -0.247981
      5          1           0        1.291471   -1.701091   -0.291757
      6          1           0        1.320343   -0.737652    1.193668
      7          6           0       -1.271164   -0.680733    0.101751
      8          1           0        0.000005    0.053021   -1.453912
      9          1           0       -1.291489   -1.701076   -0.291761
     10          1           0       -2.171714   -0.167951   -0.247994
     11          1           0       -1.320359   -0.737633    1.193662
     12          1           0        0.928065    2.035601    0.197320
     13          1           0       -0.928043    2.035591    0.197401
 ---------------------------------------------------------------------

 SCF Done:  E(UHF) =  -157.489479355     A.U. after    2 cycles

 The electronic state is 2-A.
 Alpha  occ. eigenvalues --  -11.40558 -11.38102 -11.37738 -11.34251  -1.24774
 Alpha  occ. eigenvalues --   -0.99605  -0.98426  -0.79878  -0.63133  -0.60566
 Alpha  occ. eigenvalues --   -0.59017  -0.53143  -0.51352  -0.47531  -0.45332
 Alpha  occ. eigenvalues --   -0.43394  -0.31307
 Alpha virt. eigenvalues --    0.03874   0.05956   0.05977   0.06050   0.06251
 Alpha virt. eigenvalues --    0.06301   0.06617   0.06960   0.09126   0.12211
 Alpha virt. eigenvalues --    0.12941   0.14377   0.14620   0.15878   0.15973

  Beta  occ. eigenvalues --  -11.40587 -11.37666 -11.36599 -11.33729  -1.23291
  Beta  occ. eigenvalues --   -0.99486  -0.92915  -0.77896  -0.61919  -0.59635
  Beta  occ. eigenvalues --   -0.58731  -0.53082  -0.51047  -0.45700  -0.44180
  Beta  occ. eigenvalues --   -0.43246
  Beta virt. eigenvalues --    0.03728   0.05908   0.05956   0.06073   0.06277
  Beta virt. eigenvalues --    0.06327   0.06532   0.06975   0.09127   0.09131
  Beta virt. eigenvalues --    0.12767   0.14369   0.14694   0.15176   0.15987

 Mulliken charges and spin densities:
               1          2
     1  C   -2.718118   1.565426
     2  C   -2.035363  -0.542201
     3  C   -3.670225   0.059347
     4  H    1.198950  -0.008112
     5  H    1.260819   0.001041
     6  H    1.347438   0.004055
     7  C   -3.670246   0.059338
     8  H    1.609895  -0.001004
     9  H    1.260823   0.001040
    10  H    1.198947  -0.008111
    11  H    1.347424   0.004057
    12  H    1.434826  -0.067438
    13  H    1.434830  -0.067437
 Sum of Mulliken charges =   0.00000   1.00000

 Dipole moment (field-independent basis, Debye):
    X=             -0.0000    Y=             -0.0668    Z=             -0.2918  Tot=              0.2994
                          Isotropic Fermi Contact Couplings
        Atom                 a.u.       MegaHertz       Gauss      10(-4) cm-1
     1  C(13)              0.12756     143.40143      51.16920      47.83357
     2  C(13)             -0.03501     -39.35967     -14.04451     -13.12897
     3  C(13)              0.01576      17.71394       6.32077       5.90873
     4  H(1)              -0.00054      -2.42858      -0.86658      -0.81009
     5  H(1)              -0.00042      -1.88559      -0.67282      -0.62896
     6  H(1)              -0.00064      -2.86687      -1.02297      -0.95628
     7  C(13)              0.01575      17.70930       6.31912       5.90719
     8  H(1)               0.01886      84.31073      30.08416      28.12303

 Normal termination of Gaussian 16 at Tue Apr  8 22:41:45 2025.
