 Gaussian 16, Revision C.01,

 ----------------------------------------------------------------------
 #t hf aug-cc-pvdz symm=none int=(grid=ultrafine) guess=(read,tcheck) s
 table=(opt,rrhf)
 ----------------------------------------------------------------------
 -----
 title
 -----
 Symbolic Z-matrix:
 Charge =  0 Multiplicity = 1

 SCF Done:  E(RHF) =  -541.187462580     A.U. after   14 cycles
 Normal termination of Gaussian 16 at Tue Apr  8 23:05:45 2025.
 Gaussian 16:  ES64L-G16RevC.01  3-Jul-2019

 ----------------------------------------------------------------------
 #t hf aug-cc-pvdz iop(5/13=1,5/36=2,99/5=2) pseudo=read geom=check gue
 ss=(read,tcheck) scf=(maxcycle=1)
 ----------------------------------------------------------------------
 -----
 title
 -----
 Structure from the checkpoint file:  "BDE49_expt_1860_mol1.chk"
 Charge =  0 Multiplicity = 1

                         Standard orientation:
 ---------------------------------------------------------------------
 Center     Atomic      Atomic             Coordinates (Angstroms)
 Number     Number       Type             X           Y           Z
 ---------------------------------------------------------------------
      1          8           0       -0.097898    0.535877    0.585984
      2          8           0       -0.813321   -0.277012   -0.408529
      3          6           0       -2.185287   -0.412703    0.027040
      4          6           0       -2.240480   -1.117898    1.386841
      5          1           0       -3.278535   -1.287108    1.686034
      6          1           0       -1.753003   -0.514740    2.153206
      7          1           0       -1.732996   -2.083896    1.332776
      8          6           0       -2.874891    0.954706    0.070718
      9          1           0       -3.929890    0.840046    0.334220
     10          1           0       -2.813833    1.443085   -0.904721
     11          1           0       -2.401604    1.598995    0.811907
     12          6           0       -2.777354   -1.295871   -1.076120
     13          1           0       -2.704991   -0.801553   -2.047363
     14          1           0       -3.830874   -1.494822   -0.865590
     15          1           0       -2.247431   -2.249107   -1.130697
     16          6           0        1.068346    1.102173   -0.054716
     17          6           0        0.650608    2.050939   -1.183696
     18          1           0        0.128063    1.505269   -1.969699
     19          1           0        1.529926    2.531513   -1.621286
     20          1           0       -0.012824    2.829738   -0.800108
     21          6           0        1.708110    1.884951    1.097967
     22          1           0        1.040664    2.682020    1.432435
     23          1           0        2.645074    2.336360    0.762454
     24          1           0        1.919008    1.235859    1.948640
     25          6           0        1.988961   -0.011828   -0.596712
     26          6           0        2.398756   -1.091035    0.410885
     27          1           0        2.883891    0.467166   -1.012851
     28          1           0        1.474865   -0.489607   -1.435785
     29          6           0        3.204459   -2.219262   -0.241017
     30          1           0        1.497237   -1.500614    0.874226
     31          1           0        2.991665   -0.649193    1.218811
     32          1           0        2.625286   -2.714674   -1.026449
     33          1           0        3.488291   -2.979898    0.491616
     34          1           0        4.124390   -1.840783   -0.698559
 ---------------------------------------------------------------------

 SCF Done:  E(RHF) =  -543.853078361     A.U. after    2 cycles

 The electronic state is 1-A.
 Alpha  occ. eigenvalues --  -21.06690 -21.06478 -11.45938 -11.44808 -11.42064
 Alpha  occ. eigenvalues --  -11.39487 -11.39303 -11.38952 -11.38599 -11.36244
 Alpha  occ. eigenvalues --  -11.34810 -11.33968  -1.92592  -1.49528  -1.23041
 Alpha  occ. eigenvalues --   -1.18348  -1.12599  -1.01157  -1.00867  -1.00819
 Alpha  occ. eigenvalues --   -0.98788  -0.85138  -0.79256  -0.75206  -0.65223
 Alpha  occ. eigenvalues --   -0.63326  -0.62268  -0.61818  -0.61264  -0.59115
 Alpha  occ. eigenvalues --   -0.58246  -0.55532  -0.54899  -0.54509  -0.53773
 Alpha  occ. eigenvalues --   -0.53022  -0.51252  -0.50202  -0.48500  -0.47196
 Alpha  occ. eigenvalues --   -0.46739  -0.45971  -0.44766  -0.42735  -0.41686
 Alpha  occ. eigenvalues --   -0.39803  -0.37171  -0.32625  -0.23911
 Alpha virt. eigenvalues --    0.04072   0.04213   0.04409   0.04682   0.04760
 Alpha virt. eigenvalues --    0.05177   0.05778   0.06208   0.06683   0.06939
 Alpha virt. eigenvalues --    0.07092   0.07293   0.07887   0.08073   0.08630

 Mulliken charges:
               1
     1  O   -2.936179
     2  O   -2.831386
     3  C    4.565729
     4  C   -4.530921
     5  H    1.187379
     6  H    1.370969
     7  H    1.348366
     8  C   -4.602513
     9  H    1.147664
    10  H    1.374909
    11  H    1.332794
    12  C   -4.307121
    13  H    1.330249
    14  H    1.125992
    15  H    1.379275
    16  C    7.122815
    17  C   -5.872447
    18  H    1.298057
    19  H    1.149001
    20  H    1.347282
    21  C   -4.764573
    22  H    1.336288
    23  H    1.114101
    24  H    1.526185
    25  C   -3.829135
    26  C   -3.180738
    27  H    1.398897
    28  H    1.720589
    29  C   -4.476812
    30  H    1.895700
    31  H    1.555363
    32  H    1.347305
    33  H    1.072047
    34  H    1.284868
 Sum of Mulliken charges =  -0.00000

 Dipole moment (field-independent basis, Debye):
    X=             -0.1966    Y=              0.1261    Z=              0.0572  Tot=              0.2405

 Test job not archived.
 1\1\GINC-SE212\SP\RHF\Aug-CC-pVDZ\C10H22O2\OHZDE\08-Apr-2025\0\\#t hf
 aug-cc-pvdz iop(5/13=1,5/36=2,99/5=2) pseudo=read geom=check guess=(re
 ad,tcheck) scf=(maxcycle=1)\\title\\0,1\O,0,-0.097898,0.535877,0.58598
 4\O,0,-0.813321,-0.277012,-0.408529\C,0,-2.185287,-0.412703,0.02704\C,
 0,-2.24048,-1.117898,1.386841\H,0,-3.278535,-1.287108,1.686034\H,0,-1.
 753003,-0.51474,2.153206\H,0,-1.732996,-2.083896,1.332776\C,0,-2.87489
 1,0.954706,0.070718\H,0,-3.92989,0.840046,0.33422\H,0,-2.813833,1.4430
 85,-0.904721\H,0,-2.401604,1.598995,0.811907\C,0,-2.777354,-1.295871,-

 Normal termination of Gaussian 16 at Tue Apr  8 23:06:22 2025.
