 Gaussian 16, Revision C.01,

 ----------------------------------------------------------------------
 #t hf aug-cc-pvdz symm=none int=(grid=ultrafine) guess=(read,tcheck) s
 table=opt
 ----------------------------------------------------------------------
 -----
 title
 -----
 Symbolic Z-matrix:
 Charge =  0 Multiplicity = 2

 SCF Done:  E(UHF) =  -1247.50923576     A.U. after   16 cycles
 Normal termination of Gaussian 16 at Tue Apr  8 23:57:25 2025.
 Gaussian 16:  ES64L-G16RevC.01  3-Jul-2019

 ----------------------------------------------------------------------
 #t hf aug-cc-pvdz iop(5/13=1,5/36=2,99/5=2) pseudo=read geom=check gue
 ss=(read,tcheck) scf=(maxcycle=1)
 ----------------------------------------------------------------------
 -----
 title
 -----
 Structure from the checkpoint file:  "BDE49_nonexpt_2025_mol2.chk"
 Charge =  0 Multiplicity = 2

                         Standard orientation:
 ---------------------------------------------------------------------
 Center     Atomic      Atomic             Coordinates (Angstroms)
 Number     Number       Type             X           Y           Z
 ---------------------------------------------------------------------
      1         14           0        1.534921   -0.942654   -0.033455
      2          6           0       -0.034212   -0.003574    0.507581
      3         17           0       -1.510871   -0.858311   -0.078977
      4         17           0        0.015351    1.704643   -0.107389
      5          1           0       -0.140591    0.078684    1.585438
      6          1           0        1.561802   -1.010291   -1.511496
      7          1           0        2.718999   -0.237451    0.517164
 ---------------------------------------------------------------------

 SCF Done:  E(UHF) =  -1248.32389000     A.U. after    2 cycles

 The electronic state is 2-A.
 Alpha  occ. eigenvalues --  -99.90453 -99.90342 -76.25563 -11.47769 -10.47733
 Alpha  occ. eigenvalues --  -10.47515  -9.67529  -9.67467  -9.66846  -9.66821
 Alpha  occ. eigenvalues --   -9.66704  -9.66621  -5.58927  -2.22156  -2.21007
 Alpha  occ. eigenvalues --   -2.20220  -1.39015  -1.28608  -0.99788  -0.78455
 Alpha  occ. eigenvalues --   -0.68445  -0.64827  -0.59986  -0.53332  -0.50918
 Alpha  occ. eigenvalues --   -0.50059  -0.49335  -0.44120  -0.30353
 Alpha virt. eigenvalues --    0.02085   0.03587   0.05658   0.06114   0.07118
 Alpha virt. eigenvalues --    0.07272   0.07469   0.09442   0.10735   0.12825
 Alpha virt. eigenvalues --    0.13622   0.14485   0.15292   0.15778   0.16054

  Beta  occ. eigenvalues --  -99.90454 -99.90275 -76.24996 -11.47743 -10.47723
  Beta  occ. eigenvalues --  -10.47451  -9.67535  -9.67257  -9.66846  -9.66769
  Beta  occ. eigenvalues --   -9.66653  -9.66582  -5.58032  -2.21466  -2.20360
  Beta  occ. eigenvalues --   -2.16622  -1.38776  -1.28322  -0.99217  -0.74880
  Beta  occ. eigenvalues --   -0.68070  -0.64353  -0.59127  -0.53096  -0.50682
  Beta  occ. eigenvalues --   -0.49833  -0.48617  -0.43408
  Beta virt. eigenvalues --    0.01109   0.03304   0.04036   0.05801   0.06361
  Beta virt. eigenvalues --    0.07442   0.07626   0.08822   0.09717   0.11029
  Beta virt. eigenvalues --    0.13435   0.14023   0.15170   0.15871   0.16022

 Mulliken charges and spin densities:
               1          2
     1  Si   4.148979   0.982985
     2  C   -3.630717  -0.022326
     3  Cl   0.253676  -0.015354
     4  Cl   0.230997   0.027702
     5  H    1.947054   0.003944
     6  H   -1.510640   0.009357
     7  H   -1.439348   0.013692
 Sum of Mulliken charges =  -0.00000   1.00000

 Dipole moment (field-independent basis, Debye):
    X=              1.4829    Y=             -1.2862    Z=              1.1836  Tot=              2.2921
                          Isotropic Fermi Contact Couplings
        Atom                 a.u.       MegaHertz       Gauss      10(-4) cm-1
     1  Si(29)             0.50961    -452.90149    -161.60652    -151.07168
     2  C(13)              0.02947      33.12902      11.82126      11.05065
     3  Cl(35)            -0.00106      -0.46336      -0.16534      -0.15456
     4  Cl(35)             0.03840      16.83479       6.00707       5.61548
     5  H(1)               0.00004       0.15914       0.05679       0.05308
     6  H(1)               0.00629      28.10510      10.02860       9.37485
     7  H(1)               0.00787      35.17288      12.55056      11.73241
 --------------------------------------------------------

 Normal termination of Gaussian 16 at Tue Apr  8 23:57:28 2025.
