 Gaussian 16, Revision C.01,

 ----------------------------------------------------------------------
 #t hf aug-cc-pvdz symm=none int=(grid=ultrafine) guess=(read,tcheck) s
 table=(opt,rrhf)
 ----------------------------------------------------------------------
 -----
 title
 -----
 Symbolic Z-matrix:
 Charge =  0 Multiplicity = 1

 SCF Done:  E(RHF) =  -518.211360509     A.U. after   16 cycles
 Normal termination of Gaussian 16 at Tue Apr  8 23:23:16 2025.
 Gaussian 16:  ES64L-G16RevC.01  3-Jul-2019

 ----------------------------------------------------------------------
 #t hf aug-cc-pvdz iop(5/13=1,5/36=2,99/5=2) pseudo=read geom=check gue
 ss=(read,tcheck) scf=(maxcycle=1)
 ----------------------------------------------------------------------
 -----
 title
 -----
 Structure from the checkpoint file:  "BDE49_nonexpt_1178_mol1.chk"
 Charge =  0 Multiplicity = 1

                         Standard orientation:
 ---------------------------------------------------------------------
 Center     Atomic      Atomic             Coordinates (Angstroms)
 Number     Number       Type             X           Y           Z
 ---------------------------------------------------------------------
      1          9           0        3.413374   -0.246314    0.844415
      2          8           0        2.727398   -0.167709   -0.552341
      3          6           0        1.414555   -0.021952   -0.317325
      4          6           0        0.859157    1.263247   -0.178017
      5          6           0       -0.503259    1.411972   -0.032453
      6          6           0       -1.336385    0.277407   -0.003366
      7          6           0        0.587505   -1.150071   -0.264008
      8          1           0        1.042835   -2.128958   -0.350737
      9          6           0       -0.785108   -1.008443   -0.121925
     10          1           0       -1.414290   -1.887328   -0.100083
     11          1           0        1.521810    2.119568   -0.199851
     12          8           0       -2.655422    0.531723    0.141817
     13          6           0       -3.572204   -0.559153    0.192061
     14          1           0       -3.549918   -1.139396   -0.735763
     15          1           0       -4.555474   -0.109807    0.314327
     16          1           0       -3.362834   -1.214568    1.043202
     17          1           0       -0.963868    2.387160    0.063552
 ---------------------------------------------------------------------

 SCF Done:  E(RHF) =  -520.440279941     A.U. after    2 cycles

 The electronic state is 1-A.
 Alpha  occ. eigenvalues --  -29.25472 -21.16882 -21.09745 -11.55691 -11.48858
 Alpha  occ. eigenvalues --  -11.45332 -11.45100 -11.43269 -11.42327 -11.39145
 Alpha  occ. eigenvalues --   -1.81512  -1.78914  -1.31732  -1.12700  -1.08784
 Alpha  occ. eigenvalues --   -0.99920  -0.90541  -0.84690  -0.73020  -0.69309
 Alpha  occ. eigenvalues --   -0.66301  -0.65004  -0.64222  -0.61470  -0.60215
 Alpha  occ. eigenvalues --   -0.56786  -0.53744  -0.51090  -0.48721  -0.43282
 Alpha  occ. eigenvalues --   -0.41467  -0.40932  -0.35912  -0.34059  -0.26089
 Alpha  occ. eigenvalues --   -0.22440  -0.20973
 Alpha virt. eigenvalues --    0.02962   0.04486   0.05247   0.05661   0.06277
 Alpha virt. eigenvalues --    0.06585   0.07720   0.08615   0.10338   0.11235
 Alpha virt. eigenvalues --    0.11360   0.12604   0.12975   0.13178   0.13505

 Mulliken charges:
               1
     1  F   -0.258866
     2  O   -3.173988
     3  C    4.867419
     4  C   -3.112959
     5  C   -1.326050
     6  C    4.119247
     7  C   -2.703411
     8  H    1.594396
     9  C   -0.929430
    10  H    1.839943
    11  H    1.605819
    12  O   -4.749944
    13  C   -3.745845
    14  H    1.371851
    15  H    1.401557
    16  H    1.386996
    17  H    1.813264
 Sum of Mulliken charges =  -0.00000

 Dipole moment (field-independent basis, Debye):
    X=             -1.9465    Y=             -0.3704    Z=              1.1673  Tot=              2.2997

 Test job not archived.
 1\1\GINC-SE402\SP\RHF\Aug-CC-pVDZ\C7H7F1O2\OHZDE\08-Apr-2025\0\\#t hf
 aug-cc-pvdz iop(5/13=1,5/36=2,99/5=2) pseudo=read geom=check guess=(re
 ad,tcheck) scf=(maxcycle=1)\\title\\0,1\F,0,3.413374,-0.246314,0.84441
 5\O,0,2.727398,-0.167709,-0.552341\C,0,1.414555,-0.021952,-0.317325\C,
 0,0.859157,1.263247,-0.178017\C,0,-0.503259,1.411972,-0.032453\C,0,-1.
 336385,0.277407,-0.003366\C,0,0.587505,-1.150071,-0.264008\H,0,1.04283
 5,-2.128958,-0.350737\C,0,-0.785108,-1.008443,-0.121925\H,0,-1.41429,-
 1.887328,-0.100083\H,0,1.52181,2.119568,-0.199851\O,0,-2.655422,0.5317

 Normal termination of Gaussian 16 at Tue Apr  8 23:23:24 2025.
