 Gaussian 16, Revision C.01,

 ----------------------------------------------------------------------
 #t hf aug-cc-pvdz symm=none int=(grid=ultrafine) guess=(read,tcheck) s
 table=(opt,rrhf)
 ----------------------------------------------------------------------
 -----
 title
 -----
 Symbolic Z-matrix:
 Charge =  0 Multiplicity = 1

 SCF Done:  E(RHF) =  -2832.71273265     A.U. after   12 cycles
 Normal termination of Gaussian 16 at Tue Apr  8 22:30:49 2025.
 Gaussian 16:  ES64L-G16RevC.01  3-Jul-2019

 ----------------------------------------------------------------------
 #t hf aug-cc-pvdz iop(5/13=1,5/36=2,99/5=2) pseudo=read geom=check gue
 ss=(read,tcheck) scf=(maxcycle=1)
 ----------------------------------------------------------------------
 -----
 title
 -----
 Structure from the checkpoint file:  "BDE49_expt_1011_mol1.chk"
 Charge =  0 Multiplicity = 1

                         Standard orientation:
 ---------------------------------------------------------------------
 Center     Atomic      Atomic             Coordinates (Angstroms)
 Number     Number       Type             X           Y           Z
 ---------------------------------------------------------------------
      1          6           0        0.795513   -0.000004   -0.000020
      2          6           0       -0.795513    0.000004    0.000020
      3         17           0        1.406392    0.729108    1.514357
      4         17           0        1.406234    0.947080   -1.388614
      5         17           0        1.406442   -1.676022   -0.125892
      6         17           0       -1.406234   -0.947051    1.388633
      7         17           0       -1.406393   -0.729139   -1.514342
      8         17           0       -1.406441    1.676024    0.125858
 ---------------------------------------------------------------------

 SCF Done:  E(RHF) =  -2834.55414816     A.U. after    2 cycles

 The electronic state is 1-A.
 Alpha  occ. eigenvalues --  -99.92932 -99.92931 -99.92921 -99.92921 -99.92914
 Alpha  occ. eigenvalues --  -99.92908 -11.60870 -11.57059 -10.50494 -10.50465
 Alpha  occ. eigenvalues --  -10.50262 -10.50262 -10.50173 -10.50173  -9.70305
 Alpha  occ. eigenvalues --   -9.70304  -9.70201  -9.70201  -9.70090  -9.69989
 Alpha  occ. eigenvalues --   -9.69483  -9.69465  -9.69456  -9.69456  -9.69344
 Alpha  occ. eigenvalues --   -9.69344  -9.69285  -9.69282  -9.69282  -9.69236
 Alpha  occ. eigenvalues --   -9.69131  -9.69130  -1.52734  -1.41216  -1.32528
 Alpha  occ. eigenvalues --   -1.32528  -1.32005  -1.32004  -1.08733  -0.92500
 Alpha  occ. eigenvalues --   -0.77113  -0.76139  -0.76139  -0.68440  -0.68440
 Alpha  occ. eigenvalues --   -0.57792  -0.57791  -0.57699  -0.56739  -0.56738
 Alpha  occ. eigenvalues --   -0.53741  -0.53740  -0.53141  -0.50267  -0.50261
 Alpha  occ. eigenvalues --   -0.50261  -0.49514
 Alpha virt. eigenvalues --   -0.01520   0.00413   0.03690   0.03690   0.04671
 Alpha virt. eigenvalues --    0.06732   0.06732   0.08926   0.09539   0.09539
 Alpha virt. eigenvalues --    0.11463   0.11463   0.11874   0.14201   0.15280

 Mulliken charges:
               1
     1  C   -0.402442
     2  C   -0.402442
     3  Cl   0.134151
     4  Cl   0.134162
     5  Cl   0.134130
     6  Cl   0.134162
     7  Cl   0.134150
     8  Cl   0.134130
 Sum of Mulliken charges =  -0.00000

 Dipole moment (field-independent basis, Debye):
    X=             -0.0000    Y=              0.0000    Z=             -0.0000  Tot=              0.0000

 Test job not archived.
 1\1\GINC-SE094\SP\RHF\Aug-CC-pVDZ\C2Cl6\OHZDE\08-Apr-2025\0\\#t hf aug
 -cc-pvdz iop(5/13=1,5/36=2,99/5=2) pseudo=read geom=check guess=(read,
 tcheck) scf=(maxcycle=1)\\title\\0,1\C,0,-0.795513,0.000004,-0.00002\C
 ,0,0.795513,-0.000004,0.00002\Cl,0,-1.406393,-0.726962,1.515388\Cl,0,-
 1.406233,-0.949046,-1.387271\Cl,0,-1.406442,1.675842,-0.128267\Cl,0,1.
 406233,0.949018,1.387291\Cl,0,1.406394,0.726993,-1.515373\Cl,0,1.40644
 1,-1.675844,0.128233\\Version=ES64L-G16RevC.01\State=1-A\HF=-2834.5541
 482\RMSD=1.058e-01\Dipole=0.,-0.0000018,-0.0000003\Quadrupole=-1.88315

 Normal termination of Gaussian 16 at Tue Apr  8 22:30:54 2025.
