 Gaussian 16, Revision C.01,

 ----------------------------------------------------------------------
 #t hf aug-cc-pvdz symm=none int=(grid=ultrafine) guess=(read,tcheck) s
 table=(opt,rrhf)
 ----------------------------------------------------------------------
 -----
 title
 -----
 Symbolic Z-matrix:
 Charge =  0 Multiplicity = 1

 SCF Done:  E(RHF) =  -1219.59202747     A.U. after   15 cycles
 Normal termination of Gaussian 16 at Tue Apr  8 23:24:25 2025.
 Gaussian 16:  ES64L-G16RevC.01  3-Jul-2019

 ----------------------------------------------------------------------
 #t hf aug-cc-pvdz iop(5/13=1,5/36=2,99/5=2) pseudo=read geom=check gue
 ss=(read,tcheck) scf=(maxcycle=1)
 ----------------------------------------------------------------------
 -----
 title
 -----
 Structure from the checkpoint file:  "BDE49_nonexpt_1231_mol1.chk"
 Charge =  0 Multiplicity = 1

                         Standard orientation:
 ---------------------------------------------------------------------
 Center     Atomic      Atomic             Coordinates (Angstroms)
 Number     Number       Type             X           Y           Z
 ---------------------------------------------------------------------
      1         16           0       -0.896931   -1.030633   -0.203780
      2          8           0        0.215258   -0.346480    0.782172
      3          8           0        1.069403    0.671639    0.031737
      4          6           0       -2.257442    0.192296   -0.026535
      5          9           0       -3.296353   -0.333824   -0.697471
      6          9           0       -1.951875    1.377484   -0.555784
      7          9           0       -2.608010    0.382958    1.244696
      8          6           0        2.326128    0.129459   -0.052798
      9          9           0        2.337183   -1.019820   -0.746516
     10          9           0        2.865259   -0.112752    1.142525
     11          9           0        3.060628    1.034656   -0.695760
 ---------------------------------------------------------------------

 SCF Done:  E(RHF) =  -1222.75499643     A.U. after    2 cycles

 The electronic state is 1-A.
 Alpha  occ. eigenvalues --  -75.79493 -29.34767 -29.34302 -29.34255 -29.34203
 Alpha  occ. eigenvalues --  -29.33743 -29.33662 -21.19793 -21.17730 -13.28028
 Alpha  occ. eigenvalues --  -13.20218 -13.13796 -11.63316 -11.61951  -8.13608
 Alpha  occ. eigenvalues --   -2.02020  -1.66567  -1.45114  -1.32810  -1.09332
 Alpha  occ. eigenvalues --   -0.95241  -0.94447  -0.92444  -0.92171  -0.76906
 Alpha  occ. eigenvalues --   -0.72221  -0.57983  -0.56332  -0.51491  -0.50758
 Alpha  occ. eigenvalues --   -0.48064  -0.47016  -0.46434  -0.46138  -0.45762
 Alpha  occ. eigenvalues --   -0.41550  -0.41282  -0.38903  -0.38337  -0.35420
 Alpha  occ. eigenvalues --   -0.34339  -0.31452  -0.29449  -0.28152  -0.27477
 Alpha  occ. eigenvalues --   -0.26810  -0.24969  -0.24196  -0.23907
 Alpha virt. eigenvalues --    0.07058   0.09571   0.09699   0.10636   0.11154
 Alpha virt. eigenvalues --    0.12137   0.12724   0.12942   0.13527   0.14232
 Alpha virt. eigenvalues --    0.16768   0.18451   0.19793   0.20084   0.20731

 Mulliken charges:
               1
     1  S    1.161476
     2  O   -1.157748
     3  O   -1.860136
     4  C   -1.651516
     5  F    0.636901
     6  F    0.486318
     7  F    0.436993
     8  C    0.242542
     9  F    0.490913
    10  F    0.546481
    11  F    0.667778
 Sum of Mulliken charges =  -0.00000

 Dipole moment (field-independent basis, Debye):
    X=              0.0775    Y=              0.1660    Z=             -0.9925  Tot=              1.0092

 Test job not archived.
 1\1\GINC-SE072\SP\RHF\Aug-CC-pVDZ\C2F6O2S1\OHZDE\08-Apr-2025\0\\#t hf
 aug-cc-pvdz iop(5/13=1,5/36=2,99/5=2) pseudo=read geom=check guess=(re
 ad,tcheck) scf=(maxcycle=1)\\title\\0,1\S,0,-0.896931,-1.030633,-0.203
 78\O,0,0.215258,-0.34648,0.782172\O,0,1.069403,0.671639,0.031737\C,0,-
 2.257442,0.192296,-0.026535\F,0,-3.296353,-0.333824,-0.697471\F,0,-1.9
 51875,1.377484,-0.555784\F,0,-2.60801,0.382958,1.244696\C,0,2.326128,0
 .129459,-0.052798\F,0,2.337183,-1.01982,-0.746516\F,0,2.865259,-0.1127
 52,1.142525\F,0,3.060628,1.034656,-0.69576\\Version=ES64L-G16RevC.01\S

 Normal termination of Gaussian 16 at Tue Apr  8 23:24:32 2025.
