 Gaussian 16, Revision C.01,

 ----------------------------------------------------------------------
 #t hf aug-cc-pvdz symm=none int=(grid=ultrafine) guess=(read,tcheck) s
 table=(opt,rrhf)
 ----------------------------------------------------------------------
 -----
 title
 -----
 Symbolic Z-matrix:
 Charge =  0 Multiplicity = 1

 SCF Done:  E(RHF) =  -1646.53437710     A.U. after   15 cycles

 1\1\GINC-SE108\Stability\RHF\Aug-CC-pVDZ\C7H5Cl3\OHZDE\08-Apr-2025\0\\
 #t hf aug-cc-pvdz symm=none int=(grid=ultrafine) guess=(read,tcheck) s
 table=(opt,rrhf)\\title\\0,1\C,0,-0.301904,-1.208867,0.360729\C,0,1.05
 0681,-1.192097,0.042712\C,0,1.748497,0.000001,-0.120966\C,0,1.050679,1
 .192098,0.042712\C,0,-0.301905,1.208867,0.360729\C,0,-0.982906,-0.0000
 01,0.521354\H,0,-0.81809,-2.153124,0.477125\Cl,0,1.90636,-2.708616,-0.
 153265\C,0,-2.442023,-0.000002,0.867351\H,0,-0.818092,2.153123,0.47712
 5\H,0,-2.727125,-0.889032,1.424882\Cl,0,-3.497262,-0.000001,-0.627924\

 Normal termination of Gaussian 16 at Tue Apr  8 22:51:48 2025.
 Gaussian 16:  ES64L-G16RevC.01  3-Jul-2019

 ----------------------------------------------------------------------
 #t hf aug-cc-pvdz iop(5/13=1,5/36=2,99/5=2) pseudo=read geom=check gue
 ss=(read,tcheck) scf=(maxcycle=1)
 ----------------------------------------------------------------------
 -----
 title
 -----
 Structure from the checkpoint file:  "BDE49_expt_1697_mol1.chk"
 Charge =  0 Multiplicity = 1

                         Standard orientation:
 ---------------------------------------------------------------------
 Center     Atomic      Atomic             Coordinates (Angstroms)
 Number     Number       Type             X           Y           Z
 ---------------------------------------------------------------------
      1          6           0       -0.301904   -1.208867    0.360729
      2          6           0        1.050681   -1.192097    0.042712
      3          6           0        1.748497    0.000001   -0.120966
      4          6           0        1.050679    1.192098    0.042712
      5          6           0       -0.301905    1.208867    0.360729
      6          6           0       -0.982906   -0.000001    0.521354
      7          1           0       -0.818091   -2.153124    0.477125
      8         17           0        1.906359   -2.708616   -0.153265
      9          6           0       -2.442023   -0.000002    0.867351
     10          1           0       -0.818092    2.153123    0.477125
     11          1           0       -2.727125   -0.889031    1.424882
     12         17           0       -3.497262   -0.000000   -0.627924
     13          1           0       -2.727126    0.889028    1.424883
     14         17           0        1.906357    2.708618   -0.153265
     15          1           0        2.800994    0.000000   -0.366031
 ---------------------------------------------------------------------

 SCF Done:  E(RHF) =  -1648.55406187     A.U. after    2 cycles

 The electronic state is 1-A.
 Alpha  occ. eigenvalues --  -99.90964 -99.90958 -99.88832 -11.55019 -11.49196
 Alpha  occ. eigenvalues --  -11.48852 -11.46757 -11.46591 -11.45950 -11.40957
 Alpha  occ. eigenvalues --  -10.48313 -10.48308 -10.46019  -9.68369  -9.68307
 Alpha  occ. eigenvalues --   -9.67463  -9.67418  -9.67264  -9.67256  -9.65979
 Alpha  occ. eigenvalues --   -9.65264  -9.65196  -1.45318  -1.35419  -1.34196
 Alpha  occ. eigenvalues --   -1.26346  -1.14642  -1.10224  -1.01881  -0.89359
 Alpha  occ. eigenvalues --   -0.87483  -0.74383  -0.69417  -0.69040  -0.63349
 Alpha  occ. eigenvalues --   -0.63144  -0.61430  -0.61039  -0.59341  -0.56835
 Alpha  occ. eigenvalues --   -0.55208  -0.51297  -0.51055  -0.49083  -0.49073
 Alpha  occ. eigenvalues --   -0.48094  -0.46208  -0.35986  -0.35720
 Alpha virt. eigenvalues --    0.02599   0.04843   0.05241   0.05316   0.06057
 Alpha virt. eigenvalues --    0.06395   0.07181   0.07650   0.08752   0.08946
 Alpha virt. eigenvalues --    0.09293   0.10767   0.11262   0.11826   0.12394

 Mulliken charges:
               1
     1  C   -0.806938
     2  C   -1.793699
     3  C   -0.366664
     4  C   -1.793639
     5  C   -0.806952
     6  C    4.031856
     7  H    1.814745
     8  Cl  -0.821504
     9  C   -4.953912
    10  H    1.814744
    11  H    1.282951
    12  Cl   0.180004
    13  H    1.282951
    14  Cl  -0.821503
    15  H    1.757560
 Sum of Mulliken charges =  -0.00000

 Dipole moment (field-independent basis, Debye):
    X=             -0.4440    Y=             -0.0000    Z=              2.0841  Tot=              2.1309

 Test job not archived.
 1\1\GINC-SE108\SP\RHF\Aug-CC-pVDZ\C7H5Cl3\OHZDE\08-Apr-2025\0\\#t hf a
 ug-cc-pvdz iop(5/13=1,5/36=2,99/5=2) pseudo=read geom=check guess=(rea
 d,tcheck) scf=(maxcycle=1)\\title\\0,1\C,0,-0.301904,-1.208867,0.36072
 9\C,0,1.050681,-1.192097,0.042712\C,0,1.748497,0.000001,-0.120966\C,0,
 1.050679,1.192098,0.042712\C,0,-0.301905,1.208867,0.360729\C,0,-0.9829
 06,-0.000001,0.521354\H,0,-0.81809,-2.153124,0.477125\Cl,0,1.90636,-2.
 708616,-0.153265\C,0,-2.442023,-0.000002,0.867351\H,0,-0.818092,2.1531
 23,0.477125\H,0,-2.727125,-0.889032,1.424882\Cl,0,-3.497262,-0.000001,

 Normal termination of Gaussian 16 at Tue Apr  8 22:51:56 2025.
