 Gaussian 16, Revision C.01,

 ----------------------------------------------------------------------
 #t hf aug-cc-pvdz symm=none int=(grid=ultrafine) guess=(read,tcheck) s
 table=(opt,rrhf)
 ----------------------------------------------------------------------
 -----
 title
 -----
 Symbolic Z-matrix:
 Charge =  0 Multiplicity = 1

 SCF Done:  E(RHF) =  -627.083754805     A.U. after   15 cycles
 Normal termination of Gaussian 16 at Tue Apr  8 23:39:58 2025.
 Gaussian 16:  ES64L-G16RevC.01  3-Jul-2019

 ----------------------------------------------------------------------
 #t hf aug-cc-pvdz iop(5/13=1,5/36=2,99/5=2) pseudo=read geom=check gue
 ss=(read,tcheck) scf=(maxcycle=1)
 ----------------------------------------------------------------------
 -----
 title
 -----
 Structure from the checkpoint file:  "BDE49_nonexpt_1574_mol1.chk"
 Charge =  0 Multiplicity = 1

                         Standard orientation:
 ---------------------------------------------------------------------
 Center     Atomic      Atomic             Coordinates (Angstroms)
 Number     Number       Type             X           Y           Z
 ---------------------------------------------------------------------
      1         15           0        2.795132    0.148601    0.000062
      2          7           0        1.342130   -0.752975    0.000030
      3          6           0        0.004866   -0.334679    0.000001
      4          6           0       -0.353188    1.019661   -0.000075
      5          6           0       -1.015415   -1.300757    0.000046
      6          6           0       -2.350353   -0.920076    0.000015
      7          6           0       -2.703947    0.429444   -0.000059
      8          6           0       -1.696335    1.388991   -0.000104
      9          1           0       -3.746243    0.724853   -0.000082
     10          1           0       -1.951679    2.443031   -0.000162
     11          1           0        0.412943    1.783837   -0.000112
     12          1           0       -0.751998   -2.354254    0.000105
     13          1           0       -3.119961   -1.684140    0.000051
     14          1           0        2.525021    1.093002    1.030631
     15          1           0        2.525110    1.092933   -1.030595
     16          1           0        1.471142   -1.752963    0.000084
 ---------------------------------------------------------------------

 SCF Done:  E(RHF) =  -628.649574836     A.U. after    2 cycles

 The electronic state is 1-A.
 Alpha  occ. eigenvalues -- -105.20788 -15.75214 -11.51961 -11.44953 -11.42831
 Alpha  occ. eigenvalues --  -11.40201 -11.40077 -11.35928  -2.77579  -1.58535
 Alpha  occ. eigenvalues --   -1.46148  -1.44754  -1.36422  -1.23057  -1.09182
 Alpha  occ. eigenvalues --   -1.04216  -0.87111  -0.84972  -0.73702  -0.71097
 Alpha  occ. eigenvalues --   -0.67003  -0.59564  -0.57889  -0.55555  -0.53576
 Alpha  occ. eigenvalues --   -0.47438  -0.44755  -0.43612  -0.33195  -0.30551
 Alpha  occ. eigenvalues --   -0.28177  -0.25861  -0.03536
 Alpha virt. eigenvalues --    0.03601   0.05038   0.05461   0.06136   0.06314
 Alpha virt. eigenvalues --    0.08063   0.08183   0.08714   0.09834   0.09959
 Alpha virt. eigenvalues --    0.11835   0.12351   0.12879   0.13157   0.13581

 Mulliken charges:
               1
     1  P    2.102008
     2  N   -3.959497
     3  C    3.401696
     4  C   -2.931531
     5  C   -3.160530
     6  C    0.099468
     7  C   -2.763668
     8  C    0.226328
     9  H    1.543154
    10  H    1.535530
    11  H    2.015391
    12  H    1.691377
    13  H    1.482664
    14  H   -0.994915
    15  H   -0.994934
    16  H    0.707459
 Sum of Mulliken charges =   0.00000

 Dipole moment (field-independent basis, Debye):
    X=              1.0667    Y=             -1.7902    Z=              0.0002  Tot=              2.0839

 Test job not archived.
 1\1\GINC-SE273\SP\RHF\Aug-CC-pVDZ\C6H8N1P1\OHZDE\08-Apr-2025\0\\#t hf
 aug-cc-pvdz iop(5/13=1,5/36=2,99/5=2) pseudo=read geom=check guess=(re
 ad,tcheck) scf=(maxcycle=1)\\title\\0,1\P,0,2.795132,0.148601,0.000062
 \N,0,1.34213,-0.752975,0.00003\C,0,0.004866,-0.334679,0.000001\C,0,-0.
 353188,1.019661,-0.000075\C,0,-1.015415,-1.300757,0.000046\C,0,-2.3503
 53,-0.920076,0.000015\C,0,-2.703947,0.429444,-0.000059\C,0,-1.696335,1
 .388991,-0.000104\H,0,-3.746243,0.724853,-0.000082\H,0,-1.951679,2.443
 031,-0.000162\H,0,0.412943,1.783837,-0.000112\H,0,-0.751998,-2.354254,

 Normal termination of Gaussian 16 at Tue Apr  8 23:40:05 2025.
