 Gaussian 16, Revision C.01,

 ----------------------------------------------------------------------
 #t hf aug-cc-pvdz symm=none int=(grid=ultrafine) guess=(read,tcheck) s
 table=(opt,rrhf)
 ----------------------------------------------------------------------
 -----
 title
 -----
 Symbolic Z-matrix:
 Charge =  0 Multiplicity = 1

 SCF Done:  E(RHF) =  -685.788093651     A.U. after   17 cycles
 Normal termination of Gaussian 16 at Tue Apr  8 22:44:44 2025.
 Gaussian 16:  ES64L-G16RevC.01  3-Jul-2019

 ----------------------------------------------------------------------
 #t hf aug-cc-pvdz iop(5/13=1,5/36=2,99/5=2) pseudo=read geom=check gue
 ss=(read,tcheck) scf=(maxcycle=1)
 ----------------------------------------------------------------------
 -----
 title
 -----
 Structure from the checkpoint file:  "BDE49_expt_1106_mol1.chk"
 Charge =  0 Multiplicity = 1

                         Standard orientation:
 ---------------------------------------------------------------------
 Center     Atomic      Atomic             Coordinates (Angstroms)
 Number     Number       Type             X           Y           Z
 ---------------------------------------------------------------------
      1          6           0       -0.561076   -0.530131    0.723163
      2          6           0        0.561075    0.530140    0.723158
      3          8           0       -0.317265   -1.614107    1.219460
      4          8           0        0.317272    1.614113    1.219466
      5          6           0       -1.905324   -0.174361    0.191162
      6          6           0        1.905323    0.174365    0.191161
      7          6           0       -2.187880    1.059639   -0.411106
      8          6           0       -3.458066    1.310491   -0.921376
      9          6           0       -4.452934    0.339192   -0.833130
     10          6           0       -4.178992   -0.891304   -0.232803
     11          6           0       -2.913310   -1.146861    0.274645
     12          6           0        2.187874   -1.059637   -0.411107
     13          6           0        2.913313    1.146860    0.274645
     14          6           0        3.458060   -1.310495   -0.921375
     15          6           0        4.452932   -0.339200   -0.833127
     16          6           0        4.178995    0.891297   -0.232801
     17          1           0        4.953518    1.646464   -0.163331
     18          1           0        2.676148    2.094670    0.742045
     19          1           0        1.426775   -1.825805   -0.463942
     20          1           0        3.672588   -2.267096   -1.383515
     21          1           0        5.441792   -0.539776   -1.230285
     22          1           0       -4.953512   -1.646474   -0.163334
     23          1           0       -2.676141   -2.094669    0.742046
     24          1           0       -1.426784    1.825811   -0.463940
     25          1           0       -3.672598    2.267091   -1.383517
     26          1           0       -5.441794    0.539763   -1.230289
 ---------------------------------------------------------------------

 SCF Done:  E(RHF) =  -688.916659769     A.U. after    2 cycles

 The electronic state is 1-A.
 Alpha  occ. eigenvalues --  -21.07025 -21.07003 -11.55259 -11.53856 -11.52231
 Alpha  occ. eigenvalues --  -11.52072 -11.45114 -11.44949 -11.44460 -11.44431
 Alpha  occ. eigenvalues --  -11.42937 -11.42701 -11.42073 -11.42057 -11.38283
 Alpha  occ. eigenvalues --  -11.37906  -1.75013  -1.70568  -1.35553  -1.35024
 Alpha  occ. eigenvalues --   -1.14174  -1.12349  -1.10619  -1.10525  -0.98806
 Alpha  occ. eigenvalues --   -0.91344  -0.88334  -0.87544  -0.84553  -0.77265
 Alpha  occ. eigenvalues --   -0.73043  -0.69995  -0.67791  -0.63080  -0.61551
 Alpha  occ. eigenvalues --   -0.59742  -0.59573  -0.59092  -0.58434  -0.56743
 Alpha  occ. eigenvalues --   -0.53873  -0.52800  -0.51404  -0.47939  -0.47332
 Alpha  occ. eigenvalues --   -0.46130  -0.46090  -0.44852  -0.43549  -0.35750
 Alpha  occ. eigenvalues --   -0.34310  -0.33946  -0.33227  -0.32520  -0.26319
 Alpha virt. eigenvalues --    0.02969   0.04509   0.04964   0.05184   0.05229
 Alpha virt. eigenvalues --    0.05473   0.06979   0.07246   0.07293   0.07748
 Alpha virt. eigenvalues --    0.07906   0.08592   0.09282   0.10480   0.11345

 Mulliken charges:
               1
     1  C    1.988268
     2  C    1.988285
     3  O   -4.301111
     4  O   -4.301097
     5  C    3.814745
     6  C    3.814716
     7  C    0.676885
     8  C   -2.264180
     9  C   -3.348716
    10  C   -1.284854
    11  C   -3.539437
    12  C    0.676862
    13  C   -3.539375
    14  C   -2.264232
    15  C   -3.348665
    16  C   -1.284848
    17  H    1.467891
    18  H    1.770426
    19  H    1.978802
    20  H    1.488163
    21  H    1.553104
    22  H    1.467890
    23  H    1.770421
    24  H    1.978789
    25  H    1.488166
    26  H    1.553104
 Sum of Mulliken charges =  -0.00000

 Dipole moment (field-independent basis, Debye):
    X=             -0.0000    Y=             -0.0000    Z=             -1.2913  Tot=              1.2913

 Test job not archived.
 1\1\GINC-SE074\SP\RHF\Aug-CC-pVDZ\C14H10O2\OHZDE\08-Apr-2025\0\\#t hf
 aug-cc-pvdz iop(5/13=1,5/36=2,99/5=2) pseudo=read geom=check guess=(re
 ad,tcheck) scf=(maxcycle=1)\\title\\0,1\C,0,-0.561076,-0.530131,0.7231
 63\C,0,0.561075,0.53014,0.723158\O,0,-0.317265,-1.614107,1.21946\O,0,0
 .317272,1.614113,1.219466\C,0,-1.905324,-0.174361,0.191162\C,0,1.90532
 3,0.174365,0.191161\C,0,-2.18788,1.059639,-0.411106\C,0,-3.458066,1.31
 0491,-0.921376\C,0,-4.452934,0.339192,-0.83313\C,0,-4.178992,-0.891304
 ,-0.232803\C,0,-2.91331,-1.146861,0.274645\C,0,2.187874,-1.059637,-0.4

 Normal termination of Gaussian 16 at Tue Apr  8 22:45:12 2025.
