 Gaussian 16, Revision C.01,

 ----------------------------------------------------------------------
 #t hf aug-cc-pvdz symm=none int=(grid=ultrafine) guess=(read,tcheck) s
 table=(opt,rrhf)
 ----------------------------------------------------------------------
 -----
 title
 -----
 Symbolic Z-matrix:
 Charge =  0 Multiplicity = 1

 SCF Done:  E(RHF) =  -908.496850452     A.U. after   13 cycles
 Normal termination of Gaussian 16 at Tue Apr  8 23:40:54 2025.
 Gaussian 16:  ES64L-G16RevC.01  3-Jul-2019

 ----------------------------------------------------------------------
 #t hf aug-cc-pvdz iop(5/13=1,5/36=2,99/5=2) pseudo=read geom=check gue
 ss=(read,tcheck) scf=(maxcycle=1)
 ----------------------------------------------------------------------
 -----
 title
 -----
 Structure from the checkpoint file:  "BDE49_nonexpt_1626_mol1.chk"
 Charge =  0 Multiplicity = 1

                         Standard orientation:
 ---------------------------------------------------------------------
 Center     Atomic      Atomic             Coordinates (Angstroms)
 Number     Number       Type             X           Y           Z
 ---------------------------------------------------------------------
      1         15           0       -1.778890   -0.144226    0.003167
      2         15           0        0.416099   -0.025422    0.125650
      3          8           0        0.987972   -0.499440    1.393777
      4          8           0        0.757505    1.479561   -0.314198
      5          1           0       -1.871554    0.716176   -1.119411
      6          1           0       -1.972397    0.893360    0.948660
      7          1           0        1.687611    1.702336   -0.168634
      8          8           0        0.928366   -0.857681   -1.164758
      9          1           0        1.207460   -1.746659   -0.911437
 ---------------------------------------------------------------------

 SCF Done:  E(RHF) =  -909.820260135     A.U. after    2 cycles

 The electronic state is 1-A.
 Alpha  occ. eigenvalues -- -105.31057-105.20676 -21.12230 -21.11818 -21.02683
 Alpha  occ. eigenvalues --   -2.93165  -2.77694  -1.97762  -1.89582  -1.79738
 Alpha  occ. eigenvalues --   -1.56103  -1.47226  -1.46370  -1.40455  -1.37312
 Alpha  occ. eigenvalues --   -1.25422  -0.75887  -0.65526  -0.60841  -0.52787
 Alpha  occ. eigenvalues --   -0.45466  -0.41642  -0.34586  -0.34187  -0.29880
 Alpha  occ. eigenvalues --   -0.27308  -0.19126  -0.10002   0.03063
 Alpha virt. eigenvalues --    0.03806   0.05990   0.07878   0.08343   0.10555
 Alpha virt. eigenvalues --    0.11018   0.11411   0.12208   0.12507   0.13996
 Alpha virt. eigenvalues --    0.16479   0.19322   0.20522   0.20950   0.21743

 Mulliken charges:
               1
     1  P    0.929033
     2  P    7.408950
     3  O   -2.652084
     4  O   -2.703676
     5  H   -0.763470
     6  H   -0.830192
     7  H    0.630443
     8  O   -2.572588
     9  H    0.553583
 Sum of Mulliken charges =  -0.00000

 Dipole moment (field-independent basis, Debye):
    X=             10.4100    Y=             -3.6052    Z=             -1.0957  Tot=             11.0710

 Test job not archived.
 1\1\GINC-SE029\SP\RHF\Aug-CC-pVDZ\H4O3P2\OHZDE\08-Apr-2025\0\\#t hf au
 g-cc-pvdz iop(5/13=1,5/36=2,99/5=2) pseudo=read geom=check guess=(read
 ,tcheck) scf=(maxcycle=1)\\title\\0,1\P,0,-1.77889,-0.144227,0.003167\
 P,0,0.416099,-0.025422,0.12565\O,0,0.987972,-0.49944,1.393777\O,0,0.75
 7504,1.479561,-0.314198\H,0,-1.871554,0.716175,-1.119411\H,0,-1.972397
 ,0.893359,0.94866\H,0,1.68761,1.702337,-0.168634\O,0,0.928366,-0.85768
 1,-1.164758\H,0,1.207461,-1.746659,-0.911437\\Version=ES64L-G16RevC.01
 \State=1-A\HF=-909.8202601\RMSD=2.493e-01\Dipole=4.095617,-1.4184036,-

 Normal termination of Gaussian 16 at Tue Apr  8 23:40:57 2025.
