 Gaussian 16, Revision C.01,

 ----------------------------------------------------------------------
 #t hf aug-cc-pvdz symm=none int=(grid=ultrafine) guess=(read,tcheck) s
 table=(opt,rrhf)
 ----------------------------------------------------------------------
 -----
 title
 -----
 Symbolic Z-matrix:
 Charge =  0 Multiplicity = 1

 SCF Done:  E(RHF) =  -1182.74482824     A.U. after   18 cycles
 Normal termination of Gaussian 16 at Tue Apr  8 23:37:21 2025.
 Gaussian 16:  ES64L-G16RevC.01  3-Jul-2019

 ----------------------------------------------------------------------
 #t hf aug-cc-pvdz iop(5/13=1,5/36=2,99/5=2) pseudo=read geom=check gue
 ss=(read,tcheck) scf=(maxcycle=1)
 ----------------------------------------------------------------------
 -----
 title
 -----
 Structure from the checkpoint file:  "BDE49_nonexpt_1476_mol1.chk"
 Charge =  0 Multiplicity = 1

                         Standard orientation:
 ---------------------------------------------------------------------
 Center     Atomic      Atomic             Coordinates (Angstroms)
 Number     Number       Type             X           Y           Z
 ---------------------------------------------------------------------
      1          6           0        1.597010    0.188512    1.210318
      2          6           0        0.248353   -0.151642    1.215151
      3          6           0        2.333855    0.026911    0.039978
      4          6           0        1.746677   -0.478443   -1.114551
      5          6           0        0.398999   -0.827487   -1.090018
      6          6           0       -0.375069   -0.660792    0.066130
      7          1           0       -0.321669   -0.018846    2.127643
      8          1           0        2.073615    0.576931    2.101207
      9          1           0        2.337270   -0.608087   -2.012240
     10          1           0       -0.052048   -1.243836   -1.984303
     11         15           0       -2.150262   -1.143824    0.011723
     12          6           0       -3.074959    0.516336   -0.026335
     13          8           0       -4.125500    0.593317    0.561336
     14          6           0       -2.519404    1.636047   -0.879050
     15          1           0       -1.596316    2.019701   -0.435756
     16          1           0       -3.256718    2.436217   -0.948777
     17          1           0       -2.266283    1.269283   -1.878053
     18         17           0        4.033259    0.459934    0.025878
     19          1           0       -2.358109   -1.336069    1.394088
 ---------------------------------------------------------------------

 SCF Done:  E(RHF) =  -1184.95586259     A.U. after    2 cycles

 The electronic state is 1-A.
 Alpha  occ. eigenvalues -- -105.19660 -99.90658 -21.06645 -11.53856 -11.48944
 Alpha  occ. eigenvalues --  -11.47571 -11.46402 -11.44950 -11.43717 -11.39573
 Alpha  occ. eigenvalues --  -11.39528 -10.48007  -9.68033  -9.67133  -9.66965
 Alpha  occ. eigenvalues --   -2.77317  -1.72114  -1.52972  -1.47887  -1.47174
 Alpha  occ. eigenvalues --   -1.40890  -1.28540  -1.12432  -1.11200  -1.08343
 Alpha  occ. eigenvalues --   -0.90216  -0.87454  -0.80407  -0.72683  -0.68965
 Alpha  occ. eigenvalues --   -0.65409  -0.62971  -0.60916  -0.60103  -0.59195
 Alpha  occ. eigenvalues --   -0.58610  -0.54920  -0.52325  -0.51829  -0.50918
 Alpha  occ. eigenvalues --   -0.46956  -0.43974  -0.39940  -0.36101  -0.35976
 Alpha  occ. eigenvalues --   -0.26145  -0.17940  -0.02928
 Alpha virt. eigenvalues --    0.02791   0.05075   0.05188   0.05715   0.06445
 Alpha virt. eigenvalues --    0.06651   0.07245   0.07506   0.07811   0.08268
 Alpha virt. eigenvalues --    0.09030   0.09196   0.09626   0.10766   0.11882

 Mulliken charges:
               1
     1  C   -1.284733
     2  C   -1.565351
     3  C   -1.556279
     4  C   -1.691782
     5  C   -3.247733
     6  C    1.918616
     7  H    1.976761
     8  H    1.775281
     9  H    1.838598
    10  H    2.064002
    11  P    3.112802
    12  C    1.381663
    13  O   -3.001218
    14  C   -4.497989
    15  H    1.554420
    16  H    1.186652
    17  H    1.493566
    18  Cl  -0.766016
    19  H   -0.691258
 Sum of Mulliken charges =  -0.00000

 Dipole moment (field-independent basis, Debye):
    X=             -0.0105    Y=             -1.5660    Z=             -0.8247  Tot=              1.7699

 Test job not archived.
 1\1\GINC-SE424\SP\RHF\Aug-CC-pVDZ\C8H8Cl1O1P1\OHZDE\08-Apr-2025\0\\#t
 hf aug-cc-pvdz iop(5/13=1,5/36=2,99/5=2) pseudo=read geom=check guess=
 (read,tcheck) scf=(maxcycle=1)\\title\\0,1\C,0,-1.59701,0.188512,-1.21
 0318\C,0,-0.248353,-0.151642,-1.215151\C,0,-2.333855,0.026911,-0.03997
 8\C,0,-1.746677,-0.478443,1.114551\C,0,-0.398999,-0.827487,1.090018\C,
 0,0.375069,-0.660792,-0.06613\H,0,0.321669,-0.018846,-2.127643\H,0,-2.
 073615,0.576931,-2.101207\H,0,-2.33727,-0.608087,2.01224\H,0,0.052048,
 -1.243836,1.984303\P,0,2.150262,-1.143824,-0.011723\C,0,3.074959,0.516

 Normal termination of Gaussian 16 at Tue Apr  8 23:37:33 2025.
