 Gaussian 16, Revision C.01,

 ----------------------------------------------------------------------
 #t hf aug-cc-pvdz symm=none int=(grid=ultrafine) guess=(read,tcheck) s
 table=(opt,rrhf)
 ----------------------------------------------------------------------
 -----
 title
 -----
 Symbolic Z-matrix:
 Charge =  0 Multiplicity = 1

 SCF Done:  E(RHF) =  -842.580940220     A.U. after   15 cycles
 Normal termination of Gaussian 16 at Tue Apr  8 22:58:03 2025.
 Gaussian 16:  ES64L-G16RevC.01  3-Jul-2019

 ----------------------------------------------------------------------
 #t hf aug-cc-pvdz iop(5/13=1,5/36=2,99/5=2) pseudo=read geom=check gue
 ss=(read,tcheck) scf=(maxcycle=1)
 ----------------------------------------------------------------------
 -----
 title
 -----
 Structure from the checkpoint file:  "BDE49_expt_184_mol1.chk"
 Charge =  0 Multiplicity = 1

                         Standard orientation:
 ---------------------------------------------------------------------
 Center     Atomic      Atomic             Coordinates (Angstroms)
 Number     Number       Type             X           Y           Z
 ---------------------------------------------------------------------
      1          6           0       -0.150676   -0.402764   -0.357473
      2          6           0       -1.466918   -0.109263   -0.025942
      3          6           0       -1.865177    1.180183    0.314241
      4          6           0       -0.908201    2.190791    0.324643
      5          6           0        0.418446    1.911561    0.002909
      6          6           0        0.805189    0.616597   -0.345750
      7          6           0        2.236357    0.310130   -0.754581
      8          8           0        2.685739   -0.974672   -0.367142
      9          1           0       -1.200851    3.199116    0.594473
     10          1           0        1.157259    2.705953    0.025465
     11          1           0       -2.897384    1.382051    0.568631
     12          1           0        0.140842   -1.412633   -0.615489
     13          1           0        2.905819    1.090964   -0.364323
     14          1           0        2.314686    0.325862   -1.845934
     15          6           0        2.966276   -1.083493    1.019794
     16          1           0        3.744346   -0.368879    1.322856
     17          1           0        3.329983   -2.096922    1.189256
     18          1           0        2.074113   -0.916048    1.635535
     19         17           0       -2.662735   -1.399679   -0.037669
 ---------------------------------------------------------------------

 SCF Done:  E(RHF) =  -844.632252082     A.U. after    2 cycles

 The electronic state is 1-A.
 Alpha  occ. eigenvalues --  -99.89259 -21.05157 -11.52902 -11.46874 -11.45429
 Alpha  occ. eigenvalues --  -11.44025 -11.43064 -11.42556 -11.40364 -11.37826
 Alpha  occ. eigenvalues --  -10.46592  -9.66637  -9.65744  -9.65565  -1.75659
 Alpha  occ. eigenvalues --   -1.40067  -1.28422  -1.13674  -1.08839  -1.02498
 Alpha  occ. eigenvalues --   -0.93920  -0.87212  -0.83887  -0.72161  -0.66844
 Alpha  occ. eigenvalues --   -0.66030  -0.63359  -0.61205  -0.59808  -0.57775
 Alpha  occ. eigenvalues --   -0.57150  -0.56240  -0.52298  -0.50111  -0.48013
 Alpha  occ. eigenvalues --   -0.46938  -0.46220  -0.38220  -0.34086  -0.33451
 Alpha  occ. eigenvalues --   -0.30458
 Alpha virt. eigenvalues --    0.03187   0.04629   0.04842   0.05500   0.05774
 Alpha virt. eigenvalues --    0.06302   0.06900   0.07220   0.08258   0.08535
 Alpha virt. eigenvalues --    0.09796   0.10799   0.10958   0.11702   0.12006

 Mulliken charges:
               1
     1  C   -0.095816
     2  C   -1.731682
     3  C   -2.964696
     4  C   -0.620753
     5  C   -2.276424
     6  C    2.732126
     7  C   -1.825182
     8  O   -3.048253
     9  H    1.499318
    10  H    1.781866
    11  H    1.757207
    12  H    1.982051
    13  H    1.403659
    14  H    1.163561
    15  C   -3.091964
    16  H    1.337928
    17  H    1.272556
    18  H    1.583768
    19  Cl  -0.859270
 Sum of Mulliken charges =   0.00000

 Dipole moment (field-independent basis, Debye):
    X=              1.8318    Y=              1.9234    Z=              0.2953  Tot=              2.6725

 Test job not archived.
 1\1\GINC-SE457\SP\RHF\Aug-CC-pVDZ\C8H9Cl1O1\OHZDE\08-Apr-2025\0\\#t hf
  aug-cc-pvdz iop(5/13=1,5/36=2,99/5=2) pseudo=read geom=check guess=(r
 ead,tcheck) scf=(maxcycle=1)\\title\\0,1\C,0,-0.150676,-0.402764,-0.35
 7473\C,0,-1.466918,-0.109263,-0.025942\C,0,-1.865177,1.180183,0.314241
 \C,0,-0.908201,2.190791,0.324643\C,0,0.418446,1.911561,0.002909\C,0,0.
 805189,0.616597,-0.34575\C,0,2.236357,0.31013,-0.754581\O,0,2.685739,-
 0.974672,-0.367142\H,0,-1.200851,3.199116,0.594473\H,0,1.157259,2.7059
 53,0.025465\H,0,-2.897384,1.382051,0.568631\H,0,0.140842,-1.412633,-0.

 Normal termination of Gaussian 16 at Tue Apr  8 22:58:13 2025.
