 Gaussian 16, Revision C.01,

 ----------------------------------------------------------------------
 #t hf aug-cc-pvdz symm=none int=(grid=ultrafine) guess=(read,tcheck) s
 table=(opt,rrhf)
 ----------------------------------------------------------------------
 -----
 title
 -----
 Symbolic Z-matrix:
 Charge =  0 Multiplicity = 1

 SCF Done:  E(RHF) =  -1456.00322394     A.U. after   12 cycles

 1\1\GINC-SE094\Stability\RHF\Aug-CC-pVDZ\C2H3Cl3\OHZDE\08-Apr-2025\0\\
 #t hf aug-cc-pvdz symm=none int=(grid=ultrafine) guess=(read,tcheck) s
 table=(opt,rrhf)\\title\\0,1\C,0,0.410014,-0.080105,-0.359075\C,0,-0.6
 67115,-0.832464,0.403525\Cl,0,1.995106,-0.873585,-0.015204\Cl,0,0.4656
 59,1.656315,0.080654\H,0,0.263341,-0.128264,-1.433266\H,0,-0.571248,-0
 .668847,1.474418\H,0,-0.594242,-1.894114,0.176544\Cl,0,-2.316956,-0.30
 2339,-0.093945\\Version=ES64L-G16RevC.01\HF=-1456.0032239\RMSD=9.762e-
 09\Dipole=0.0386374,-0.5546757,-0.0433249\Quadrupole=-3.4070206,1.0582

 Normal termination of Gaussian 16 at Tue Apr  8 22:31:22 2025.
 Gaussian 16:  ES64L-G16RevC.01  3-Jul-2019

 ----------------------------------------------------------------------
 #t hf aug-cc-pvdz iop(5/13=1,5/36=2,99/5=2) pseudo=read geom=check gue
 ss=(read,tcheck) scf=(maxcycle=1)
 ----------------------------------------------------------------------
 -----
 title
 -----
 Structure from the checkpoint file:  "BDE49_expt_1016_mol1.chk"
 Charge =  0 Multiplicity = 1

                         Standard orientation:
 ---------------------------------------------------------------------
 Center     Atomic      Atomic             Coordinates (Angstroms)
 Number     Number       Type             X           Y           Z
 ---------------------------------------------------------------------
      1          6           0        0.410014   -0.080105   -0.359075
      2          6           0       -0.667115   -0.832464    0.403525
      3         17           0        1.995106   -0.873585   -0.015204
      4         17           0        0.465659    1.656315    0.080654
      5          1           0        0.263341   -0.128264   -1.433266
      6          1           0       -0.571248   -0.668847    1.474418
      7          1           0       -0.594242   -1.894114    0.176544
      8         17           0       -2.316956   -0.302339   -0.093945
 ---------------------------------------------------------------------

 SCF Done:  E(RHF) =  -1457.12281610     A.U. after    2 cycles

 The electronic state is 1-A.
 Alpha  occ. eigenvalues --  -99.91207 -99.90713 -99.89932 -11.52710 -11.46388
 Alpha  occ. eigenvalues --  -10.48509 -10.48035 -10.47207  -9.68395  -9.67908
 Alpha  occ. eigenvalues --   -9.67627  -9.67539  -9.67127  -9.67097  -9.67024
 Alpha  occ. eigenvalues --   -9.66331  -9.66274  -1.43542  -1.32539  -1.29513
 Alpha  occ. eigenvalues --   -1.10470  -0.92877  -0.73380  -0.69862  -0.66976
 Alpha  occ. eigenvalues --   -0.62189  -0.59021  -0.53442  -0.53171  -0.51174
 Alpha  occ. eigenvalues --   -0.50395  -0.49480  -0.47900
 Alpha virt. eigenvalues --    0.02395   0.03963   0.05567   0.06134   0.06492
 Alpha virt. eigenvalues --    0.07880   0.09571   0.11031   0.12439   0.12852
 Alpha virt. eigenvalues --    0.13466   0.14325   0.15492   0.16457   0.17224

 Mulliken charges:
               1
     1  C   -3.112537
     2  C   -2.720375
     3  Cl   0.233999
     4  Cl   0.328362
     5  H    1.931716
     6  H    1.645289
     7  H    1.586202
     8  Cl   0.107343
 Sum of Mulliken charges =  -0.00000

 Dipole moment (field-independent basis, Debye):
    X=              0.0970    Y=             -1.3497    Z=             -0.0758  Tot=              1.3553

 Test job not archived.
 1\1\GINC-SE094\SP\RHF\Aug-CC-pVDZ\C2H3Cl3\OHZDE\08-Apr-2025\0\\#t hf a
 ug-cc-pvdz iop(5/13=1,5/36=2,99/5=2) pseudo=read geom=check guess=(rea
 d,tcheck) scf=(maxcycle=1)\\title\\0,1\C,0,0.410014,-0.080105,-0.35907
 5\C,0,-0.667115,-0.832464,0.403525\Cl,0,1.995106,-0.873585,-0.015204\C
 l,0,0.465659,1.656315,0.080654\H,0,0.263341,-0.128264,-1.433266\H,0,-0
 .571248,-0.668847,1.474418\H,0,-0.594242,-1.894114,0.176544\Cl,0,-2.31
 6956,-0.302339,-0.093945\\Version=ES64L-G16RevC.01\State=1-A\HF=-1457.
 1228161\RMSD=1.378e-01\Dipole=0.0381793,-0.5310017,-0.0298127\Quadrupo

 Normal termination of Gaussian 16 at Tue Apr  8 22:31:25 2025.
