 Gaussian 16, Revision C.01,

 ----------------------------------------------------------------------
 #t hf aug-cc-pvdz symm=none int=(grid=ultrafine) guess=(read,tcheck) s
 table=(opt,rrhf)
 ----------------------------------------------------------------------
 -----
 title
 -----
 Symbolic Z-matrix:
 Charge =  0 Multiplicity = 1

 SCF Done:  E(RHF) =  -608.179758611     A.U. after   15 cycles
 Normal termination of Gaussian 16 at Tue Apr  8 23:34:18 2025.
 Gaussian 16:  ES64L-G16RevC.01  3-Jul-2019

 ----------------------------------------------------------------------
 #t hf aug-cc-pvdz iop(5/13=1,5/36=2,99/5=2) pseudo=read geom=check gue
 ss=(read,tcheck) scf=(maxcycle=1)
 ----------------------------------------------------------------------
 -----
 title
 -----
 Structure from the checkpoint file:  "BDE49_nonexpt_1453_mol1.chk"
 Charge =  0 Multiplicity = 1

                         Standard orientation:
 ---------------------------------------------------------------------
 Center     Atomic      Atomic             Coordinates (Angstroms)
 Number     Number       Type             X           Y           Z
 ---------------------------------------------------------------------
      1          6           0        0.598973    0.437412    0.018998
      2         15           0        2.137177   -0.623905   -0.122914
      3          8           0       -0.509673   -0.327036    0.026703
      4          8           0        0.603148    1.639801    0.000265
      5          6           0       -1.780384    0.382927    0.002401
      6          6           0       -2.878922   -0.658659   -0.011082
      7          1           0       -1.803302    1.021504   -0.883269
      8          1           0       -1.833264    1.027666    0.882265
      9          1           0       -2.801102   -1.296010   -0.894363
     10          1           0       -3.854951   -0.166646   -0.026487
     11          1           0       -2.826835   -1.291391    0.877403
     12          1           0        1.771906   -1.581268    0.852889
     13          1           0        2.904081    0.172521    0.757637
 ---------------------------------------------------------------------

 SCF Done:  E(RHF) =  -609.544342854     A.U. after    2 cycles

 The electronic state is 1-A.
 Alpha  occ. eigenvalues -- -105.19837 -21.09458 -21.05783 -11.50291 -11.44760
 Alpha  occ. eigenvalues --  -11.37766  -2.77050  -1.84323  -1.67005  -1.48243
 Alpha  occ. eigenvalues --   -1.46370  -1.44619  -1.14113  -0.91626  -0.81293
 Alpha  occ. eigenvalues --   -0.72113  -0.66471  -0.59035  -0.56156  -0.54875
 Alpha  occ. eigenvalues --   -0.52701  -0.49602  -0.46214  -0.37581  -0.33024
 Alpha  occ. eigenvalues --   -0.26092  -0.20243  -0.03795
 Alpha virt. eigenvalues --    0.03669   0.05520   0.05759   0.06269   0.06370
 Alpha virt. eigenvalues --    0.06734   0.08207   0.09485   0.10920   0.11502
 Alpha virt. eigenvalues --    0.12216   0.12711   0.14625   0.14769   0.15605

 Mulliken charges:
               1
     1  C    2.929013
     2  P    2.303593
     3  O   -2.706203
     4  O   -2.627391
     5  C   -2.055220
     6  C   -3.520802
     7  H    1.588972
     8  H    1.624089
     9  H    1.270061
    10  H    1.097001
    11  H    1.251282
    12  H   -0.611781
    13  H   -0.542613
 Sum of Mulliken charges =  -0.00000

 Dipole moment (field-independent basis, Debye):
    X=             -0.4523    Y=             -1.3937    Z=             -2.8940  Tot=              3.2438

 Test job not archived.
 1\1\GINC-SE362\SP\RHF\Aug-CC-pVDZ\C3H7O2P1\OHZDE\08-Apr-2025\0\\#t hf
 aug-cc-pvdz iop(5/13=1,5/36=2,99/5=2) pseudo=read geom=check guess=(re
 ad,tcheck) scf=(maxcycle=1)\\title\\0,1\C,0,0.598973,0.437412,0.018998
 \P,0,2.137177,-0.623905,-0.122914\O,0,-0.509673,-0.327036,0.026703\O,0
 ,0.603148,1.639801,0.000265\C,0,-1.780384,0.382927,0.002401\C,0,-2.878
 922,-0.658659,-0.011082\H,0,-1.803302,1.021504,-0.883269\H,0,-1.833264
 ,1.027666,0.882265\H,0,-2.801102,-1.29601,-0.894363\H,0,-3.854951,-0.1
 66645,-0.026487\H,0,-2.826835,-1.291391,0.877403\H,0,1.771906,-1.58126

 Normal termination of Gaussian 16 at Tue Apr  8 23:34:21 2025.
