 Gaussian 16, Revision C.01,

 ----------------------------------------------------------------------
 #t hf aug-cc-pvdz symm=none int=(grid=ultrafine) guess=(read,tcheck) s
 table=(opt,rrhf)
 ----------------------------------------------------------------------
 -----
 title
 -----
 Symbolic Z-matrix:
 Charge =  0 Multiplicity = 1

 SCF Done:  E(RHF) =  -368.633660538     A.U. after   14 cycles
 Normal termination of Gaussian 16 at Tue Apr  8 23:15:24 2025.
 Gaussian 16:  ES64L-G16RevC.01  3-Jul-2019

 ----------------------------------------------------------------------
 #t hf aug-cc-pvdz iop(5/13=1,5/36=2,99/5=2) pseudo=read geom=check gue
 ss=(read,tcheck) scf=(maxcycle=1)
 ----------------------------------------------------------------------
 -----
 title
 -----
 Structure from the checkpoint file:  "BDE49_expt_81_mol1.chk"
 Charge =  0 Multiplicity = 1

                         Standard orientation:
 ---------------------------------------------------------------------
 Center     Atomic      Atomic             Coordinates (Angstroms)
 Number     Number       Type             X           Y           Z
 ---------------------------------------------------------------------
      1          6           0        1.200870   -0.376049   -0.000000
      2          6           0        1.353176    1.003088   -0.000000
      3          6           0        0.202724    1.785642   -0.000000
      4          6           0       -1.059403    1.192844   -0.000000
      5          6           0       -1.198498   -0.197975   -0.000000
      6          6           0       -0.041828   -0.986312   -0.000000
      7          1           0       -1.945795    1.817525   -0.000001
      8          1           0        2.345778    1.435302   -0.000000
      9          1           0        0.291547    2.866009   -0.000000
     10          1           0       -0.096913   -2.069066   -0.000000
     11          6           0       -2.559536   -0.850718   -0.000000
     12          1           0       -3.356729   -0.105389   -0.000009
     13          1           0       -2.693325   -1.485823    0.880960
     14          1           0       -2.693318   -1.485840   -0.880948
     15          9           0        2.307081   -1.155094   -0.000000
 ---------------------------------------------------------------------

 SCF Done:  E(RHF) =  -370.278030800     A.U. after    2 cycles

 The electronic state is 1-A.
 Alpha  occ. eigenvalues --  -29.27990 -11.53077 -11.46865 -11.43971 -11.41673
 Alpha  occ. eigenvalues --  -11.40922 -11.39459 -11.36944  -1.37658  -1.17575
 Alpha  occ. eigenvalues --   -1.12675  -1.00985  -0.91554  -0.86160  -0.73898
 Alpha  occ. eigenvalues --   -0.68600  -0.62598  -0.60574  -0.58533  -0.56591
 Alpha  occ. eigenvalues --   -0.53720  -0.53212  -0.47168  -0.45443  -0.40505
 Alpha  occ. eigenvalues --   -0.37853  -0.33150  -0.26770  -0.23019
 Alpha virt. eigenvalues --    0.03392   0.04703   0.05393   0.06028   0.06365
 Alpha virt. eigenvalues --    0.06848   0.07795   0.09836   0.11152   0.11172
 Alpha virt. eigenvalues --    0.11958   0.12869   0.13643   0.14309   0.14329

 Mulliken charges:
               1
     1  C    3.148872
     2  C   -5.534011
     3  C   -0.507976
     4  C   -1.855847
     5  C    4.032322
     6  C   -4.538180
     7  H    1.728243
     8  H    1.704047
     9  H    1.433843
    10  H    1.878858
    11  C   -5.510380
    12  H    1.260179
    13  H    1.059235
    14  H    1.059234
    15  F    0.641561
 Sum of Mulliken charges =   0.00000

 Dipole moment (field-independent basis, Debye):
    X=              1.0819    Y=             -1.0959    Z=             -0.0000  Tot=              1.5399

 Test job not archived.
 1\1\GINC-SE120\SP\RHF\Aug-CC-pVDZ\C7H7F1\OHZDE\08-Apr-2025\0\\#t hf au
 g-cc-pvdz iop(5/13=1,5/36=2,99/5=2) pseudo=read geom=check guess=(read
 ,tcheck) scf=(maxcycle=1)\\title\\0,1\C,0,1.20087,-0.376049,0.\C,0,1.3
 53176,1.003088,0.\C,0,0.202724,1.785642,0.\C,0,-1.059403,1.192844,0.\C
 ,0,-1.198498,-0.197975,0.\C,0,-0.041828,-0.986312,0.\H,0,-1.945795,1.8
 17525,-0.000001\H,0,2.345778,1.435302,0.\H,0,0.291547,2.866009,0.\H,0,
 -0.096913,-2.069066,0.\C,0,-2.559536,-0.850718,0.\H,0,-3.356729,-0.105
 389,-0.000009\H,0,-2.693325,-1.485823,0.88096\H,0,-2.693318,-1.48584,-

 Normal termination of Gaussian 16 at Tue Apr  8 23:15:30 2025.
