 Gaussian 16, Revision C.01,

 ----------------------------------------------------------------------
 #t hf aug-cc-pvdz symm=none int=(grid=ultrafine) guess=(read,tcheck) s
 table=(opt,rrhf)
 ----------------------------------------------------------------------
 -----
 title
 -----
 Symbolic Z-matrix:
 Charge =  0 Multiplicity = 1

 SCF Done:  E(RHF) =  -252.838457311     A.U. after   14 cycles
 Normal termination of Gaussian 16 at Tue Apr  8 23:20:52 2025.
 Gaussian 16:  ES64L-G16RevC.01  3-Jul-2019

 ----------------------------------------------------------------------
 #t hf aug-cc-pvdz iop(5/13=1,5/36=2,99/5=2) pseudo=read geom=check gue
 ss=(read,tcheck) scf=(maxcycle=1)
 ----------------------------------------------------------------------
 -----
 title
 -----
 Structure from the checkpoint file:  "BDE49_nonexpt_1121_mol1.chk"
 Charge =  0 Multiplicity = 1

                         Standard orientation:
 ---------------------------------------------------------------------
 Center     Atomic      Atomic             Coordinates (Angstroms)
 Number     Number       Type             X           Y           Z
 ---------------------------------------------------------------------
      1          9           0        1.395341   -0.594714    0.136129
      2          8           0        0.726427    0.590968   -0.370181
      3          6           0       -0.533674    0.624897    0.289336
      4          6           0       -1.464676   -0.505330   -0.114896
      5          1           0       -0.372447    0.668005    1.371299
      6          1           0       -1.604610   -0.519372   -1.197832
      7          1           0       -2.439794   -0.375775    0.362544
      8          1           0       -1.054505   -1.466645    0.196355
      9          1           0       -0.908029    1.601067   -0.042718
 ---------------------------------------------------------------------

 SCF Done:  E(RHF) =  -253.879128363     A.U. after    2 cycles

 The electronic state is 1-A.
 Alpha  occ. eigenvalues --  -29.27728 -21.14841 -11.44993 -11.37925  -1.79488
 Alpha  occ. eigenvalues --   -1.13489  -0.91156  -0.71916  -0.64189  -0.61110
 Alpha  occ. eigenvalues --   -0.55091  -0.52486  -0.48538  -0.43009  -0.34171
 Alpha  occ. eigenvalues --   -0.25490  -0.21106
 Alpha virt. eigenvalues --    0.03847   0.05378   0.05803   0.06152   0.06924
 Alpha virt. eigenvalues --    0.11346   0.11884   0.13701   0.14598   0.15275
 Alpha virt. eigenvalues --    0.17679   0.18365   0.19714   0.22119   0.23016

 Mulliken charges:
               1
     1  F   -0.086692
     2  O   -1.406901
     3  C   -1.371269
     4  C   -3.498593
     5  H    1.414084
     6  H    1.201906
     7  H    1.204789
     8  H    1.212154
     9  H    1.330522
 Sum of Mulliken charges =   0.00000

 Dipole moment (field-independent basis, Debye):
    X=             -0.3419    Y=             -0.7412    Z=              0.5741  Tot=              0.9979

 Test job not archived.
 1\1\GINC-SE015\SP\RHF\Aug-CC-pVDZ\C2H5F1O1\OHZDE\08-Apr-2025\0\\#t hf
 aug-cc-pvdz iop(5/13=1,5/36=2,99/5=2) pseudo=read geom=check guess=(re
 ad,tcheck) scf=(maxcycle=1)\\title\\0,1\F,0,1.395341,-0.594714,0.13612
 9\O,0,0.726427,0.590968,-0.370181\C,0,-0.533674,0.624897,0.289336\C,0,
 -1.464676,-0.50533,-0.114896\H,0,-0.372447,0.668005,1.371299\H,0,-1.60
 461,-0.519372,-1.197832\H,0,-2.439794,-0.375775,0.362544\H,0,-1.054505
 ,-1.466645,0.196355\H,0,-0.908029,1.601067,-0.042718\\Version=ES64L-G1
 6RevC.01\State=1-A\HF=-253.8791284\RMSD=1.724e-01\Dipole=-0.1345076,-0

 Normal termination of Gaussian 16 at Tue Apr  8 23:20:54 2025.
