 Gaussian 16, Revision C.01,

 ----------------------------------------------------------------------
 #t hf aug-cc-pvdz symm=none int=(grid=ultrafine) guess=(read,tcheck) s
 table=(opt,rrhf)
 ----------------------------------------------------------------------
 -----
 title
 -----
 Symbolic Z-matrix:
 Charge =  0 Multiplicity = 1

 SCF Done:  E(RHF) =  -215.950427054     A.U. after   12 cycles
 Normal termination of Gaussian 16 at Tue Apr  8 22:45:29 2025.
 Gaussian 16:  ES64L-G16RevC.01  3-Jul-2019

 ----------------------------------------------------------------------
 #t hf aug-cc-pvdz iop(5/13=1,5/36=2,99/5=2) pseudo=read geom=check gue
 ss=(read,tcheck) scf=(maxcycle=1)
 ----------------------------------------------------------------------
 -----
 title
 -----
 Structure from the checkpoint file:  "BDE49_expt_1520_mol1.chk"
 Charge =  0 Multiplicity = 1

                         Standard orientation:
 ---------------------------------------------------------------------
 Center     Atomic      Atomic             Coordinates (Angstroms)
 Number     Number       Type             X           Y           Z
 ---------------------------------------------------------------------
      1          6           0       -0.960472   -0.031842    0.000000
      2          6           0        0.000000    0.878743    0.000000
      3          9           0       -0.697935   -1.361651    0.000000
      4          1           0       -2.024208    0.170010    0.000000
      5          6           0        1.470313    0.588047    0.000000
      6          1           0       -0.324465    1.914417    0.000000
      7          1           0        1.660170   -0.485348    0.000000
      8          1           0        1.955436    1.023046    0.879951
      9          1           0        1.955436    1.023046   -0.879951
 ---------------------------------------------------------------------

 SCF Done:  E(RHF) =  -216.869718806     A.U. after    2 cycles

 The electronic state is 1-A'.
 Alpha  occ. eigenvalues --  -29.27387 -11.46846 -11.40824 -11.37278  -1.24800
 Alpha  occ. eigenvalues --   -1.04853  -0.86462  -0.70207  -0.62706  -0.57414
 Alpha  occ. eigenvalues --   -0.52665  -0.50605  -0.46000  -0.37866  -0.26871
 Alpha  occ. eigenvalues --   -0.22982
 Alpha virt. eigenvalues --    0.03757   0.05345   0.05803   0.06507   0.07261
 Alpha virt. eigenvalues --    0.11800   0.11912   0.12531   0.13687   0.14015
 Alpha virt. eigenvalues --    0.15333   0.16464   0.17320   0.17458   0.17899

 Mulliken charges:
               1
     1  C   -1.450509
     2  C   -1.708128
     3  F    0.738372
     4  H    1.458479
     5  C   -3.974057
     6  H    1.355085
     7  H    1.276250
     8  H    1.152254
     9  H    1.152254
 Sum of Mulliken charges =   0.00000

 Dipole moment (field-independent basis, Debye):
    X=              0.0955    Y=             -1.7201    Z=             -0.0000  Tot=              1.7228

 Test job not archived.
 1\1\GINC-SE174\SP\RHF\Aug-CC-pVDZ\C3H5F1\OHZDE\08-Apr-2025\0\\#t hf au
 g-cc-pvdz iop(5/13=1,5/36=2,99/5=2) pseudo=read geom=check guess=(read
 ,tcheck) scf=(maxcycle=1)\\title\\0,1\C,0,-0.960472,-0.031842,0.\C,0,0
 .,0.878743,0.\F,0,-0.697935,-1.361651,0.\H,0,-2.024208,0.17001,0.\C,0,
 1.470313,0.588047,0.\H,0,-0.324465,1.914417,0.\H,0,1.66017,-0.485348,0
 .\H,0,1.955436,1.023046,0.879951\H,0,1.955436,1.023046,-0.879951\\Vers
 ion=ES64L-G16RevC.01\State=1-A'\HF=-216.8697188\RMSD=6.735e-01\Dipole=
 0.0375904,-0.6767411,0.\Quadrupole=0.3803512,1.1246118,-1.504963,0.799

 Normal termination of Gaussian 16 at Tue Apr  8 22:45:31 2025.
