 Gaussian 16, Revision C.01,

 ----------------------------------------------------------------------
 #t hf aug-cc-pvdz symm=none int=(grid=ultrafine) guess=(read,tcheck) s
 table=(opt,rrhf)
 ----------------------------------------------------------------------
 -----
 title
 -----
 Symbolic Z-matrix:
 Charge =  0 Multiplicity = 1

 SCF Done:  E(RHF) =  -877.301807102     A.U. after   16 cycles
 Normal termination of Gaussian 16 at Tue Apr  8 23:11:57 2025.
 Gaussian 16:  ES64L-G16RevC.01  3-Jul-2019

 ----------------------------------------------------------------------
 #t hf aug-cc-pvdz iop(5/13=1,5/36=2,99/5=2) pseudo=read geom=check gue
 ss=(read,tcheck) scf=(maxcycle=1)
 ----------------------------------------------------------------------
 -----
 title
 -----
 Structure from the checkpoint file:  "BDE49_expt_606_mol1.chk"
 Charge =  0 Multiplicity = 1

                         Standard orientation:
 ---------------------------------------------------------------------
 Center     Atomic      Atomic             Coordinates (Angstroms)
 Number     Number       Type             X           Y           Z
 ---------------------------------------------------------------------
      1          6           0       -1.451455   -0.007518    0.000001
      2          6           0       -1.582379    1.378433    0.000045
      3          6           0       -0.434299    2.168497    0.000028
      4          6           0        2.309091   -0.401340   -0.000154
      5          8           0        3.332502    0.238418    0.000041
      6          8           0        2.299339   -1.755404    0.000073
      7          1           0        3.226318   -2.034942    0.000200
      8          6           0       -0.203484   -0.616722   -0.000058
      9          6           0        0.824610    1.580137   -0.000031
     10          6           0        0.940486    0.187306   -0.000078
     11          1           0       -0.530180    3.247788    0.000061
     12          1           0        1.727109    2.177521   -0.000047
     13          1           0       -0.116714   -1.693746   -0.000093
     14         17           0       -2.894666   -1.007098    0.000021
     15          1           0       -2.567359    1.827176    0.000091
 ---------------------------------------------------------------------

 SCF Done:  E(RHF) =  -879.399464481     A.U. after    2 cycles

 The electronic state is 1-A.
 Alpha  occ. eigenvalues --  -99.90352 -21.13202 -21.06131 -11.54586 -11.53835
 Alpha  occ. eigenvalues --  -11.47635 -11.46703 -11.45004 -11.44143 -11.39718
 Alpha  occ. eigenvalues --  -10.47690  -9.67731  -9.66834  -9.66651  -1.83991
 Alpha  occ. eigenvalues --   -1.66322  -1.41350  -1.29498  -1.14200  -1.10178
 Alpha  occ. eigenvalues --   -0.94972  -0.89038  -0.81212  -0.73585  -0.67833
 Alpha  occ. eigenvalues --   -0.64504  -0.62873  -0.61478  -0.59610  -0.58803
 Alpha  occ. eigenvalues --   -0.56846  -0.51204  -0.50975  -0.49437  -0.47601
 Alpha  occ. eigenvalues --   -0.45920  -0.36513  -0.35473  -0.33570  -0.30966
 Alpha virt. eigenvalues --    0.02851   0.05199   0.05441   0.05787   0.07285
 Alpha virt. eigenvalues --    0.07489   0.07657   0.09664   0.09707   0.10361
 Alpha virt. eigenvalues --    0.11279   0.11864   0.12437   0.12937   0.13247

 Mulliken charges:
               1
     1  C   -1.791841
     2  C   -3.002084
     3  C    0.174418
     4  C    5.392375
     5  O   -3.624436
     6  O   -3.788761
     7  H    1.231586
     8  C    0.128182
     9  C   -2.462539
    10  C    1.870587
    11  H    1.462024
    12  H    1.743843
    13  H    1.809258
    14  Cl  -0.850059
    15  H    1.707446
 Sum of Mulliken charges =   0.00000

 Dipole moment (field-independent basis, Debye):
    X=              0.6065    Y=              0.8392    Z=              0.0002  Tot=              1.0355

 Test job not archived.
 1\1\GINC-SE039\SP\RHF\Aug-CC-pVDZ\C7H5Cl1O2\OHZDE\08-Apr-2025\0\\#t hf
  aug-cc-pvdz iop(5/13=1,5/36=2,99/5=2) pseudo=read geom=check guess=(r
 ead,tcheck) scf=(maxcycle=1)\\title\\0,1\C,0,1.451455,-0.007518,-0.000
 001\C,0,1.582379,1.378433,-0.000045\C,0,0.434299,2.168497,-0.000028\C,
 0,-2.309091,-0.40134,0.000154\O,0,-3.332502,0.238418,-0.000041\O,0,-2.
 299339,-1.755404,-0.000073\H,0,-3.226318,-2.034942,-0.0002\C,0,0.20348
 4,-0.616722,0.000058\C,0,-0.82461,1.580137,0.000031\C,0,-0.940486,0.18
 7306,0.000078\H,0,0.53018,3.247788,-0.000061\H,0,-1.727109,2.177521,0.

 Normal termination of Gaussian 16 at Tue Apr  8 23:12:06 2025.
