 Gaussian 16, Revision C.01,

 ----------------------------------------------------------------------
 #t hf aug-cc-pvdz symm=none int=(grid=ultrafine) guess=(read,tcheck) s
 table=(opt,rrhf)
 ----------------------------------------------------------------------
 -----
 title
 -----
 Symbolic Z-matrix:
 Charge =  0 Multiplicity = 1

 SCF Done:  E(RHF) =  -559.786663731     A.U. after   16 cycles
 Normal termination of Gaussian 16 at Wed Apr  9 00:42:23 2025.
 Gaussian 16:  ES64L-G16RevC.01  3-Jul-2019

 ----------------------------------------------------------------------
 #t hf aug-cc-pvdz iop(5/13=1,5/36=2,99/5=2) pseudo=read geom=check gue
 ss=(read,tcheck) scf=(maxcycle=1)
 ----------------------------------------------------------------------
 -----
 title
 -----
 Structure from the checkpoint file:  "BDE49_nonexpt_665_mol1.chk"
 Charge =  0 Multiplicity = 1

                         Standard orientation:
 ---------------------------------------------------------------------
 Center     Atomic      Atomic             Coordinates (Angstroms)
 Number     Number       Type             X           Y           Z
 ---------------------------------------------------------------------
      1          9           0       -2.180357    1.843746   -0.029829
      2          7           0       -3.314270   -0.619298   -0.061105
      3          1           0       -3.705571   -1.473721    0.303315
      4          1           0       -3.833047    0.208294    0.190399
      5          5           0        2.436944    0.084202    0.003617
      6          8           0        2.906253    1.366881    0.072527
      7          1           0        3.868459    1.393384    0.054989
      8          6           0       -1.339548    0.769544   -0.019677
      9          8           0        3.371190   -0.921317   -0.063177
     10          1           0        2.995508   -1.800897   -0.142866
     11          6           0       -1.937242   -0.499237   -0.000096
     12          6           0       -1.071297   -1.601635    0.026059
     13          1           0       -1.492756   -2.601467    0.040408
     14          6           0        0.306343   -1.419418    0.027637
     15          1           0        0.928721   -2.310136    0.055431
     16          6           0        0.894098   -0.145974    0.003492
     17          6           0        0.021897    0.958605   -0.016126
     18          1           0        0.412014    1.969089   -0.026104
 ---------------------------------------------------------------------

 SCF Done:  E(RHF) =  -562.183267835     A.U. after    2 cycles

 The electronic state is 1-A.
 Alpha  occ. eigenvalues --  -29.27975 -21.05996 -21.04926 -15.77132 -11.53794
 Alpha  occ. eigenvalues --  -11.47140 -11.45883 -11.43390 -11.41585 -11.36622
 Alpha  occ. eigenvalues --   -7.65828  -1.81667  -1.65154  -1.43460  -1.28822
 Alpha  occ. eigenvalues --   -1.14877  -1.08257  -0.92335  -0.89361  -0.79538
 Alpha  occ. eigenvalues --   -0.72058  -0.70037  -0.68932  -0.64393  -0.61685
 Alpha  occ. eigenvalues --   -0.58499  -0.57713  -0.56128  -0.51028  -0.49182
 Alpha  occ. eigenvalues --   -0.48146  -0.43841  -0.41614  -0.41136  -0.39718
 Alpha  occ. eigenvalues --   -0.36188  -0.35922  -0.30116  -0.27290  -0.22057
 Alpha virt. eigenvalues --    0.03187   0.04340   0.04952   0.05301   0.06075
 Alpha virt. eigenvalues --    0.06448   0.07500   0.08004   0.08622   0.10120
 Alpha virt. eigenvalues --    0.10419   0.11162   0.12510   0.12891   0.13151

 Mulliken charges:
               1
     1  F    0.739119
     2  N   -3.630818
     3  H    0.610163
     4  H    0.635810
     5  B    4.714891
     6  O   -4.370007
     7  H    1.179006
     8  C    5.249875
     9  O   -4.950555
    10  H    1.529587
    11  C   -3.076070
    12  C   -1.262348
    13  H    1.766285
    14  C   -0.396262
    15  H    1.835972
    16  C   -0.062556
    17  C   -2.798226
    18  H    2.286135
 Sum of Mulliken charges =   0.00000

 Dipole moment (field-independent basis, Debye):
    X=             -2.8653    Y=              0.4727    Z=              0.6007  Tot=              2.9655

 Test job not archived.
 1\1\GINC-SE070\SP\RHF\Aug-CC-pVDZ\C6H7B1F1N1O2\OHZDE\09-Apr-2025\0\\#t
  hf aug-cc-pvdz iop(5/13=1,5/36=2,99/5=2) pseudo=read geom=check guess
 =(read,tcheck) scf=(maxcycle=1)\\title\\0,1\F,0,-2.180357,1.843746,-0.
 029829\N,0,-3.31427,-0.619298,-0.061105\H,0,-3.705571,-1.473721,0.3033
 15\H,0,-3.833047,0.208294,0.190399\B,0,2.436944,0.084202,0.003617\O,0,
 2.906253,1.366881,0.072527\H,0,3.868459,1.393384,0.054989\C,0,-1.33954
 8,0.769544,-0.019677\O,0,3.37119,-0.921317,-0.063177\H,0,2.995508,-1.8
 00897,-0.142866\C,0,-1.937242,-0.499237,-0.000096\C,0,-1.071297,-1.601

 Normal termination of Gaussian 16 at Wed Apr  9 00:42:33 2025.
