 Gaussian 16, Revision C.01,

 ----------------------------------------------------------------------
 #t hf aug-cc-pvdz symm=none int=(grid=ultrafine) guess=(read,tcheck) s
 table=(opt,rrhf)
 ----------------------------------------------------------------------
 -----
 title
 -----
 Symbolic Z-matrix:
 Charge =  0 Multiplicity = 1

 SCF Done:  E(RHF) =  -366.164799566     A.U. after   11 cycles

 1\1\GINC-SE069\Stability\RHF\Aug-CC-pVDZ\H4O1Si1\OHZDE\08-Apr-2025\0\\
 #t hf aug-cc-pvdz symm=none int=(grid=ultrafine) guess=(read,tcheck) s
 table=(opt,rrhf)\\title\\0,1\O,0,-1.11563,0.111076,0.\Si,0,0.533026,-0
 .008916,0.\H,0,-1.640786,-0.691727,0.000003\H,0,1.033278,1.378424,-0.0
 00018\H,0,1.03509,-0.725254,-1.198592\H,0,1.035092,-0.725223,1.19861\\
 Version=ES64L-G16RevC.01\HF=-366.1647996\RMSD=3.206e-09\Dipole=-0.0186
 039,-0.5472885,0.0000015\Quadrupole=0.486396,0.2965074,-0.7829035,2.25
 24688,-0.000011,-0.000005\PG=Unknown\\@

 Normal termination of Gaussian 16 at Tue Apr  8 23:56:17 2025.
 Gaussian 16:  ES64L-G16RevC.01  3-Jul-2019

 ----------------------------------------------------------------------
 #t hf aug-cc-pvdz iop(5/13=1,5/36=2,99/5=2) pseudo=read geom=check gue
 ss=(read,tcheck) scf=(maxcycle=1)
 ----------------------------------------------------------------------
 -----
 title
 -----
 Structure from the checkpoint file:  "BDE49_nonexpt_2009_mol1.chk"
 Charge =  0 Multiplicity = 1

                         Standard orientation:
 ---------------------------------------------------------------------
 Center     Atomic      Atomic             Coordinates (Angstroms)
 Number     Number       Type             X           Y           Z
 ---------------------------------------------------------------------
      1          8           0       -1.115630    0.111076   -0.000000
      2         14           0        0.533026   -0.008916   -0.000000
      3          1           0       -1.640786   -0.691727    0.000003
      4          1           0        1.033278    1.378424   -0.000018
      5          1           0        1.035090   -0.725254   -1.198592
      6          1           0        1.035092   -0.725223    1.198610
 ---------------------------------------------------------------------

 SCF Done:  E(RHF) =  -366.651095115     A.U. after    2 cycles

 The electronic state is 1-A.
 Alpha  occ. eigenvalues --  -76.23773 -21.07894  -5.57352  -2.23765  -2.19070
 Alpha  occ. eigenvalues --   -2.18735  -1.65980  -0.76818  -0.59008  -0.49544
 Alpha  occ. eigenvalues --   -0.48064  -0.40673  -0.37873
 Alpha virt. eigenvalues --    0.03762   0.05374   0.06504   0.06864   0.07776
 Alpha virt. eigenvalues --    0.09482   0.09634   0.14714   0.17435   0.18124
 Alpha virt. eigenvalues --    0.18158   0.22298   0.23342   0.24408   0.25213

 Mulliken charges:
               1
     1  O   -2.390333
     2  Si   6.124209
     3  H    1.027993
     4  H   -1.578937
     5  H   -1.591465
     6  H   -1.591465
 Sum of Mulliken charges =  -0.00000

 Dipole moment (field-independent basis, Debye):
    X=             -0.7934    Y=             -0.5801    Z=              0.0000  Tot=              0.9828

 Test job not archived.
 1\1\GINC-SE069\SP\RHF\Aug-CC-pVDZ\H4O1Si1\OHZDE\08-Apr-2025\0\\#t hf a
 ug-cc-pvdz iop(5/13=1,5/36=2,99/5=2) pseudo=read geom=check guess=(rea
 d,tcheck) scf=(maxcycle=1)\\title\\0,1\O,0,-1.11563,0.111076,0.\Si,0,0
 .533026,-0.008916,0.\H,0,-1.640786,-0.691727,0.000003\H,0,1.033278,1.3
 78424,-0.000018\H,0,1.03509,-0.725254,-1.198592\H,0,1.035092,-0.725223
 ,1.19861\\Version=ES64L-G16RevC.01\State=1-A\HF=-366.6510951\RMSD=9.68
 0e-02\Dipole=-0.3121395,-0.2282142,0.0000002\Quadrupole=0.6808055,0.26
 66483,-0.9474538,1.7958442,-0.0000115,-0.0000056\PG=C01 [X(H4O1Si1)]\\

 Normal termination of Gaussian 16 at Tue Apr  8 23:56:19 2025.
