 Gaussian 16, Revision C.01,

 ----------------------------------------------------------------------
 #t hf aug-cc-pvdz symm=none int=(grid=ultrafine) guess=(read,tcheck) s
 table=(opt,rrhf)
 ----------------------------------------------------------------------
 -----
 title
 -----
 Symbolic Z-matrix:
 Charge =  0 Multiplicity = 1

 SCF Done:  E(RHF) =  -792.942804627     A.U. after   16 cycles
 Normal termination of Gaussian 16 at Wed Apr  9 00:54:58 2025.
 Gaussian 16:  ES64L-G16RevC.01  3-Jul-2019

 ----------------------------------------------------------------------
 #t hf aug-cc-pvdz iop(5/13=1,5/36=2,99/5=2) pseudo=read geom=check gue
 ss=(read,tcheck) scf=(maxcycle=1)
 ----------------------------------------------------------------------
 -----
 title
 -----
 Structure from the checkpoint file:  "BDE49_nonexpt_979_mol1.chk"
 Charge =  0 Multiplicity = 1

                         Standard orientation:
 ---------------------------------------------------------------------
 Center     Atomic      Atomic             Coordinates (Angstroms)
 Number     Number       Type             X           Y           Z
 ---------------------------------------------------------------------
      1         16           0        0.693114   -1.095114   -0.215349
      2          7           0        1.711235    0.440263   -0.021057
      3          8           0        1.193924    1.506196   -0.228164
      4          8           0        2.850556    0.190552    0.310028
      5          8           0       -0.732223   -0.457464   -0.715489
      6          6           0       -1.712028   -0.009765    0.204839
      7          6           0       -1.593742   -0.068221    1.523045
      8          6           0       -2.861561    0.528020   -0.582118
      9          1           0       -3.651163    0.874715    0.084047
     10          1           0       -3.266055   -0.241662   -1.245445
     11          1           0       -2.530220    1.361321   -1.207765
     12          1           0       -0.715541   -0.465441    2.012602
     13          1           0       -2.399567    0.296566    2.143943
 ---------------------------------------------------------------------

 SCF Done:  E(RHF) =  -794.909475400     A.U. after    2 cycles

 The electronic state is 1-A.
 Alpha  occ. eigenvalues --  -75.80919 -21.13219 -21.12382 -21.11667 -16.02189
 Alpha  occ. eigenvalues --  -13.29605 -13.22602 -13.17612 -11.48567 -11.40631
 Alpha  occ. eigenvalues --  -11.39098  -8.14438  -2.01655  -1.83286  -1.72247
 Alpha  occ. eigenvalues --   -1.22629  -1.14094  -1.03225  -0.90418  -0.77751
 Alpha  occ. eigenvalues --   -0.71453  -0.69136  -0.65831  -0.64036  -0.61522
 Alpha  occ. eigenvalues --   -0.60509  -0.54063  -0.51127  -0.50154  -0.44232
 Alpha  occ. eigenvalues --   -0.35966  -0.33865  -0.33342  -0.31227  -0.28443
 Alpha virt. eigenvalues --    0.02997   0.04972   0.05341   0.06098   0.06458
 Alpha virt. eigenvalues --    0.07134   0.09343   0.10051   0.10589   0.11435
 Alpha virt. eigenvalues --    0.13218   0.14046   0.14549   0.14805   0.16059

 Mulliken charges:
               1
     1  S    1.550185
     2  N    4.380107
     3  O   -2.626380
     4  O   -2.631315
     5  O   -3.372465
     6  C    3.863816
     7  C   -4.420894
     8  C   -3.885997
     9  H    1.243242
    10  H    1.205821
    11  H    1.235546
    12  H    2.001566
    13  H    1.456766
 Sum of Mulliken charges =  -0.00000

 Dipole moment (field-independent basis, Debye):
    X=             -2.3332    Y=             -1.7364    Z=             -0.2296  Tot=              2.9175

 Test job not archived.
 1\1\GINC-SE106\SP\RHF\Aug-CC-pVDZ\C3H5N1O3S1\OHZDE\09-Apr-2025\0\\#t h
 f aug-cc-pvdz iop(5/13=1,5/36=2,99/5=2) pseudo=read geom=check guess=(
 read,tcheck) scf=(maxcycle=1)\\title\\0,1\S,0,0.693114,-1.095114,-0.21
 5349\N,0,1.711235,0.440263,-0.021057\O,0,1.193924,1.506196,-0.228164\O
 ,0,2.850556,0.190552,0.310028\O,0,-0.732223,-0.457464,-0.715489\C,0,-1
 .712028,-0.009765,0.204839\C,0,-1.593742,-0.068221,1.523045\C,0,-2.861
 561,0.52802,-0.582118\H,0,-3.651163,0.874715,0.084047\H,0,-3.266055,-0
 .241662,-1.245445\H,0,-2.53022,1.361321,-1.207765\H,0,-0.715541,-0.465

 Normal termination of Gaussian 16 at Wed Apr  9 00:55:03 2025.
