 Gaussian 16, Revision C.01,

 ----------------------------------------------------------------------
 #t hf aug-cc-pvdz symm=none int=(grid=ultrafine) guess=(read,tcheck) s
 table=(opt,rrhf)
 ----------------------------------------------------------------------
 -----
 title
 -----
 Symbolic Z-matrix:
 Charge =  0 Multiplicity = 1

 SCF Done:  E(RHF) =  -608.608752237     A.U. after   15 cycles
 Normal termination of Gaussian 16 at Tue Apr  8 23:53:04 2025.
 Gaussian 16:  ES64L-G16RevC.01  3-Jul-2019

 ----------------------------------------------------------------------
 #t hf aug-cc-pvdz iop(5/13=1,5/36=2,99/5=2) pseudo=read geom=check gue
 ss=(read,tcheck) scf=(maxcycle=1)
 ----------------------------------------------------------------------
 -----
 title
 -----
 Structure from the checkpoint file:  "BDE49_nonexpt_1916_mol1.chk"
 Charge =  0 Multiplicity = 1

                         Standard orientation:
 ---------------------------------------------------------------------
 Center     Atomic      Atomic             Coordinates (Angstroms)
 Number     Number       Type             X           Y           Z
 ---------------------------------------------------------------------
      1         14           0       -2.409375   -0.166283   -0.000000
      2          6           0       -0.682686    0.631608    0.000001
      3          1           0       -3.388764    0.944126   -0.000002
      4          1           0       -2.582991   -0.991946    1.212741
      5          1           0       -2.582988   -0.991950   -1.212738
      6          8           0        0.252229   -0.461708    0.000005
      7          7           0        1.638064   -0.054494    0.000007
      8          8           0        1.860506    1.129117   -0.000001
      9          8           0        2.386289   -0.986980   -0.000011
     10          1           0       -0.538268    1.258059    0.884869
     11          1           0       -0.538266    1.258056   -0.884868
 ---------------------------------------------------------------------

 SCF Done:  E(RHF) =  -610.118758179     A.U. after    2 cycles

 The electronic state is 1-A.
 Alpha  occ. eigenvalues --  -76.23742 -21.14395 -21.12936 -21.12747 -16.05910
 Alpha  occ. eigenvalues --  -11.42351  -5.57284  -2.21095  -2.19589  -2.19480
 Alpha  occ. eigenvalues --   -2.08041  -1.76225  -1.74271  -1.06255  -0.88999
 Alpha  occ. eigenvalues --   -0.78400  -0.74137  -0.73126  -0.66007  -0.63977
 Alpha  occ. eigenvalues --   -0.51406  -0.49399  -0.48804  -0.47673  -0.38279
 Alpha  occ. eigenvalues --   -0.36119  -0.34466  -0.33196
 Alpha virt. eigenvalues --    0.03443   0.04376   0.05103   0.06262   0.07646
 Alpha virt. eigenvalues --    0.08144   0.08791   0.09450   0.11210   0.13778
 Alpha virt. eigenvalues --    0.14043   0.14378   0.14993   0.15559   0.16075

 Mulliken charges:
               1
     1  Si   5.986488
     2  C   -2.713205
     3  H   -1.638085
     4  H   -1.664329
     5  H   -1.664329
     6  O   -2.428600
     7  N    6.532569
     8  O   -2.657789
     9  O   -2.770096
    10  H    1.508689
    11  H    1.508688
 Sum of Mulliken charges =  -0.00000

 Dipole moment (field-independent basis, Debye):
    X=             -2.1111    Y=              0.6305    Z=             -0.0000  Tot=              2.2033

 Test job not archived.
 1\1\GINC-SE084\SP\RHF\Aug-CC-pVDZ\C1H5N1O3Si1\OHZDE\08-Apr-2025\0\\#t
 hf aug-cc-pvdz iop(5/13=1,5/36=2,99/5=2) pseudo=read geom=check guess=
 (read,tcheck) scf=(maxcycle=1)\\title\\0,1\Si,0,2.409375,-0.166283,0.\
 C,0,0.682686,0.631608,-0.000001\H,0,3.388764,0.944126,0.000002\H,0,2.5
 82991,-0.991946,-1.212741\H,0,2.582988,-0.99195,1.212738\O,0,-0.252229
 ,-0.461708,-0.000005\N,0,-1.638064,-0.054494,-0.000007\O,0,-1.860506,1
 .129117,0.000001\O,0,-2.386289,-0.98698,0.000011\H,0,0.538268,1.258059
 ,-0.884869\H,0,0.538266,1.258056,0.884868\\Version=ES64L-G16RevC.01\St

 Normal termination of Gaussian 16 at Tue Apr  8 23:53:10 2025.
