 Gaussian 16, Revision C.01,

 ----------------------------------------------------------------------
 #t hf aug-cc-pvdz symm=none int=(grid=ultrafine) guess=(read,tcheck) s
 table=opt
 ----------------------------------------------------------------------
 -----
 title
 -----
 Symbolic Z-matrix:
 Charge =  0 Multiplicity = 2

 SCF Done:  E(UHF) =  -800.906572237     A.U. after   22 cycles
 Normal termination of Gaussian 16 at Tue Apr  8 23:58:25 2025.
 Gaussian 16:  ES64L-G16RevC.01  3-Jul-2019

 ----------------------------------------------------------------------
 #t hf aug-cc-pvdz iop(5/13=1,5/36=2,99/5=2) pseudo=read geom=check gue
 ss=(read,tcheck) scf=(maxcycle=1)
 ----------------------------------------------------------------------
 -----
 title
 -----
 Structure from the checkpoint file:  "BDE49_nonexpt_2054_mol2.chk"
 Charge =  0 Multiplicity = 2

                         Standard orientation:
 ---------------------------------------------------------------------
 Center     Atomic      Atomic             Coordinates (Angstroms)
 Number     Number       Type             X           Y           Z
 ---------------------------------------------------------------------
      1         14           0       -1.633008   -0.453899   -0.088831
      2          6           0        0.024115    0.498324    0.005475
      3          8           0        0.061746    1.700670    0.017886
      4         16           0        1.590700   -0.445847    0.001700
      5          1           0        1.037698   -1.670241    0.037849
      6          1           0       -2.718278    0.368759    0.488221
      7          1           0       -1.547155   -1.805684    0.514425
 ---------------------------------------------------------------------

 SCF Done:  E(UHF) =  -801.734454517     A.U. after    2 cycles

 The electronic state is 2-A.
 Alpha  occ. eigenvalues --  -76.26265 -75.71523 -21.09152 -13.14299 -13.11241
 Alpha  occ. eigenvalues --  -13.03076 -11.49013  -8.05497  -5.59706  -2.23120
 Alpha  occ. eigenvalues --   -2.21980  -2.20305  -1.74034  -1.16235  -0.87035
 Alpha  occ. eigenvalues --   -0.71981  -0.59312  -0.53275  -0.51352  -0.50387
 Alpha  occ. eigenvalues --   -0.45431  -0.31237  -0.27234  -0.24858
 Alpha virt. eigenvalues --    0.03075   0.04682   0.05649   0.06171   0.06645
 Alpha virt. eigenvalues --    0.08615   0.09267   0.10365   0.11623   0.12474
 Alpha virt. eigenvalues --    0.13457   0.15253   0.15618   0.16127   0.16832

  Beta  occ. eigenvalues --  -76.25694 -75.71522 -21.08513 -13.14293 -13.11208
  Beta  occ. eigenvalues --  -13.03104 -11.49290  -8.05498  -5.58817  -2.22404
  Beta  occ. eigenvalues --   -2.21298  -2.16616  -1.72837  -1.16160  -0.84491
  Beta  occ. eigenvalues --   -0.70476  -0.58894  -0.52832  -0.50680  -0.49847
  Beta  occ. eigenvalues --   -0.45268  -0.26440  -0.25878
  Beta virt. eigenvalues --    0.01924   0.03300   0.04987   0.05805   0.06933
  Beta virt. eigenvalues --    0.07646   0.08989   0.10132   0.11521   0.11851
  Beta virt. eigenvalues --    0.13886   0.13972   0.15736   0.16216   0.17116

 Mulliken charges and spin densities:
               1          2
     1  Si   3.690437   1.050918
     2  C    0.479505  -0.208179
     3  O   -2.171497   0.176815
     4  S   -0.226313   0.005671
     5  H    1.026383  -0.007917
     6  H   -1.424791  -0.003717
     7  H   -1.373724  -0.013591
 Sum of Mulliken charges =   0.00000   1.00000

 Dipole moment (field-independent basis, Debye):
    X=              0.7978    Y=             -0.2546    Z=             -0.2175  Tot=              0.8652
                          Isotropic Fermi Contact Couplings
        Atom                 a.u.       MegaHertz       Gauss      10(-4) cm-1
     1  Si(29)             0.45045    -400.32529    -142.84602    -133.53414
     2  C(13)             -0.00841      -9.45898      -3.37520      -3.15517
     3  O(17)              0.03557     -21.56368      -7.69446      -7.19287
     4  S(33)             -0.01122      -3.85543      -1.37571      -1.28603
     5  H(1)              -0.00003      -0.11977      -0.04274      -0.03995
     6  H(1)               0.00178       7.95732       2.83937       2.65428
     7  H(1)               0.00150       6.69383       2.38852       2.23282
 --------------------------------------------------------

 1\1\GINC-SE365\SP\UHF\Aug-CC-pVDZ\C1H3O1S1Si1(2)\OHZDE\08-Apr-2025\0\\
 #t hf aug-cc-pvdz iop(5/13=1,5/36=2,99/5=2) pseudo=read geom=check gue
 ss=(read,tcheck) scf=(maxcycle=1)\\title\\0,2\Si,0,-1.633008,-0.453899
 ,-0.088831\C,0,0.024115,0.498324,0.005475\O,0,0.061746,1.70067,0.01788
 6\S,0,1.5907,-0.445847,0.0017\H,0,1.037698,-1.670241,0.037849\H,0,-2.7
 18278,0.368759,0.488221\H,0,-1.547155,-1.805684,0.514425\\Version=ES64
 L-G16RevC.01\State=2-A\HF=-801.7344545\S2=0.776916\S2-1=0.\S2A=0.75026
 9\RMSD=1.034e-01\Dipole=0.3138685,-0.1001642,-0.0855594\Quadrupole=2.9

 Normal termination of Gaussian 16 at Tue Apr  8 23:58:27 2025.
