 Gaussian 16, Revision C.01,

 ----------------------------------------------------------------------
 #t hf aug-cc-pvdz symm=none int=(grid=ultrafine) guess=(read,tcheck) s
 table=(opt,rrhf)
 ----------------------------------------------------------------------
 -----
 title
 -----
 Symbolic Z-matrix:
 Charge =  0 Multiplicity = 1

 SCF Done:  E(RHF) =  -176.908003419     A.U. after   12 cycles
 Normal termination of Gaussian 16 at Tue Apr  8 22:45:27 2025.
 Gaussian 16:  ES64L-G16RevC.01  3-Jul-2019

 ----------------------------------------------------------------------
 #t hf aug-cc-pvdz iop(5/13=1,5/36=2,99/5=2) pseudo=read geom=check gue
 ss=(read,tcheck) scf=(maxcycle=1)
 ----------------------------------------------------------------------
 -----
 title
 -----
 Structure from the checkpoint file:  "BDE49_expt_1517_mol1.chk"
 Charge =  0 Multiplicity = 1

                         Standard orientation:
 ---------------------------------------------------------------------
 Center     Atomic      Atomic             Coordinates (Angstroms)
 Number     Number       Type             X           Y           Z
 ---------------------------------------------------------------------
      1          6           0        0.020455    0.432872   -0.000000
      2          6           0        1.180071   -0.198304   -0.000000
      3          9           0       -1.157594   -0.223060   -0.000000
      4          1           0       -0.116387    1.508146    0.000001
      5          1           0        2.098991    0.371389    0.000002
      6          1           0        1.232587   -1.279403   -0.000000
 ---------------------------------------------------------------------

 SCF Done:  E(RHF) =  -177.625716357     A.U. after    2 cycles

 The electronic state is 1-A.
 Alpha  occ. eigenvalues --  -29.28326 -11.46956 -11.39021  -1.22087  -0.91993
 Alpha  occ. eigenvalues --   -0.71838  -0.63061  -0.54405  -0.48029  -0.39006
 Alpha  occ. eigenvalues --   -0.27568  -0.24350
 Alpha virt. eigenvalues --    0.04084   0.05418   0.06248   0.11050   0.12165
 Alpha virt. eigenvalues --    0.12611   0.13080   0.15293   0.15692   0.19295
 Alpha virt. eigenvalues --    0.20891   0.22266   0.26265   0.27798   0.30185

 Mulliken charges:
               1
     1  C   -1.626268
     2  C   -2.913069
     3  F    0.625300
     4  H    1.292916
     5  H    1.301643
     6  H    1.319478
 Sum of Mulliken charges =  -0.00000

 Dipole moment (field-independent basis, Debye):
    X=             -1.9002    Y=             -0.3727    Z=              0.0000  Tot=              1.9364

 Test job not archived.
 1\1\GINC-SE095\SP\RHF\Aug-CC-pVDZ\C2H3F1\OHZDE\08-Apr-2025\0\\#t hf au
 g-cc-pvdz iop(5/13=1,5/36=2,99/5=2) pseudo=read geom=check guess=(read
 ,tcheck) scf=(maxcycle=1)\\title\\0,1\C,0,0.020455,0.432872,0.\C,0,1.1
 80071,-0.198304,0.\F,0,-1.157594,-0.22306,0.\H,0,-0.116387,1.508146,0.
 000001\H,0,2.098991,0.371389,0.000002\H,0,1.232587,-1.279403,0.\\Versi
 on=ES64L-G16RevC.01\State=1-A\HF=-177.6257164\RMSD=3.976e-01\Dipole=-0
 .747613,-0.1466343,0.0000012\Quadrupole=0.8056382,0.9163274,-1.7219656
 ,0.0586944,0.0000039,0.0000017\PG=C01 [X(C2H3F1)]\\@

 Normal termination of Gaussian 16 at Tue Apr  8 22:45:28 2025.
