 Gaussian 16, Revision C.01,

 ----------------------------------------------------------------------
 #t hf aug-cc-pvdz symm=none int=(grid=ultrafine) guess=(read,tcheck) s
 table=(opt,rrhf)
 ----------------------------------------------------------------------
 -----
 title
 -----
 Symbolic Z-matrix:
 Charge =  0 Multiplicity = 1

 SCF Done:  E(RHF) =  -152.917415234     A.U. after   13 cycles
 Normal termination of Gaussian 16 at Tue Apr  8 22:45:38 2025.
 Gaussian 16:  ES64L-G16RevC.01  3-Jul-2019

 ----------------------------------------------------------------------
 #t hf aug-cc-pvdz iop(5/13=1,5/36=2,99/5=2) pseudo=read geom=check gue
 ss=(read,tcheck) scf=(maxcycle=1)
 ----------------------------------------------------------------------
 -----
 title
 -----
 Structure from the checkpoint file:  "BDE49_expt_153_mol1.chk"
 Charge =  0 Multiplicity = 1

                         Standard orientation:
 ---------------------------------------------------------------------
 Center     Atomic      Atomic             Coordinates (Angstroms)
 Number     Number       Type             X           Y           Z
 ---------------------------------------------------------------------
      1          6           0       -0.035718    0.411122    0.000001
      2          8           0        1.134081   -0.295580   -0.000003
      3          1           0        1.873972    0.316125   -0.000016
      4          6           0       -1.225661   -0.178944    0.000003
      5          1           0        0.064240    1.494383    0.000005
      6          1           0       -1.316658   -1.258017    0.000000
      7          1           0       -2.125928    0.419079    0.000010
 ---------------------------------------------------------------------

 SCF Done:  E(RHF) =  -153.605449866     A.U. after    2 cycles

 The electronic state is 1-A.
 Alpha  occ. eigenvalues --  -21.10251 -11.44254 -11.36463  -1.74732  -1.09836
 Alpha  occ. eigenvalues --   -0.80960  -0.69808  -0.56411  -0.53741  -0.48115
 Alpha  occ. eigenvalues --   -0.43300  -0.28288
 Alpha virt. eigenvalues --    0.03454   0.05606   0.05927   0.06621   0.11089
 Alpha virt. eigenvalues --    0.12669   0.13107   0.14036   0.15258   0.16797
 Alpha virt. eigenvalues --    0.19893   0.20902   0.21335   0.22024   0.23926

 Mulliken charges:
               1
     1  C    0.631587
     2  O   -2.915385
     3  H    0.912277
     4  C   -2.668071
     5  H    1.419810
     6  H    1.338600
     7  H    1.281183
 Sum of Mulliken charges =   0.00000

 Dipole moment (field-independent basis, Debye):
    X=              1.0444    Y=              0.9426    Z=             -0.0000  Tot=              1.4069

 Test job not archived.
 1\1\GINC-SE141\SP\RHF\Aug-CC-pVDZ\C2H4O1\OHZDE\08-Apr-2025\0\\#t hf au
 g-cc-pvdz iop(5/13=1,5/36=2,99/5=2) pseudo=read geom=check guess=(read
 ,tcheck) scf=(maxcycle=1)\\title\\0,1\C,0,0.035718,0.411122,-0.000001\
 O,0,-1.134081,-0.29558,0.000003\H,0,-1.873972,0.316125,0.000016\C,0,1.
 225661,-0.178944,-0.000003\H,0,-0.06424,1.494383,-0.000005\H,0,1.31665
 8,-1.258017,0.\H,0,2.125928,0.419079,-0.00001\\Version=ES64L-G16RevC.0
 1\State=1-A\HF=-153.6054499\RMSD=4.016e-01\Dipole=-0.4108869,0.3708626
 ,0.0000031\Quadrupole=1.7403594,0.6211612,-2.3615206,-1.4022082,-0.000

 Normal termination of Gaussian 16 at Tue Apr  8 22:45:40 2025.
