 Gaussian 16, Revision C.01,

 ----------------------------------------------------------------------
 #t hf aug-cc-pvdz symm=none int=(grid=ultrafine) guess=(read,tcheck) s
 table=(opt,rrhf)
 ----------------------------------------------------------------------
 -----
 title
 -----
 Symbolic Z-matrix:
 Charge =  0 Multiplicity = 1

 SCF Done:  E(RHF) =  -828.739203637     A.U. after   16 cycles
 Normal termination of Gaussian 16 at Tue Apr  8 23:38:03 2025.
 Gaussian 16:  ES64L-G16RevC.01  3-Jul-2019

 ----------------------------------------------------------------------
 #t hf aug-cc-pvdz iop(5/13=1,5/36=2,99/5=2) pseudo=read geom=check gue
 ss=(read,tcheck) scf=(maxcycle=1)
 ----------------------------------------------------------------------
 -----
 title
 -----
 Structure from the checkpoint file:  "BDE49_nonexpt_1517_mol1.chk"
 Charge =  0 Multiplicity = 1

                         Standard orientation:
 ---------------------------------------------------------------------
 Center     Atomic      Atomic             Coordinates (Angstroms)
 Number     Number       Type             X           Y           Z
 ---------------------------------------------------------------------
      1         15           0       -0.266947   -0.169373   -0.781724
      2          7           0        1.251450   -1.050338   -0.025815
      3          7           0       -0.172992    1.386846   -0.060960
      4          8           0        1.344149   -2.244168   -0.241377
      5          8           0        2.060611   -0.381485    0.615370
      6          8           0        0.115757    1.507337    1.304384
      7          8           0        0.692658    2.218349   -0.817796
      8          6           0       -1.458879   -0.963472    0.388873
      9          6           0       -2.899873   -0.506912    0.127366
     10          1           0       -1.156465   -0.745123    1.414860
     11          1           0       -1.349054   -2.038117    0.218981
     12          1           0       -3.015346    0.562158    0.313709
     13          1           0       -3.584836   -1.040370    0.790678
     14          1           0       -3.206975   -0.709260   -0.902202
     15          1           0        0.202825    3.048669   -0.882954
     16          1           0        1.011967    1.129123    1.398130
 ---------------------------------------------------------------------

 SCF Done:  E(RHF) =  -831.039786877     A.U. after    2 cycles

 The electronic state is 1-A.
 Alpha  occ. eigenvalues -- -105.26697 -21.12641 -21.11659 -21.10782 -21.09885
 Alpha  occ. eigenvalues --  -15.97920 -15.82490 -11.43379 -11.38847  -2.84774
 Alpha  occ. eigenvalues --   -1.99074  -1.89067  -1.70725  -1.69580  -1.59584
 Alpha  occ. eigenvalues --   -1.56086  -1.52276  -1.16933  -1.05827  -0.93068
 Alpha  occ. eigenvalues --   -0.89184  -0.75889  -0.69489  -0.65931  -0.64756
 Alpha  occ. eigenvalues --   -0.62016  -0.61354  -0.58461  -0.57697  -0.54708
 Alpha  occ. eigenvalues --   -0.52665  -0.52266  -0.45602  -0.36614  -0.33926
 Alpha  occ. eigenvalues --   -0.33226  -0.32116  -0.26139  -0.23893  -0.05029
 Alpha virt. eigenvalues --    0.03748   0.04882   0.05696   0.06233   0.06747
 Alpha virt. eigenvalues --    0.06984   0.07877   0.08940   0.10136   0.10656
 Alpha virt. eigenvalues --    0.12522   0.12928   0.14313   0.14821   0.15810

 Mulliken charges:
               1
     1  P    4.625598
     2  N    3.657654
     3  N    1.823891
     4  O   -2.725395
     5  O   -2.414078
     6  O   -2.340669
     7  O   -2.390434
     8  C   -4.590133
     9  C   -3.750259
    10  H    1.378731
    11  H    1.404525
    12  H    1.289151
    13  H    1.007334
    14  H    1.331580
    15  H    0.840936
    16  H    0.851568
 Sum of Mulliken charges =  -0.00000

 Dipole moment (field-independent basis, Debye):
    X=             -0.8988    Y=              2.0157    Z=             -1.3973  Tot=              2.6122

 Test job not archived.
 1\1\GINC-SE249\SP\RHF\Aug-CC-pVDZ\C2H7N2O4P1\OHZDE\08-Apr-2025\0\\#t h
 f aug-cc-pvdz iop(5/13=1,5/36=2,99/5=2) pseudo=read geom=check guess=(
 read,tcheck) scf=(maxcycle=1)\\title\\0,1\P,0,-0.266947,-0.169373,-0.7
 81724\N,0,1.25145,-1.050338,-0.025815\N,0,-0.172992,1.386846,-0.06096\
 O,0,1.34415,-2.244168,-0.241377\O,0,2.060611,-0.381484,0.61537\O,0,0.1
 15757,1.507337,1.304384\O,0,0.692657,2.218349,-0.817796\C,0,-1.458879,
 -0.963473,0.388873\C,0,-2.899873,-0.506913,0.127366\H,0,-1.156465,-0.7
 45123,1.41486\H,0,-1.349053,-2.038118,0.218981\H,0,-3.015346,0.562157,

 Normal termination of Gaussian 16 at Tue Apr  8 23:38:11 2025.
