 Gaussian 16, Revision C.01,

 ----------------------------------------------------------------------
 #t hf aug-cc-pvdz symm=none int=(grid=ultrafine) guess=(read,tcheck) s
 table=opt
 ----------------------------------------------------------------------
 -----
 title
 -----
 Symbolic Z-matrix:
 Charge =  0 Multiplicity = 2

 SCF Done:  E(UHF) =  -336.171477855     A.U. after   13 cycles
 Normal termination of Gaussian 16 at Tue Apr  8 22:30:19 2025.
 Gaussian 16:  ES64L-G16RevC.01  3-Jul-2019

 ----------------------------------------------------------------------
 #t hf aug-cc-pvdz iop(5/13=1,5/36=2,99/5=2) pseudo=read geom=check gue
 ss=(read,tcheck) scf=(maxcycle=1)
 ----------------------------------------------------------------------
 -----
 title
 -----
 Structure from the checkpoint file:  "BDE49_expt_1000_mol3.chk"
 Charge =  0 Multiplicity = 2

                         Standard orientation:
 ---------------------------------------------------------------------
 Center     Atomic      Atomic             Coordinates (Angstroms)
 Number     Number       Type             X           Y           Z
 ---------------------------------------------------------------------
      1          6           0        0.000045   -0.000001    0.328306
      2          9           0       -0.621265    1.098162   -0.072961
      3          9           0       -0.640525   -1.087043   -0.072961
      4          9           0        1.261759   -0.011118   -0.072948
 ---------------------------------------------------------------------

 SCF Done:  E(UHF) =  -337.330815771     A.U. after    2 cycles

 The electronic state is 2-A.
 Alpha  occ. eigenvalues --  -29.34392 -29.34391 -29.34325 -11.58499  -1.40634
 Alpha  occ. eigenvalues --   -0.90022  -0.90017  -0.73336  -0.50248  -0.45785
 Alpha  occ. eigenvalues --   -0.45784  -0.38311  -0.38308  -0.29600  -0.29597
 Alpha  occ. eigenvalues --   -0.24221  -0.19753
 Alpha virt. eigenvalues --    0.08297   0.11854   0.11854   0.15367   0.21123
 Alpha virt. eigenvalues --    0.21976   0.21976   0.24858   0.24859   0.29602
 Alpha virt. eigenvalues --    0.33957   0.34244   0.34244   0.39724   0.40537

  Beta  occ. eigenvalues --  -29.33946 -29.33946 -29.33879 -11.55586  -1.34917
  Beta  occ. eigenvalues --   -0.88385  -0.88380  -0.56268  -0.49193  -0.45182
  Beta  occ. eigenvalues --   -0.45181  -0.36524  -0.36521  -0.29154  -0.29151
  Beta  occ. eigenvalues --   -0.24012
  Beta virt. eigenvalues --    0.08579   0.11910   0.11910   0.13303   0.15557
  Beta virt. eigenvalues --    0.22129   0.22130   0.25056   0.25095   0.25096
  Beta virt. eigenvalues --    0.32619   0.33998   0.34552   0.34552   0.40721

 Mulliken charges and spin densities:
               1          2
     1  C   -1.593606   0.742689
     2  F    0.531211   0.085768
     3  F    0.531210   0.085768
     4  F    0.531185   0.085774
 Sum of Mulliken charges =   0.00000   1.00000

 Dipole moment (field-independent basis, Debye):
    X=             -0.0002    Y=              0.0000    Z=             -1.3362  Tot=              1.3362
                          Isotropic Fermi Contact Couplings
        Atom                 a.u.       MegaHertz       Gauss      10(-4) cm-1
     1  C(13)              0.20282     228.00436      81.35763      76.05407
     2  F(19)              0.05241     220.50654      78.68222      73.55306
     3  F(19)              0.05241     220.50791      78.68271      73.55352
     4  F(19)              0.05243     220.58401      78.70986      73.57890
 --------------------------------------------------------
       Center         ----  Spin Dipole Couplings  ----
                      3XX-RR        3YY-RR        3ZZ-RR
 --------------------------------------------------------

 Normal termination of Gaussian 16 at Tue Apr  8 22:30:23 2025.
