 Gaussian 16, Revision C.01,

 ----------------------------------------------------------------------
 #t hf aug-cc-pvdz symm=none int=(grid=ultrafine) guess=(read,tcheck) s
 table=(opt,rrhf)
 ----------------------------------------------------------------------
 -----
 title
 -----
 Symbolic Z-matrix:
 Charge =  0 Multiplicity = 1

 SCF Done:  E(RHF) =  -301.531541852     A.U. after   14 cycles
 Normal termination of Gaussian 16 at Tue Apr  8 23:02:40 2025.
 Gaussian 16:  ES64L-G16RevC.01  3-Jul-2019

 ----------------------------------------------------------------------
 #t hf aug-cc-pvdz iop(5/13=1,5/36=2,99/5=2) pseudo=read geom=check gue
 ss=(read,tcheck) scf=(maxcycle=1)
 ----------------------------------------------------------------------
 -----
 title
 -----
 Structure from the checkpoint file:  "BDE49_expt_254_mol1.chk"
 Charge =  0 Multiplicity = 1

                         Standard orientation:
 ---------------------------------------------------------------------
 Center     Atomic      Atomic             Coordinates (Angstroms)
 Number     Number       Type             X           Y           Z
 ---------------------------------------------------------------------
      1          6           0        0.831612   -0.663766    0.000005
      2          6           0       -0.581668   -0.062275    0.000005
      3          8           0       -1.563787   -0.748766   -0.000011
      4          8           0        1.805712    0.044622   -0.000018
      5          8           0       -0.581548    1.274113    0.000014
      6          1           0        0.348601    1.562708    0.000028
      7          1           0        0.868721   -1.766215    0.000025
 ---------------------------------------------------------------------

 SCF Done:  E(RHF) =  -302.757450582     A.U. after    2 cycles

 The electronic state is 1-A.
 Alpha  occ. eigenvalues --  -21.14723 -21.13122 -21.09147 -11.55773 -11.51578
 Alpha  occ. eigenvalues --   -1.85979  -1.75965  -1.68980  -1.01640  -0.81508
 Alpha  occ. eigenvalues --   -0.74722  -0.61348  -0.60330  -0.54527  -0.49257
 Alpha  occ. eigenvalues --   -0.48215  -0.40307  -0.36277  -0.30703
 Alpha virt. eigenvalues --    0.03598   0.05946   0.08058   0.09736   0.10236
 Alpha virt. eigenvalues --    0.11514   0.11707   0.11738   0.11938   0.15276
 Alpha virt. eigenvalues --    0.18601   0.19408   0.21423   0.23011   0.23862

 Mulliken charges:
               1
     1  C    0.512620
     2  C    5.094694
     3  O   -2.889935
     4  O   -2.548859
     5  O   -2.906175
     6  H    1.098136
     7  H    1.639518
 Sum of Mulliken charges =   0.00000

 Dipole moment (field-independent basis, Debye):
    X=              1.4720    Y=              0.3451    Z=              0.0000  Tot=              1.5119

 Test job not archived.
 1\1\GINC-SE460\SP\RHF\Aug-CC-pVDZ\C2H2O3\OHZDE\08-Apr-2025\0\\#t hf au
 g-cc-pvdz iop(5/13=1,5/36=2,99/5=2) pseudo=read geom=check guess=(read
 ,tcheck) scf=(maxcycle=1)\\title\\0,1\C,0,0.831612,-0.663766,0.000005\
 C,0,-0.581668,-0.062275,0.000005\O,0,-1.563787,-0.748766,-0.000011\O,0
 ,1.805712,0.044622,-0.000018\O,0,-0.581548,1.274113,0.000014\H,0,0.348
 601,1.562708,0.000028\H,0,0.868721,-1.766215,0.000025\\Version=ES64L-G
 16RevC.01\State=1-A\HF=-302.7574506\RMSD=1.362e-01\Dipole=0.5791222,0.
 13579,0.0000164\Quadrupole=-2.4669496,1.4162546,1.050695,-0.2680038,0.

 Normal termination of Gaussian 16 at Tue Apr  8 23:02:42 2025.
