 Gaussian 16, Revision C.01,

 ----------------------------------------------------------------------
 #t hf aug-cc-pvdz symm=none int=(grid=ultrafine) guess=(read,tcheck) s
 table=opt
 ----------------------------------------------------------------------
 -----
 title
 -----
 Symbolic Z-matrix:
 Charge =  0 Multiplicity = 2

 SCF Done:  E(UHF) =  -665.797264832     A.U. after   25 cycles
 Normal termination of Gaussian 16 at Tue Apr  8 23:23:51 2025.
 Gaussian 16:  ES64L-G16RevC.01  3-Jul-2019

 ----------------------------------------------------------------------
 #t hf aug-cc-pvdz iop(5/13=1,5/36=2,99/5=2) pseudo=read geom=check gue
 ss=(read,tcheck) scf=(maxcycle=1)
 ----------------------------------------------------------------------
 -----
 title
 -----
 Structure from the checkpoint file:  "BDE49_nonexpt_1192_mol2.chk"
 Charge =  0 Multiplicity = 2

                         Standard orientation:
 ---------------------------------------------------------------------
 Center     Atomic      Atomic             Coordinates (Angstroms)
 Number     Number       Type             X           Y           Z
 ---------------------------------------------------------------------
      1         16           0        2.346902   -0.486764    0.184069
      2          6           0        0.808987    0.346857   -0.071831
      3          8           0        0.890375    1.426831   -0.619946
      4          6           0       -0.475302   -0.308761    0.340846
      5          6           0       -1.631840    0.615499    0.826004
      6          6           0       -1.413412   -0.778557   -0.824247
      7          1           0       -0.272269   -1.124020    1.039578
      8          6           0       -2.620615   -0.220779   -0.027095
      9          1           0       -1.501810    1.624087    0.431547
     10          1           0       -3.379494    0.324019   -0.590044
     11          1           0       -3.111886   -0.998251    0.562115
     12          1           0       -1.397414   -1.842196   -1.063426
     13          1           0       -1.221623   -0.201342   -1.730336
     14          1           0       -1.795852    0.665720    1.902972
 ---------------------------------------------------------------------

 SCF Done:  E(UHF) =  -667.241831939     A.U. after    2 cycles

 The electronic state is 2-A.
 Alpha  occ. eigenvalues --  -75.73122 -21.06407 -13.17142 -13.09346 -13.04533
 Alpha  occ. eigenvalues --  -11.52322 -11.50173 -11.41222 -11.40905 -11.36241
 Alpha  occ. eigenvalues --   -8.06970  -1.72710  -1.34287  -1.16917  -1.01008
 Alpha  occ. eigenvalues --   -0.97068  -0.83748  -0.74770  -0.68549  -0.63630
 Alpha  occ. eigenvalues --   -0.58764  -0.56054  -0.54496  -0.49864  -0.46509
 Alpha  occ. eigenvalues --   -0.45105  -0.43865  -0.41048  -0.31467  -0.26625
 Alpha  occ. eigenvalues --   -0.26359
 Alpha virt. eigenvalues --    0.03571   0.05214   0.05252   0.05415   0.05636
 Alpha virt. eigenvalues --    0.06941   0.07195   0.07776   0.09969   0.10104
 Alpha virt. eigenvalues --    0.12859   0.13469   0.13541   0.13975   0.14117

  Beta  occ. eigenvalues --  -75.72104 -21.06254 -13.16585 -13.03980 -13.03138
  Beta  occ. eigenvalues --  -11.52367 -11.50215 -11.41214 -11.40899 -11.36237
  Beta  occ. eigenvalues --   -8.05829  -1.72377  -1.34167  -1.10691  -0.99083
  Beta  occ. eigenvalues --   -0.97045  -0.83096  -0.74281  -0.68335  -0.62683
  Beta  occ. eigenvalues --   -0.58127  -0.56054  -0.54478  -0.49326  -0.46125
  Beta  occ. eigenvalues --   -0.45001  -0.43115  -0.41002  -0.26716  -0.25102
  Beta virt. eigenvalues --    0.02952   0.03880   0.05234   0.05353   0.05586
  Beta virt. eigenvalues --    0.06215   0.06985   0.07483   0.08011   0.10091
  Beta virt. eigenvalues --    0.10145   0.12965   0.13556   0.13803   0.14161

 Mulliken charges and spin densities:
               1          2
     1  S    0.650351   1.099419
     2  C    1.514274  -0.056255
     3  O   -3.135027  -0.017801
     4  C   -0.556951  -0.045790
     5  C   -2.348489   0.005144
     6  C   -2.614385   0.022739
     7  H    1.488464  -0.002434
     8  C   -3.025791  -0.000868
     9  H    1.488410  -0.006283
    10  H    1.250720   0.000028
    11  H    1.331907  -0.000932
    12  H    1.243851   0.002623
    13  H    1.469296   0.001056
    14  H    1.243368  -0.000645
 Sum of Mulliken charges =   0.00000   1.00000

 Dipole moment (field-independent basis, Debye):
    X=             -0.4526    Y=             -1.2004    Z=              0.5043  Tot=              1.3785
                          Isotropic Fermi Contact Couplings
        Atom                 a.u.       MegaHertz       Gauss      10(-4) cm-1
     1  S(33)              0.31685     108.82978      38.83317      36.30171
     2  C(13)             -0.01039     -11.68415      -4.16920      -3.89741
     3  O(17)              0.02441     -14.79689      -5.27990      -4.93571
     4  C(13)              0.00105       1.18509       0.42287       0.39530
     5  C(13)              0.00206       2.31686       0.82671       0.77282
     6  C(13)             -0.00008      -0.08805      -0.03142      -0.02937
     7  H(1)               0.00113       5.06893       1.80872       1.69081
     8  C(13)              0.00040       0.45027       0.16067       0.15020

 Normal termination of Gaussian 16 at Tue Apr  8 23:23:56 2025.
