 Gaussian 16, Revision C.01,

 ----------------------------------------------------------------------
 #t hf aug-cc-pvdz symm=none int=(grid=ultrafine) guess=(read,tcheck) s
 table=opt
 ----------------------------------------------------------------------
 -----
 title
 -----
 Symbolic Z-matrix:
 Charge =  0 Multiplicity = 2

 SCF Done:  E(UHF) =  -309.642095228     A.U. after   24 cycles

 1\1\GINC-SE338\Stability\UHF\Aug-CC-pVDZ\C6H13O1\OHZDE\08-Apr-2025\0\\
 #t hf aug-cc-pvdz symm=none int=(grid=ultrafine) guess=(read,tcheck) s
 table=opt\\title\\0,2\O,0,-1.049898,0.295664,1.404235\C,0,-0.948355,-0
 .049179,0.074631\C,0,-2.009995,-1.110905,-0.279585\H,0,-1.817102,-2.03
 193,0.27589\H,0,-1.990152,-1.344402,-1.347726\H,0,-3.004911,-0.750526,
 -0.011813\C,0,-1.288572,1.284065,-0.666323\H,0,-2.310412,1.58749,-0.43
 7388\H,0,-1.194396,1.109999,-1.7413\H,0,-0.608808,2.082271,-0.370855\C
 ,0,0.477253,-0.549523,-0.277759\C,0,1.617166,0.404714,0.089751\H,0,0.5

 Normal termination of Gaussian 16 at Tue Apr  8 22:58:13 2025.
 Gaussian 16:  ES64L-G16RevC.01  3-Jul-2019

 ----------------------------------------------------------------------
 #t hf aug-cc-pvdz iop(5/13=1,5/36=2,99/5=2) pseudo=read geom=check gue
 ss=(read,tcheck) scf=(maxcycle=1)
 ----------------------------------------------------------------------
 -----
 title
 -----
 Structure from the checkpoint file:  "BDE49_expt_1860_mol2.chk"
 Charge =  0 Multiplicity = 2

                         Standard orientation:
 ---------------------------------------------------------------------
 Center     Atomic      Atomic             Coordinates (Angstroms)
 Number     Number       Type             X           Y           Z
 ---------------------------------------------------------------------
      1          8           0       -1.049898    0.295664    1.404235
      2          6           0       -0.948355   -0.049179    0.074631
      3          6           0       -2.009995   -1.110905   -0.279585
      4          1           0       -1.817102   -2.031930    0.275890
      5          1           0       -1.990152   -1.344402   -1.347726
      6          1           0       -3.004911   -0.750526   -0.011813
      7          6           0       -1.288572    1.284065   -0.666323
      8          1           0       -2.310412    1.587490   -0.437388
      9          1           0       -1.194396    1.109999   -1.741300
     10          1           0       -0.608808    2.082271   -0.370855
     11          6           0        0.477253   -0.549523   -0.277759
     12          6           0        1.617166    0.404714    0.089751
     13          1           0        0.512476   -0.788837   -1.347697
     14          1           0        0.622585   -1.497727    0.253918
     15          6           0        2.998629   -0.237955   -0.069021
     16          1           0        1.475197    0.731878    1.123756
     17          1           0        1.568615    1.304765   -0.532566
     18          1           0        3.102345   -1.115862    0.576094
     19          1           0        3.794477    0.463527    0.195403
     20          1           0        3.172515   -0.563259   -1.099754
 ---------------------------------------------------------------------

 SCF Done:  E(UHF) =  -311.128604997     A.U. after    2 cycles

 The electronic state is 2-A.
 Alpha  occ. eigenvalues --  -21.09688 -11.45223 -11.42263 -11.39833 -11.39058
 Alpha  occ. eigenvalues --  -11.36924 -11.34623  -1.72483  -1.23625  -1.13291
 Alpha  occ. eigenvalues --   -1.01954  -0.99586  -0.85679  -0.76674  -0.64840
 Alpha  occ. eigenvalues --   -0.63707  -0.61296  -0.59952  -0.56583  -0.54921
 Alpha  occ. eigenvalues --   -0.53783  -0.51289  -0.49632  -0.46946  -0.45556
 Alpha  occ. eigenvalues --   -0.43145  -0.42560  -0.36862  -0.32197
 Alpha virt. eigenvalues --    0.04027   0.04967   0.05069   0.05327   0.05795
 Alpha virt. eigenvalues --    0.05875   0.06238   0.06506   0.07730   0.08150
 Alpha virt. eigenvalues --    0.08656   0.09141   0.10710   0.11503   0.13043

  Beta  occ. eigenvalues --  -21.05984 -11.45426 -11.42252 -11.39660 -11.39005
  Beta  occ. eigenvalues --  -11.36856 -11.34598  -1.61359  -1.22393  -1.12250
  Beta  occ. eigenvalues --   -1.01225  -0.99503  -0.85587  -0.75715  -0.64470
  Beta  occ. eigenvalues --   -0.63391  -0.59808  -0.58935  -0.55952  -0.54638
  Beta  occ. eigenvalues --   -0.53467  -0.51210  -0.48126  -0.46376  -0.43628
  Beta  occ. eigenvalues --   -0.42505  -0.40949  -0.29445
  Beta virt. eigenvalues --    0.04042   0.04909   0.05074   0.05253   0.05792
  Beta virt. eigenvalues --    0.05861   0.06133   0.06358   0.07732   0.08153
  Beta virt. eigenvalues --    0.08607   0.09074   0.10705   0.11200   0.11969

 Mulliken charges and spin densities:
               1          2
     1  O   -2.995795   1.259664
     2  C    5.865702  -0.676226
     3  C   -5.119340   0.064735
     4  H    1.198602   0.016437
     5  H    1.184969  -0.002966
     6  H    1.200710  -0.002499
     7  C   -4.207698   0.247341
     8  H    1.245485   0.021999
     9  H    1.241656   0.003123
    10  H    1.373459   0.028892
    11  C   -3.772410   0.048060
    12  C   -2.584109  -0.007474
    13  H    1.435355  -0.002649
    14  H    1.552658   0.009948
    15  C   -4.320412  -0.000647
    16  H    1.524144  -0.006104
    17  H    1.559704  -0.001723
    18  H    1.290024  -0.000019
    19  H    1.056599   0.000113
    20  H    1.270699  -0.000005
 Sum of Mulliken charges =   0.00000   1.00000

 Dipole moment (field-independent basis, Debye):
    X=              0.0607    Y=              0.0449    Z=             -0.8115  Tot=              0.8150
                          Isotropic Fermi Contact Couplings
        Atom                 a.u.       MegaHertz       Gauss      10(-4) cm-1
     1  O(17)              0.19687    -119.34320     -42.58462     -39.80861
     2  C(13)             -0.03160     -35.52836     -12.67740     -11.85098
     3  C(13)              0.01241      13.95623       4.97993       4.65530
     4  H(1)              -0.00080      -3.59419      -1.28250      -1.19889
     5  H(1)              -0.00001      -0.04381      -0.01563      -0.01461
     6  H(1)              -0.00048      -2.14755      -0.76630      -0.71634
     7  C(13)              0.05115      57.50068      20.51767      19.18016
     8  H(1)              -0.00109      -4.87753      -1.74042      -1.62697

 Normal termination of Gaussian 16 at Tue Apr  8 22:58:21 2025.
