 Gaussian 16, Revision C.01,

 ----------------------------------------------------------------------
 #t hf aug-cc-pvdz symm=none int=(grid=ultrafine) guess=(read,tcheck) s
 table=(opt,rrhf)
 ----------------------------------------------------------------------
 -----
 title
 -----
 Symbolic Z-matrix:
 Charge =  0 Multiplicity = 1

 SCF Done:  E(RHF) =  -2417.26579090     A.U. after   10 cycles
 Normal termination of Gaussian 16 at Wed Apr  9 00:09:35 2025.
 Gaussian 16:  ES64L-G16RevC.01  3-Jul-2019

 ----------------------------------------------------------------------
 #t hf aug-cc-pvdz iop(5/13=1,5/36=2,99/5=2) pseudo=read geom=check gue
 ss=(read,tcheck) scf=(maxcycle=1)
 ----------------------------------------------------------------------
 -----
 title
 -----
 Structure from the checkpoint file:  "BDE49_nonexpt_2315_mol1.chk"
 Charge =  0 Multiplicity = 1

                         Standard orientation:
 ---------------------------------------------------------------------
 Center     Atomic      Atomic             Coordinates (Angstroms)
 Number     Number       Type             X           Y           Z
 ---------------------------------------------------------------------
      1         14           0        0.369134    1.118944    0.000000
      2         14           0       -0.369134   -1.118944    0.000000
      3         17           0        0.369134   -2.055750    1.691939
      4         17           0       -0.369136    2.055749   -1.691939
      5         17           0        0.369136   -2.055749   -1.691939
      6          1           0       -1.833952   -1.259565   -0.000001
      7         17           0       -0.369134    2.055750    1.691939
      8          1           0        1.833952    1.259565   -0.000001
 ---------------------------------------------------------------------

 SCF Done:  E(RHF) =  -2418.53374232     A.U. after    2 cycles

 The electronic state is 1-A.
 Alpha  occ. eigenvalues --  -99.90957 -99.90956 -99.90953 -99.90951 -76.32238
 Alpha  occ. eigenvalues --  -76.32203 -10.48401 -10.48395 -10.48364 -10.48354
 Alpha  occ. eigenvalues --   -9.68303  -9.68254  -9.68218  -9.68209  -9.67715
 Alpha  occ. eigenvalues --   -9.67679  -9.67644  -9.67625  -9.67579  -9.67561
 Alpha  occ. eigenvalues --   -9.67534  -9.67484  -5.65737  -5.65731  -2.28014
 Alpha  occ. eigenvalues --   -2.27952  -2.27274  -2.27161  -2.26474  -2.25565
 Alpha  occ. eigenvalues --   -1.33189  -1.32327  -1.30180  -1.29914  -0.84361
 Alpha  occ. eigenvalues --   -0.76879  -0.61525  -0.60725  -0.60147  -0.59840
 Alpha  occ. eigenvalues --   -0.59146  -0.56865  -0.55559  -0.55158  -0.53557
 Alpha  occ. eigenvalues --   -0.52964  -0.52617  -0.51895  -0.40418
 Alpha virt. eigenvalues --    0.03082   0.03976   0.04218   0.04543   0.07260
 Alpha virt. eigenvalues --    0.07307   0.07804   0.07972   0.08111   0.08249
 Alpha virt. eigenvalues --    0.09158   0.10572   0.11598   0.11606   0.12941

 Mulliken charges:
               1
     1  Si   3.607294
     2  Si   3.607294
     3  Cl  -0.888490
     4  Cl  -0.888489
     5  Cl  -0.888489
     6  H   -1.830316
     7  Cl  -0.888490
     8  H   -1.830316
 Sum of Mulliken charges =  -0.00000

 Dipole moment (field-independent basis, Debye):
    X=             -0.0000    Y=             -0.0000    Z=              0.0000  Tot=              0.0000

 Test job not archived.
 1\1\GINC-SE094\SP\RHF\Aug-CC-pVDZ\Cl4H2Si2\OHZDE\09-Apr-2025\0\\#t hf
 aug-cc-pvdz iop(5/13=1,5/36=2,99/5=2) pseudo=read geom=check guess=(re
 ad,tcheck) scf=(maxcycle=1)\\title\\0,1\Si,0,0.369134,1.118944,0.\Si,0
 ,-0.369134,-1.118944,0.\Cl,0,0.369134,-2.05575,1.691939\Cl,0,-0.369136
 ,2.055749,-1.691939\Cl,0,0.369136,-2.055749,-1.691939\H,0,-1.833952,-1
 .259565,-0.000001\Cl,0,-0.369134,2.05575,1.691939\H,0,1.833952,1.25956
 5,-0.000001\\Version=ES64L-G16RevC.01\State=1-A\HF=-2418.5337423\RMSD=
 5.421e-02\Dipole=0.,0.,0.0000014\Quadrupole=1.4310497,-2.0109224,0.579

 Normal termination of Gaussian 16 at Wed Apr  9 00:09:38 2025.
