 Gaussian 16, Revision C.01,

 ----------------------------------------------------------------------
 #t hf aug-cc-pvdz symm=none int=(grid=ultrafine) guess=(read,tcheck) s
 table=(opt,rrhf)
 ----------------------------------------------------------------------
 -----
 title
 -----
 Symbolic Z-matrix:
 Charge =  0 Multiplicity = 1

 SCF Done:  E(RHF) =  -1107.06578114     A.U. after   16 cycles
 Normal termination of Gaussian 16 at Wed Apr  9 00:17:00 2025.
 Gaussian 16:  ES64L-G16RevC.01  3-Jul-2019

 ----------------------------------------------------------------------
 #t hf aug-cc-pvdz iop(5/13=1,5/36=2,99/5=2) pseudo=read geom=check gue
 ss=(read,tcheck) scf=(maxcycle=1)
 ----------------------------------------------------------------------
 -----
 title
 -----
 Structure from the checkpoint file:  "BDE49_nonexpt_2480_mol1.chk"
 Charge =  0 Multiplicity = 1

                         Standard orientation:
 ---------------------------------------------------------------------
 Center     Atomic      Atomic             Coordinates (Angstroms)
 Number     Number       Type             X           Y           Z
 ---------------------------------------------------------------------
      1         16           0       -2.133042    0.214891    0.048858
      2          6           0       -1.935389    0.296927    1.840950
      3          8           0       -3.420091   -0.421496   -0.216307
      4          8           0       -1.857620    1.555309   -0.470544
      5          1           0       -2.095779   -0.694355    2.264286
      6          1           0       -2.703911    0.989189    2.189931
      7          1           0       -0.942362    0.680924    2.072796
      8          6           0        1.165318   -0.431910   -0.330193
      9          6           0        1.511193    0.892745   -0.652287
     10          6           0        2.115841   -1.235874    0.320629
     11          6           0        2.772192    1.389949   -0.337720
     12          6           0        3.378474   -0.736493    0.631911
     13          6           0        3.706991    0.576263    0.301778
     14          1           0        0.786076    1.538758   -1.134683
     15          1           0        3.025537    2.413364   -0.590144
     16          1           0        1.872089   -2.260081    0.584520
     17          1           0        4.102813   -1.370160    1.131130
     18          1           0        4.689285    0.966288    0.543980
     19         14           0       -0.509580   -1.122918   -0.758843
     20          1           0       -0.845507   -1.090695   -2.195290
     21          1           0       -0.691478   -2.470774   -0.180040
 ---------------------------------------------------------------------

 SCF Done:  E(RHF) =  -1109.42716251     A.U. after    2 cycles

 The electronic state is 1-A.
 Alpha  occ. eigenvalues --  -76.26021 -75.85813 -21.02902 -21.02860 -13.47474
 Alpha  occ. eigenvalues --  -13.35887 -13.29932 -11.53270 -11.44954 -11.44579
 Alpha  occ. eigenvalues --  -11.42612 -11.42343 -11.41620 -11.38069  -8.20820
 Alpha  occ. eigenvalues --   -5.59649  -2.24575  -2.23125  -2.21720  -1.80275
 Alpha  occ. eigenvalues --   -1.62851  -1.35568  -1.13943  -1.11050  -1.10889
 Alpha  occ. eigenvalues --   -0.92401  -0.88017  -0.87376  -0.78026  -0.71598
 Alpha  occ. eigenvalues --   -0.65462  -0.63121  -0.62227  -0.60221  -0.58881
 Alpha  occ. eigenvalues --   -0.57636  -0.54842  -0.53121  -0.51576  -0.50107
 Alpha  occ. eigenvalues --   -0.46476  -0.43968  -0.41644  -0.38226  -0.36840
 Alpha  occ. eigenvalues --   -0.36153  -0.34790  -0.33612  -0.29684
 Alpha virt. eigenvalues --    0.02361   0.04390   0.04631   0.04693   0.05312
 Alpha virt. eigenvalues --    0.05355   0.06289   0.06866   0.07446   0.08016
 Alpha virt. eigenvalues --    0.08197   0.08740   0.09367   0.10351   0.10640

 Mulliken charges:
               1
     1  S    4.236459
     2  C   -4.779894
     3  O   -2.356767
     4  O   -2.353514
     5  H    1.354390
     6  H    1.352438
     7  H    1.435574
     8  C    0.036821
     9  C   -2.332027
    10  C   -3.421331
    11  C   -0.677591
    12  C   -0.575088
    13  C   -2.197741
    14  H    2.003512
    15  H    1.533523
    16  H    1.816221
    17  H    1.572388
    18  H    1.543752
    19  Si   5.545054
    20  H   -2.038015
    21  H   -1.698163
 Sum of Mulliken charges =   0.00000

 Dipole moment (field-independent basis, Debye):
    X=              3.4953    Y=             -0.1993    Z=              1.2052  Tot=              3.7026

 Test job not archived.
 1\1\GINC-SE069\SP\RHF\Aug-CC-pVDZ\C7H10O2S1Si1\OHZDE\09-Apr-2025\0\\#t
  hf aug-cc-pvdz iop(5/13=1,5/36=2,99/5=2) pseudo=read geom=check guess
 =(read,tcheck) scf=(maxcycle=1)\\title\\0,1\S,0,-2.133042,0.214891,0.0
 48858\C,0,-1.935389,0.296927,1.84095\O,0,-3.420091,-0.421496,-0.216307
 \O,0,-1.85762,1.555309,-0.470544\H,0,-2.095779,-0.694355,2.264286\H,0,
 -2.703911,0.989189,2.189931\H,0,-0.942362,0.680924,2.072796\C,0,1.1653
 18,-0.43191,-0.330193\C,0,1.511193,0.892745,-0.652287\C,0,2.115841,-1.
 235874,0.320629\C,0,2.772192,1.389949,-0.33772\C,0,3.378474,-0.736493,

 Normal termination of Gaussian 16 at Wed Apr  9 00:17:15 2025.
