 Gaussian 16, Revision C.01,

 ----------------------------------------------------------------------
 #t hf aug-cc-pvdz symm=none int=(grid=ultrafine) guess=(read,tcheck) s
 table=(opt,rrhf)
 ----------------------------------------------------------------------
 -----
 title
 -----
 Symbolic Z-matrix:
 Charge =  0 Multiplicity = 1

 SCF Done:  E(RHF) =  -651.999414267     A.U. after   15 cycles
 Normal termination of Gaussian 16 at Tue Apr  8 23:17:55 2025.
 Gaussian 16:  ES64L-G16RevC.01  3-Jul-2019

 ----------------------------------------------------------------------
 #t hf aug-cc-pvdz iop(5/13=1,5/36=2,99/5=2) pseudo=read geom=check gue
 ss=(read,tcheck) scf=(maxcycle=1)
 ----------------------------------------------------------------------
 -----
 title
 -----
 Structure from the checkpoint file:  "BDE49_nonexpt_1034_mol1.chk"
 Charge =  0 Multiplicity = 1

                         Standard orientation:
 ---------------------------------------------------------------------
 Center     Atomic      Atomic             Coordinates (Angstroms)
 Number     Number       Type             X           Y           Z
 ---------------------------------------------------------------------
      1         17           0       -1.838080   -0.051310   -0.066370
      2          8           0       -0.265889   -0.640574    0.390119
      3          6           0        0.803635    0.020194   -0.329894
      4          6           0        0.979684    1.465020    0.115765
      5          1           0        0.077242    2.048114   -0.076229
      6          1           0        1.804575    1.930236   -0.430734
      7          1           0        1.200827    1.508510    1.185241
      8          6           0        2.011899   -0.859604   -0.023242
      9          1           0        0.574859   -0.024434   -1.400452
     10          1           0        2.218172   -0.867809    1.049633
     11          1           0        2.890137   -0.467049   -0.541937
     12          1           0        1.837343   -1.884375   -0.353944
 ---------------------------------------------------------------------

 SCF Done:  E(RHF) =  -653.168445860     A.U. after    2 cycles

 The electronic state is 1-A.
 Alpha  occ. eigenvalues --  -99.92606 -21.10297 -11.45682 -11.39790 -11.36685
 Alpha  occ. eigenvalues --  -10.49368  -9.69294  -9.68494  -9.68359  -1.77168
 Alpha  occ. eigenvalues --   -1.26246  -1.15282  -1.02147  -0.84296  -0.67729
 Alpha  occ. eigenvalues --   -0.63035  -0.62009  -0.57110  -0.55016  -0.53828
 Alpha  occ. eigenvalues --   -0.53117  -0.49283  -0.47004  -0.41737  -0.33785
 Alpha virt. eigenvalues --    0.03414   0.05002   0.05801   0.05927   0.06170
 Alpha virt. eigenvalues --    0.06534   0.07021   0.07309   0.09804   0.12145
 Alpha virt. eigenvalues --    0.13616   0.14504   0.14868   0.15663   0.16698

 Mulliken charges:
               1
     1  Cl   0.415808
     2  O   -2.269651
     3  C   -0.087920
     4  C   -3.384161
     5  H    1.225352
     6  H    1.258677
     7  H    1.214299
     8  C   -3.787489
     9  H    1.675240
    10  H    1.247427
    11  H    1.219055
    12  H    1.273363
 Sum of Mulliken charges =  -0.00000

 Dipole moment (field-independent basis, Debye):
    X=              3.1657    Y=             -0.2509    Z=             -0.0659  Tot=              3.1763

 Test job not archived.
 1\1\GINC-SE252\SP\RHF\Aug-CC-pVDZ\C3H7Cl1O1\OHZDE\08-Apr-2025\0\\#t hf
  aug-cc-pvdz iop(5/13=1,5/36=2,99/5=2) pseudo=read geom=check guess=(r
 ead,tcheck) scf=(maxcycle=1)\\title\\0,1\Cl,0,-1.83808,-0.05131,-0.066
 37\O,0,-0.265889,-0.640574,0.390119\C,0,0.803635,0.020194,-0.329894\C,
 0,0.979684,1.46502,0.115765\H,0,0.077242,2.048114,-0.076229\H,0,1.8045
 75,1.930236,-0.430734\H,0,1.200827,1.50851,1.185241\C,0,2.011899,-0.85
 9604,-0.023242\H,0,0.574859,-0.024434,-1.400452\H,0,2.218172,-0.867809
 ,1.049633\H,0,2.890137,-0.467049,-0.541937\H,0,1.837343,-1.884375,-0.3

 Normal termination of Gaussian 16 at Tue Apr  8 23:17:58 2025.
