 Gaussian 16, Revision C.01,

 ----------------------------------------------------------------------
 #t hf aug-cc-pvdz symm=none int=(grid=ultrafine) guess=(read,tcheck) s
 table=opt
 ----------------------------------------------------------------------
 -----
 title
 -----
 Symbolic Z-matrix:
 Charge =  0 Multiplicity = 2

 SCF Done:  E(UHF) =  -1376.39633996     A.U. after   20 cycles
 Normal termination of Gaussian 16 at Tue Apr  8 23:47:25 2025.
 Gaussian 16:  ES64L-G16RevC.01  3-Jul-2019

 ----------------------------------------------------------------------
 #t hf aug-cc-pvdz iop(5/13=1,5/36=2,99/5=2) pseudo=read geom=check gue
 ss=(read,tcheck) scf=(maxcycle=1)
 ----------------------------------------------------------------------
 -----
 title
 -----
 Structure from the checkpoint file:  "BDE49_nonexpt_1783_mol2.chk"
 Charge =  0 Multiplicity = 2

                         Standard orientation:
 ---------------------------------------------------------------------
 Center     Atomic      Atomic             Coordinates (Angstroms)
 Number     Number       Type             X           Y           Z
 ---------------------------------------------------------------------
      1         14           0        0.315511   -0.013452    0.608142
      2          6           0       -1.533904   -0.326890    0.026727
      3         17           0        0.945643    1.853506   -0.131164
      4         17           0        1.488392   -1.493600   -0.239753
      5          7           0       -2.285620    0.777397   -0.207399
      6          1           0       -1.863279    1.687967   -0.294756
      7          1           0       -3.243619    0.653639   -0.506742
      8          8           0       -1.935762   -1.469014   -0.014435
 ---------------------------------------------------------------------

 SCF Done:  E(UHF) =  -1377.72655913     A.U. after    2 cycles

 The electronic state is 2-A.
 Alpha  occ. eigenvalues --  -99.91338 -99.90700 -76.33384 -21.05767 -15.80360
 Alpha  occ. eigenvalues --  -11.49615 -10.48675 -10.48090  -9.68600  -9.68023
 Alpha  occ. eigenvalues --   -9.67967  -9.67905  -9.67307  -9.67253  -5.66732
 Alpha  occ. eigenvalues --   -2.28880  -2.28703  -2.26537  -1.72567  -1.36788
 Alpha  occ. eigenvalues --   -1.32582  -1.30197  -0.89111  -0.78263  -0.72614
 Alpha  occ. eigenvalues --   -0.62797  -0.60266  -0.58630  -0.56891  -0.55800
 Alpha  occ. eigenvalues --   -0.54835  -0.53086  -0.50159  -0.37746  -0.34676
 Alpha  occ. eigenvalues --   -0.27838
 Alpha virt. eigenvalues --    0.03356   0.04977   0.05333   0.05582   0.06867
 Alpha virt. eigenvalues --    0.07769   0.08791   0.11527   0.11667   0.12196
 Alpha virt. eigenvalues --    0.12682   0.13998   0.14787   0.15084   0.15344

  Beta  occ. eigenvalues --  -99.91235 -99.90590 -76.32803 -21.05626 -15.80333
  Beta  occ. eigenvalues --  -11.49327 -10.48562 -10.47969  -9.68382  -9.67899
  Beta  occ. eigenvalues --   -9.67787  -9.67653  -9.67204  -9.67012  -5.65768
  Beta  occ. eigenvalues --   -2.28286  -2.28057  -2.23222  -1.72228  -1.36545
  Beta  occ. eigenvalues --   -1.31682  -1.29343  -0.87097  -0.76679  -0.71452
  Beta  occ. eigenvalues --   -0.61852  -0.59163  -0.57171  -0.56607  -0.55118
  Beta  occ. eigenvalues --   -0.54025  -0.52913  -0.49374  -0.34797  -0.30445
  Beta virt. eigenvalues --   -0.00332   0.03560   0.05555   0.05619   0.06071
  Beta virt. eigenvalues --    0.07230   0.08219   0.09500   0.12172   0.12589
  Beta virt. eigenvalues --    0.12907   0.13374   0.14196   0.15294   0.15644

 Mulliken charges and spin densities:
               1          2
     1  Si   2.415419   0.794342
     2  C    3.029408   0.021373
     3  Cl  -0.842553   0.055033
     4  Cl  -0.780947   0.053354
     5  N   -2.751325   0.013090
     6  H    0.752910   0.011929
     7  H    0.731995  -0.004215
     8  O   -2.554907   0.055095
 Sum of Mulliken charges =  -0.00000   1.00000

 Dipole moment (field-independent basis, Debye):
    X=             -2.1452    Y=              1.2989    Z=              0.6453  Tot=              2.5895
                          Isotropic Fermi Contact Couplings
        Atom                 a.u.       MegaHertz       Gauss      10(-4) cm-1
     1  Si(29)             0.74139    -658.88992    -235.10831    -219.78202
     2  C(13)              0.04613      51.85856      18.50443      17.29815
     3  Cl(35)             0.06315      27.68945       9.88028       9.23621
     4  Cl(35)             0.07217      31.64459      11.29158      10.55550
     5  N(14)              0.01170       3.78078       1.34908       1.26113
     6  H(1)              -0.00016      -0.72440      -0.25848      -0.24163
     7  H(1)               0.00138       6.16458       2.19967       2.05628
     8  O(17)              0.00793      -4.80774      -1.71552      -1.60369

 Normal termination of Gaussian 16 at Tue Apr  8 23:47:28 2025.
