 Gaussian 16, Revision C.01,

 ----------------------------------------------------------------------
 #t hf aug-cc-pvdz symm=none int=(grid=ultrafine) guess=(read,tcheck) s
 table=opt
 ----------------------------------------------------------------------
 -----
 title
 -----
 Symbolic Z-matrix:
 Charge =  0 Multiplicity = 2

 SCF Done:  E(UHF) =  -778.598178230     A.U. after   15 cycles

 1\1\GINC-SE424\Stability\UHF\Aug-CC-pVDZ\F2H3Si2\OHZDE\08-Apr-2025\0\\
 #t hf aug-cc-pvdz symm=none int=(grid=ultrafine) guess=(read,tcheck) s
 table=opt\\title\\0,2\Si,0,-1.786527,-0.069672,-0.034727\Si,0,0.514211
 ,0.02575,0.364496\F,0,1.180583,-1.298623,-0.248144\F,0,1.223336,1.2654
 76,-0.368315\H,0,0.879953,0.100599,1.789687\H,0,-2.160419,-0.223066,-1
 .460376\H,0,-2.54239,1.03569,0.602066\\Version=ES64L-G16RevC.01\HF=-77
 8.5981782\S2=0.758708\S2-1=0.\S2A=0.750029\RMSD=3.301e-09\Dipole=-0.70
 46088,0.047346,0.4280409\Quadrupole=0.1002772,-1.561675,1.4613978,-0.0

 Normal termination of Gaussian 16 at Tue Apr  8 23:57:22 2025.
 Gaussian 16:  ES64L-G16RevC.01  3-Jul-2019

 ----------------------------------------------------------------------
 #t hf aug-cc-pvdz iop(5/13=1,5/36=2,99/5=2) pseudo=read geom=check gue
 ss=(read,tcheck) scf=(maxcycle=1)
 ----------------------------------------------------------------------
 -----
 title
 -----
 Structure from the checkpoint file:  "BDE49_nonexpt_2019_mol2.chk"
 Charge =  0 Multiplicity = 2

                         Standard orientation:
 ---------------------------------------------------------------------
 Center     Atomic      Atomic             Coordinates (Angstroms)
 Number     Number       Type             X           Y           Z
 ---------------------------------------------------------------------
      1         14           0        1.786527    0.069672   -0.034727
      2         14           0       -0.514211   -0.025750    0.364496
      3          9           0       -1.180583    1.298623   -0.248144
      4          9           0       -1.223336   -1.265476   -0.368315
      5          1           0       -0.879953   -0.100599    1.789687
      6          1           0        2.160419    0.223066   -1.460376
      7          1           0        2.542390   -1.035690    0.602066
 ---------------------------------------------------------------------

 SCF Done:  E(UHF) =  -779.562672361     A.U. after    2 cycles

 The electronic state is 2-A.
 Alpha  occ. eigenvalues --  -76.29519 -76.24662 -29.28032 -29.27996  -5.64736
 Alpha  occ. eigenvalues --   -5.58100  -2.29440  -2.27059  -2.23825  -2.20092
 Alpha  occ. eigenvalues --   -2.19470  -2.18368  -0.95341  -0.77228  -0.69675
 Alpha  occ. eigenvalues --   -0.58092  -0.49383  -0.47568  -0.41071  -0.36550
 Alpha  occ. eigenvalues --   -0.34652  -0.34152  -0.32529  -0.28674  -0.24513
 Alpha virt. eigenvalues --    0.04109   0.05289   0.06829   0.07555   0.07783
 Alpha virt. eigenvalues --    0.08192   0.08747   0.09161   0.09664   0.12230
 Alpha virt. eigenvalues --    0.13065   0.15646   0.17569   0.17848   0.18284

  Beta  occ. eigenvalues --  -76.29512 -76.24114 -29.28045 -29.27904  -5.64720
  Beta  occ. eigenvalues --   -5.57259  -2.29408  -2.27081  -2.23753  -2.19408
  Beta  occ. eigenvalues --   -2.18718  -2.14778  -0.94877  -0.72520  -0.69531
  Beta  occ. eigenvalues --   -0.58126  -0.49143  -0.47125  -0.41012  -0.35248
  Beta  occ. eigenvalues --   -0.34426  -0.34143  -0.29819  -0.28521
  Beta virt. eigenvalues --    0.02590   0.04716   0.05412   0.07013   0.07747
  Beta virt. eigenvalues --    0.08363   0.08852   0.09422   0.09926   0.09956
  Beta virt. eigenvalues --    0.12739   0.14833   0.17800   0.18557   0.19010

 Mulliken charges and spin densities:
               1          2
     1  Si   2.679096   1.209171
     2  Si   3.683123  -0.085560
     3  F   -0.808293  -0.000447
     4  F   -0.892486  -0.022659
     5  H   -1.926173  -0.007085
     6  H   -1.355468  -0.043747
     7  H   -1.379799  -0.049673
 Sum of Mulliken charges =  -0.00000   1.00000

 Dipole moment (field-independent basis, Debye):
    X=             -1.9991    Y=              0.2986    Z=             -1.9270  Tot=              2.7926
                          Isotropic Fermi Contact Couplings
        Atom                 a.u.       MegaHertz       Gauss      10(-4) cm-1
     1  Si(29)             0.33516    -297.86419    -106.28535     -99.35680
     2  Si(29)             0.01119      -9.94324      -3.54799      -3.31671
     3  F(19)             -0.00319     -13.40571      -4.78349      -4.47166
     4  F(19)              0.01641      69.04280      24.63619      23.03020
     5  H(1)              -0.00185      -8.27273      -2.95192      -2.75949
     6  H(1)              -0.00365     -16.31343      -5.82104      -5.44158
     7  H(1)              -0.00378     -16.87511      -6.02146      -5.62893
 --------------------------------------------------------

 Normal termination of Gaussian 16 at Tue Apr  8 23:57:24 2025.
