 Gaussian 16, Revision C.01,

 ----------------------------------------------------------------------
 #t hf aug-cc-pvdz symm=none int=(grid=ultrafine) guess=(read,tcheck) s
 table=opt
 ----------------------------------------------------------------------
 -----
 title
 -----
 Symbolic Z-matrix:
 Charge =  0 Multiplicity = 2

 SCF Done:  E(UHF) =  -445.507573563     A.U. after   18 cycles
 Normal termination of Gaussian 16 at Wed Apr  9 00:34:34 2025.
 Gaussian 16:  ES64L-G16RevC.01  3-Jul-2019

 ----------------------------------------------------------------------
 #t hf aug-cc-pvdz iop(5/13=1,5/36=2,99/5=2) pseudo=read geom=check gue
 ss=(read,tcheck) scf=(maxcycle=1)
 ----------------------------------------------------------------------
 -----
 title
 -----
 Structure from the checkpoint file:  "BDE49_nonexpt_426_mol2.chk"
 Charge =  0 Multiplicity = 2

                         Standard orientation:
 ---------------------------------------------------------------------
 Center     Atomic      Atomic             Coordinates (Angstroms)
 Number     Number       Type             X           Y           Z
 ---------------------------------------------------------------------
      1          9           0        2.902132   -0.214969    0.350978
      2          5           0        2.185319    0.779682   -0.125771
      3          8           0        0.843467    0.789508   -0.286419
      4          6           0       -0.011757   -0.324981   -0.156283
      5          8           0        0.392859   -1.455748   -0.222227
      6          7           0       -1.296450    0.072217    0.011513
      7          6           0       -1.745708    1.455971    0.101256
      8          1           0       -2.178830    1.650725    1.088592
      9          1           0       -2.514867    1.644963   -0.654639
     10          1           0       -0.915098    2.133443   -0.062628
     11          6           0       -2.324640   -0.952799    0.146140
     12          1           0       -3.083248   -0.830325   -0.633543
     13          1           0       -2.813313   -0.875391    1.123026
     14          1           0       -1.863256   -1.931848    0.051130
 ---------------------------------------------------------------------

 SCF Done:  E(UHF) =  -447.336112244     A.U. after    2 cycles

 The electronic state is 2-A.
 Alpha  occ. eigenvalues --  -29.25686 -21.07845 -21.04232 -15.76682 -11.54119
 Alpha  occ. eigenvalues --  -11.41639 -11.40610  -7.71750  -1.86932  -1.68947
 Alpha  occ. eigenvalues --   -1.44515  -1.06886  -1.03414  -0.93597  -0.79322
 Alpha  occ. eigenvalues --   -0.71382  -0.67768  -0.64673  -0.58162  -0.56966
 Alpha  occ. eigenvalues --   -0.56877  -0.55364  -0.53535  -0.50118  -0.47642
 Alpha  occ. eigenvalues --   -0.45193  -0.37370  -0.35049  -0.34032  -0.31322
 Alpha  occ. eigenvalues --   -0.20277
 Alpha virt. eigenvalues --    0.02864   0.04355   0.04763   0.05057   0.05407
 Alpha virt. eigenvalues --    0.06327   0.07100   0.07413   0.09211   0.09450
 Alpha virt. eigenvalues --    0.12592   0.13043   0.13646   0.13861   0.14162

  Beta  occ. eigenvalues --  -29.25346 -21.07658 -21.04215 -15.76671 -11.54003
  Beta  occ. eigenvalues --  -11.41640 -11.40606  -7.69530  -1.86425  -1.68703
  Beta  occ. eigenvalues --   -1.44443  -1.06726  -1.02716  -0.90981  -0.78412
  Beta  occ. eigenvalues --   -0.70889  -0.67712  -0.64499  -0.57719  -0.56875
  Beta  occ. eigenvalues --   -0.56305  -0.54781  -0.53372  -0.47822  -0.45689
  Beta  occ. eigenvalues --   -0.42120  -0.35467  -0.34706  -0.31452  -0.29906
  Beta virt. eigenvalues --    0.02784   0.04038   0.04525   0.05034   0.05402
  Beta virt. eigenvalues --    0.06122   0.07106   0.07354   0.08338   0.09247
  Beta virt. eigenvalues --    0.10981   0.12726   0.13305   0.13967   0.14182

 Mulliken charges and spin densities:
               1          2
     1  F   -1.202474   0.078873
     2  B    1.729708   1.128427
     3  O   -2.638222  -0.369345
     4  C    5.954996   0.120698
     5  O   -2.609005   0.024718
     6  N   -2.980025   0.022560
     7  C   -3.415391  -0.009733
     8  H    1.415335  -0.002951
     9  H    1.427692   0.001427
    10  H    1.641420  -0.017147
    11  C   -3.489748   0.024840
    12  H    1.405669  -0.000487
    13  H    1.388922   0.000152
    14  H    1.371124  -0.002032
 Sum of Mulliken charges =  -0.00000   1.00000

 Dipole moment (field-independent basis, Debye):
    X=             -0.9323    Y=             -1.4424    Z=              1.4193  Tot=              2.2280
                          Isotropic Fermi Contact Couplings
        Atom                 a.u.       MegaHertz       Gauss      10(-4) cm-1
     1  F(19)              0.07618     320.51746     114.36860     106.91312
     2  B(11)              0.28383     407.11487     145.26871     135.79890
     3  O(17)              0.21706    -131.57958     -46.95087     -43.89022
     4  C(13)              0.04379      49.22387      17.56430      16.41932
     5  O(17)              0.00432      -2.61867      -0.93441      -0.87349
     6  N(14)              0.01281       4.14020       1.47733       1.38102
     7  C(13)             -0.00036      -0.40044      -0.14289      -0.13357
     8  H(1)               0.00001       0.05231       0.01866       0.01745

 Normal termination of Gaussian 16 at Wed Apr  9 00:34:39 2025.
