 Gaussian 16, Revision C.01,

 ----------------------------------------------------------------------
 #t hf aug-cc-pvdz symm=none int=(grid=ultrafine) guess=(read,tcheck) s
 table=(opt,rrhf)
 ----------------------------------------------------------------------
 -----
 title
 -----
 Symbolic Z-matrix:
 Charge =  0 Multiplicity = 1

 SCF Done:  E(RHF) =  -810.368403760     A.U. after   12 cycles
 Normal termination of Gaussian 16 at Tue Apr  8 22:43:49 2025.
 Gaussian 16:  ES64L-G16RevC.01  3-Jul-2019

 ----------------------------------------------------------------------
 #t hf aug-cc-pvdz iop(5/13=1,5/36=2,99/5=2) pseudo=read geom=check gue
 ss=(read,tcheck) scf=(maxcycle=1)
 ----------------------------------------------------------------------
 -----
 title
 -----
 Structure from the checkpoint file:  "BDE49_expt_144_mol1.chk"
 Charge =  0 Multiplicity = 1

                         Standard orientation:
 ---------------------------------------------------------------------
 Center     Atomic      Atomic             Coordinates (Angstroms)
 Number     Number       Type             X           Y           Z
 ---------------------------------------------------------------------
      1          6           0        1.295926   -0.140716   -0.028461
      2          6           0       -0.000000    0.527379   -0.509885
      3          9           0        1.371356   -1.400915   -0.487105
      4          9           0        1.390213   -0.165844    1.305034
      5          9           0        2.346348    0.543133   -0.509077
      6          6           0       -1.295926   -0.140716   -0.028461
      7          1           0       -0.000000    0.517618   -1.602227
      8          9           0       -0.000000    1.825775   -0.061809
      9          9           0       -1.371353   -1.400917   -0.487100
     10          9           0       -2.346348    0.543130   -0.509082
     11          9           0       -1.390216   -0.165839    1.305034
 ---------------------------------------------------------------------

 SCF Done:  E(RHF) =  -813.222657084     A.U. after    2 cycles

 The electronic state is 1-A.
 Alpha  occ. eigenvalues --  -29.33940 -29.33936 -29.33669 -29.33663 -29.33573
 Alpha  occ. eigenvalues --  -29.33572 -29.32009 -11.65543 -11.63836 -11.52548
 Alpha  occ. eigenvalues --   -1.52445  -1.42645  -1.18566  -0.96412  -0.95533
 Alpha  occ. eigenvalues --   -0.91842  -0.90472  -0.80520  -0.76974  -0.71123
 Alpha  occ. eigenvalues --   -0.52278  -0.49819  -0.49467  -0.47160  -0.45909
 Alpha  occ. eigenvalues --   -0.45637  -0.44554  -0.41724  -0.39963  -0.39786
 Alpha  occ. eigenvalues --   -0.36940  -0.34968  -0.34320  -0.30499  -0.29828
 Alpha  occ. eigenvalues --   -0.28674  -0.27953  -0.26924  -0.24498  -0.23702
 Alpha  occ. eigenvalues --   -0.22259
 Alpha virt. eigenvalues --    0.04829   0.09501   0.10090   0.10666   0.11599
 Alpha virt. eigenvalues --    0.12190   0.12347   0.12933   0.13563   0.14849
 Alpha virt. eigenvalues --    0.19445   0.20008   0.21339   0.22866   0.23277

 Mulliken charges:
               1
     1  C   -0.358020
     2  C   -3.994246
     3  F    0.382004
     4  F    0.462182
     5  F    0.518772
     6  C   -0.358020
     7  H    1.526703
     8  F    0.457668
     9  F    0.382005
    10  F    0.518771
    11  F    0.462181
 Sum of Mulliken charges =  -0.00000

 Dipole moment (field-independent basis, Debye):
    X=              0.0000    Y=              0.2189    Z=              1.5284  Tot=              1.5440

 Test job not archived.
 1\1\GINC-SE073\SP\RHF\Aug-CC-pVDZ\C3H1F7\OHZDE\08-Apr-2025\0\\#t hf au
 g-cc-pvdz iop(5/13=1,5/36=2,99/5=2) pseudo=read geom=check guess=(read
 ,tcheck) scf=(maxcycle=1)\\title\\0,1\C,0,1.295926,-0.140716,-0.028461
 \C,0,0.,0.527379,-0.509885\F,0,1.371356,-1.400915,-0.487105\F,0,1.3902
 13,-0.165844,1.305034\F,0,2.346348,0.543133,-0.509077\C,0,-1.295926,-0
 .140716,-0.028461\H,0,0.,0.517618,-1.602227\F,0,0.,1.825775,-0.061809\
 F,0,-1.371353,-1.400917,-0.4871\F,0,-2.346348,0.54313,-0.509082\F,0,-1
 .390216,-0.165839,1.305034\\Version=ES64L-G16RevC.01\State=1-A\HF=-813

 Normal termination of Gaussian 16 at Tue Apr  8 22:43:55 2025.
