 Gaussian 16, Revision C.01,

 ----------------------------------------------------------------------
 #t hf aug-cc-pvdz symm=none int=(grid=ultrafine) guess=(read,tcheck) s
 table=(opt,rrhf)
 ----------------------------------------------------------------------
 -----
 title
 -----
 Symbolic Z-matrix:
 Charge =  0 Multiplicity = 1

 SCF Done:  E(RHF) =  -686.764502598     A.U. after   14 cycles
 Normal termination of Gaussian 16 at Tue Apr  8 22:50:41 2025.
 Gaussian 16:  ES64L-G16RevC.01  3-Jul-2019

 ----------------------------------------------------------------------
 #t hf aug-cc-pvdz iop(5/13=1,5/36=2,99/5=2) pseudo=read geom=check gue
 ss=(read,tcheck) scf=(maxcycle=1)
 ----------------------------------------------------------------------
 -----
 title
 -----
 Structure from the checkpoint file:  "BDE49_expt_1715_mol1.chk"
 Charge =  0 Multiplicity = 1

                         Standard orientation:
 ---------------------------------------------------------------------
 Center     Atomic      Atomic             Coordinates (Angstroms)
 Number     Number       Type             X           Y           Z
 ---------------------------------------------------------------------
      1          6           0        1.003517   -0.115348    0.056075
      2          8           0        1.800782   -0.871896   -0.430087
      3          6           0       -0.310845   -0.550915    0.674331
      4          8           0        1.185315    1.214986    0.146666
      5         17           0       -1.724222    0.096985   -0.245718
      6          1           0       -0.397125   -0.177220    1.693278
      7          1           0       -0.368380   -1.634200    0.647475
      8          1           0        2.032478    1.415541   -0.278609
 ---------------------------------------------------------------------

 SCF Done:  E(RHF) =  -687.965362840     A.U. after    2 cycles

 The electronic state is 1-A.
 Alpha  occ. eigenvalues --  -99.90095 -21.14082 -21.07677 -11.54489 -11.46264
 Alpha  occ. eigenvalues --  -10.47317  -9.67175  -9.66443  -9.66401  -1.84743
 Alpha  occ. eigenvalues --   -1.67556  -1.34490  -1.08511  -0.83279  -0.69427
 Alpha  occ. eigenvalues --   -0.65017  -0.64228  -0.59961  -0.53873  -0.52299
 Alpha  occ. eigenvalues --   -0.49371  -0.46923  -0.35737  -0.31944
 Alpha virt. eigenvalues --    0.02823   0.05370   0.06118   0.06483   0.10457
 Alpha virt. eigenvalues --    0.10605   0.11901   0.12213   0.13601   0.14792
 Alpha virt. eigenvalues --    0.15231   0.15900   0.17112   0.18299   0.19796

 Mulliken charges:
               1
     1  C    5.493931
     2  O   -2.817646
     3  C   -4.155799
     4  O   -2.689758
     5  Cl   0.167972
     6  H    1.595396
     7  H    1.557508
     8  H    0.848396
 Sum of Mulliken charges =   0.00000

 Dipole moment (field-independent basis, Debye):
    X=              1.1225    Y=              0.3631    Z=              1.2724  Tot=              1.7352

 Test job not archived.
 1\1\GINC-SE029\SP\RHF\Aug-CC-pVDZ\C2H3Cl1O2\OHZDE\08-Apr-2025\0\\#t hf
  aug-cc-pvdz iop(5/13=1,5/36=2,99/5=2) pseudo=read geom=check guess=(r
 ead,tcheck) scf=(maxcycle=1)\\title\\0,1\C,0,1.003517,-0.115348,0.0560
 75\O,0,1.800782,-0.871895,-0.430087\C,0,-0.310845,-0.550915,0.674331\O
 ,0,1.185315,1.214986,0.146666\Cl,0,-1.724222,0.096984,-0.245718\H,0,-0
 .397125,-0.17722,1.693278\H,0,-0.368379,-1.6342,0.647475\H,0,2.032478,
 1.415542,-0.278609\\Version=ES64L-G16RevC.01\State=1-A\HF=-687.9653628
 \RMSD=1.468e-01\Dipole=0.4416441,0.142836,0.5006058\Quadrupole=-1.0570

 Normal termination of Gaussian 16 at Tue Apr  8 22:50:44 2025.
