 Gaussian 16, Revision C.01,

 ----------------------------------------------------------------------
 #t hf aug-cc-pvdz symm=none int=(grid=ultrafine) guess=(read,tcheck) s
 table=(opt,rrhf)
 ----------------------------------------------------------------------
 -----
 title
 -----
 Symbolic Z-matrix:
 Charge =  0 Multiplicity = 1

 SCF Done:  E(RHF) =  -680.285164613     A.U. after   16 cycles
 Normal termination of Gaussian 16 at Tue Apr  8 22:45:34 2025.
 Gaussian 16:  ES64L-G16RevC.01  3-Jul-2019

 ----------------------------------------------------------------------
 #t hf aug-cc-pvdz iop(5/13=1,5/36=2,99/5=2) pseudo=read geom=check gue
 ss=(read,tcheck) scf=(maxcycle=1)
 ----------------------------------------------------------------------
 -----
 title
 -----
 Structure from the checkpoint file:  "BDE49_expt_1424_mol1.chk"
 Charge =  0 Multiplicity = 1

                         Standard orientation:
 ---------------------------------------------------------------------
 Center     Atomic      Atomic             Coordinates (Angstroms)
 Number     Number       Type             X           Y           Z
 ---------------------------------------------------------------------
      1          6           0       -0.793142    0.024955   -0.030814
      2          6           0       -0.202412    1.294414   -0.020065
      3          6           0        1.173963    1.422994   -0.006667
      4          6           0        0.015104   -1.106049   -0.026404
      5          6           0        1.403782   -0.987509   -0.013438
      6          6           0        1.989739    0.281496   -0.001843
      7          1           0       -0.436365   -2.089759   -0.039978
      8          1           0        2.009797   -1.882809   -0.014718
      9          8           0        3.326885    0.515357    0.010679
     10          6           0        4.215554   -0.596083    0.014564
     11          1           0        5.217927   -0.172315    0.025925
     12          1           0        4.091796   -1.210088   -0.883876
     13          1           0        4.074633   -1.217549    0.905299
     14          1           0       -0.826351    2.179729   -0.031224
     15          1           0        1.649360    2.395829   -0.002548
     16          6           0       -2.286552   -0.096271    0.001028
     17          9           0       -2.885717    0.806327   -0.811003
     18          9           0       -2.789858    0.119709    1.242180
     19          9           0       -2.712435   -1.320879   -0.380340
 ---------------------------------------------------------------------

 SCF Done:  E(RHF) =  -683.060163685     A.U. after    2 cycles

 The electronic state is 1-A.
 Alpha  occ. eigenvalues --  -29.30114 -29.29808 -29.29453 -21.09072 -11.61159
 Alpha  occ. eigenvalues --  -11.54794 -11.48108 -11.45773 -11.44720 -11.42740
 Alpha  occ. eigenvalues --  -11.42238 -11.38569  -1.80512  -1.44444  -1.30302
 Alpha  occ. eigenvalues --   -1.12242  -1.10255  -1.00848  -0.92270  -0.87081
 Alpha  occ. eigenvalues --   -0.86620  -0.84212  -0.76709  -0.68938  -0.65232
 Alpha  occ. eigenvalues --   -0.63764  -0.62625  -0.60191  -0.56719  -0.54096
 Alpha  occ. eigenvalues --   -0.52058  -0.47841  -0.46442  -0.44102  -0.42816
 Alpha  occ. eigenvalues --   -0.42454  -0.40586  -0.36069  -0.35070  -0.34321
 Alpha  occ. eigenvalues --   -0.29495  -0.28046  -0.24514  -0.22862  -0.20374
 Alpha virt. eigenvalues --    0.03151   0.04618   0.05507   0.05747   0.06494
 Alpha virt. eigenvalues --    0.06735   0.07830   0.08898   0.10146   0.10572
 Alpha virt. eigenvalues --    0.11469   0.11822   0.12829   0.12971   0.13196

 Mulliken charges:
               1
     1  C    2.057957
     2  C   -2.101116
     3  C   -3.974283
     4  C   -1.047205
     5  C   -2.514141
     6  C    4.417766
     7  H    1.872537
     8  H    1.845140
     9  O   -4.773842
    10  C   -3.774040
    11  H    1.423666
    12  H    1.392000
    13  H    1.391857
    14  H    1.791611
    15  H    1.884729
    16  C   -0.636119
    17  F    0.193691
    18  F    0.141803
    19  F    0.407988
 Sum of Mulliken charges =  -0.00000

 Dipole moment (field-independent basis, Debye):
    X=              0.5541    Y=             -0.4321    Z=              0.0774  Tot=              0.7069

 Test job not archived.
 1\1\GINC-SE092\SP\RHF\Aug-CC-pVDZ\C8H7F3O1\OHZDE\08-Apr-2025\0\\#t hf
 aug-cc-pvdz iop(5/13=1,5/36=2,99/5=2) pseudo=read geom=check guess=(re
 ad,tcheck) scf=(maxcycle=1)\\title\\0,1\C,0,-0.793142,0.024955,-0.0308
 14\C,0,-0.202412,1.294414,-0.020065\C,0,1.173963,1.422994,-0.006667\C,
 0,0.015104,-1.106049,-0.026404\C,0,1.403782,-0.987509,-0.013438\C,0,1.
 989739,0.281496,-0.001843\H,0,-0.436365,-2.089759,-0.039978\H,0,2.0097
 97,-1.882809,-0.014718\O,0,3.326885,0.515357,0.010679\C,0,4.215554,-0.
 596083,0.014564\H,0,5.217927,-0.172315,0.025925\H,0,4.091796,-1.210088

 Normal termination of Gaussian 16 at Tue Apr  8 22:45:46 2025.
