 Gaussian 16, Revision C.01,

 ----------------------------------------------------------------------
 #t hf aug-cc-pvdz symm=none int=(grid=ultrafine) guess=(read,tcheck) s
 table=(opt,rrhf)
 ----------------------------------------------------------------------
 -----
 title
 -----
 Symbolic Z-matrix:
 Charge =  0 Multiplicity = 1

 SCF Done:  E(RHF) =  -222.614322529     A.U. after   13 cycles
 Normal termination of Gaussian 16 at Wed Apr  9 00:42:09 2025.
 Gaussian 16:  ES64L-G16RevC.01  3-Jul-2019

 ----------------------------------------------------------------------
 #t hf aug-cc-pvdz iop(5/13=1,5/36=2,99/5=2) pseudo=read geom=check gue
 ss=(read,tcheck) scf=(maxcycle=1)
 ----------------------------------------------------------------------
 -----
 title
 -----
 Structure from the checkpoint file:  "BDE49_nonexpt_68_mol1.chk"
 Charge =  0 Multiplicity = 1

                         Standard orientation:
 ---------------------------------------------------------------------
 Center     Atomic      Atomic             Coordinates (Angstroms)
 Number     Number       Type             X           Y           Z
 ---------------------------------------------------------------------
      1          5           0       -1.931537   -1.497902   -0.318308
      2          5           0       -1.042564   -0.487826    0.607716
      3          6           0        0.031449    0.546038    0.074638
      4          7           0        1.259215    0.334176   -0.185424
      5          6           0       -0.511861    1.951838   -0.111866
      6          1           0       -1.343105    1.966519   -0.825101
      7          1           0        0.290696    2.591269   -0.482663
      8          1           0       -0.888568    2.356158    0.833894
      9          6           0        1.799238   -1.004605   -0.003157
     10          1           0        2.538210   -0.987849    0.804468
     11          1           0        2.329740   -1.303483   -0.911814
     12          1           0        1.051015   -1.779755    0.230121
     13          1           0       -1.268192   -0.439027    1.786993
     14          1           0       -2.948495   -1.138032   -0.835747
     15          1           0       -1.618249   -2.636020   -0.506913
 ---------------------------------------------------------------------

 SCF Done:  E(RHF) =  -223.695158407     A.U. after    2 cycles

 The electronic state is 1-A.
 Alpha  occ. eigenvalues --  -15.71678 -11.42034 -11.38165 -11.36501  -7.60946
 Alpha  occ. eigenvalues --   -7.60074  -1.38454  -1.11648  -0.96243  -0.95638
 Alpha  occ. eigenvalues --   -0.79544  -0.66847  -0.60965  -0.59927  -0.58184
 Alpha  occ. eigenvalues --   -0.55923  -0.49865  -0.48897  -0.47408  -0.43579
 Alpha  occ. eigenvalues --   -0.35240  -0.32539
 Alpha virt. eigenvalues --    0.02351   0.02551   0.02942   0.03819   0.06472
 Alpha virt. eigenvalues --    0.06762   0.07399   0.07647   0.08092   0.08479
 Alpha virt. eigenvalues --    0.09163   0.09477   0.10186   0.10659   0.10935

 Mulliken charges:
               1
     1  B    5.190724
     2  B    4.084636
     3  C    1.482141
     4  N   -3.159738
     5  C   -3.770105
     6  H    1.342752
     7  H    1.311469
     8  H    1.250001
     9  C   -3.455238
    10  H    1.397934
    11  H    1.394955
    12  H    1.536562
    13  H   -3.112617
    14  H   -2.710991
    15  H   -2.782484
 Sum of Mulliken charges =  -0.00000

 Dipole moment (field-independent basis, Debye):
    X=             -0.7744    Y=             -0.2933    Z=              0.2953  Tot=              0.8792

 Test job not archived.
 1\1\GINC-SE462\SP\RHF\Aug-CC-pVDZ\C3H9B2N1\OHZDE\09-Apr-2025\0\\#t hf
 aug-cc-pvdz iop(5/13=1,5/36=2,99/5=2) pseudo=read geom=check guess=(re
 ad,tcheck) scf=(maxcycle=1)\\title\\0,1\B,0,-1.931538,-1.497901,-0.318
 308\B,0,-1.042564,-0.487825,0.607716\C,0,0.031449,0.546038,0.074638\N,
 0,1.259215,0.334175,-0.185424\C,0,-0.51186,1.951838,-0.111866\H,0,-1.3
 43104,1.96652,-0.825101\H,0,0.290698,2.591269,-0.482663\H,0,-0.888567,
 2.356158,0.833894\C,0,1.799237,-1.004606,-0.003157\H,0,2.538209,-0.987
 851,0.804468\H,0,2.329739,-1.303485,-0.911814\H,0,1.051014,-1.779756,0

 Normal termination of Gaussian 16 at Wed Apr  9 00:42:13 2025.
