 Gaussian 16, Revision C.01,

 ----------------------------------------------------------------------
 #t hf aug-cc-pvdz symm=none int=(grid=ultrafine) guess=(read,tcheck) s
 table=(opt,rrhf)
 ----------------------------------------------------------------------
 -----
 title
 -----
 Symbolic Z-matrix:
 Charge =  0 Multiplicity = 1

 SCF Done:  E(RHF) =  -400.548733110     A.U. after   15 cycles
 Normal termination of Gaussian 16 at Tue Apr  8 22:39:54 2025.
 Gaussian 16:  ES64L-G16RevC.01  3-Jul-2019

 ----------------------------------------------------------------------
 #t hf aug-cc-pvdz iop(5/13=1,5/36=2,99/5=2) pseudo=read geom=check gue
 ss=(read,tcheck) scf=(maxcycle=1)
 ----------------------------------------------------------------------
 -----
 title
 -----
 Structure from the checkpoint file:  "BDE49_expt_1163_mol1.chk"
 Charge =  0 Multiplicity = 1

                         Standard orientation:
 ---------------------------------------------------------------------
 Center     Atomic      Atomic             Coordinates (Angstroms)
 Number     Number       Type             X           Y           Z
 ---------------------------------------------------------------------
      1          6           0       -2.269501   -0.530432   -0.475665
      2          7           0       -2.966475   -1.427515   -0.672255
      3          6           0        0.073839    0.219572   -0.129622
      4          6           0        2.797467   -0.403920    0.075375
      5          6           0        2.397387    0.800662   -0.498296
      6          6           0        1.043074    1.108621   -0.600717
      7          6           0        0.482089   -0.987957    0.441651
      8          6           0        1.836256   -1.297258    0.542997
      9          1           0        3.137969    1.498382   -0.872578
     10          1           0        0.737853    2.046332   -1.054624
     11          1           0        3.850921   -0.647676    0.151544
     12          1           0        2.139159   -2.240541    0.983114
     13          1           0       -0.259973   -1.696123    0.793829
     14          6           0       -1.398834    0.617327   -0.196974
     15          6           0       -1.862828    1.336681    1.093454
     16          1           0       -1.523745    1.309144   -1.036902
     17          1           0       -2.906019    1.648533    1.011402
     18          1           0       -1.241893    2.218557    1.260278
     19          1           0       -1.762640    0.676223    1.956493
 ---------------------------------------------------------------------

 SCF Done:  E(RHF) =  -402.463953518     A.U. after    2 cycles

 The electronic state is 1-A.
 Alpha  occ. eigenvalues --  -15.75668 -11.53195 -11.49654 -11.44907 -11.44441
 Alpha  occ. eigenvalues --  -11.43356 -11.41939 -11.41659 -11.40468 -11.37404
 Alpha  occ. eigenvalues --   -1.38766  -1.30373  -1.20647  -1.10300  -1.07999
 Alpha  occ. eigenvalues --   -0.96061  -0.87838  -0.85489  -0.73114  -0.70212
 Alpha  occ. eigenvalues --   -0.67160  -0.62045  -0.59159  -0.58650  -0.56935
 Alpha  occ. eigenvalues --   -0.55904  -0.53542  -0.50721  -0.49645  -0.46318
 Alpha  occ. eigenvalues --   -0.45561  -0.42681  -0.41364  -0.34024  -0.33360
 Alpha virt. eigenvalues --    0.02950   0.04569   0.04839   0.05352   0.05672
 Alpha virt. eigenvalues --    0.06316   0.06557   0.07456   0.08046   0.09431
 Alpha virt. eigenvalues --    0.10182   0.10747   0.11056   0.11546   0.12382

 Mulliken charges:
               1
     1  C    1.905623
     2  N   -2.559335
     3  C    5.804316
     4  C   -3.057281
     5  C   -1.565581
     6  C   -2.929962
     7  C   -2.108156
     8  C   -1.699157
     9  H    1.496907
    10  H    1.721834
    11  H    1.540659
    12  H    1.505304
    13  H    1.874520
    14  C   -3.336949
    15  C   -4.048062
    16  H    1.395558
    17  H    1.363188
    18  H    1.331915
    19  H    1.364659
 Sum of Mulliken charges =  -0.00000

 Dipole moment (field-independent basis, Debye):
    X=              2.5116    Y=              2.5102    Z=              0.8374  Tot=              3.6484

 Test job not archived.
 1\1\GINC-SE058\SP\RHF\Aug-CC-pVDZ\C9H9N1\OHZDE\08-Apr-2025\0\\#t hf au
 g-cc-pvdz iop(5/13=1,5/36=2,99/5=2) pseudo=read geom=check guess=(read
 ,tcheck) scf=(maxcycle=1)\\title\\0,1\C,0,-2.269501,-0.530432,-0.47566
 5\N,0,-2.966475,-1.427515,-0.672255\C,0,0.073839,0.219572,-0.129622\C,
 0,2.797467,-0.40392,0.075375\C,0,2.397387,0.800662,-0.498296\C,0,1.043
 074,1.108621,-0.600717\C,0,0.482089,-0.987957,0.441651\C,0,1.836256,-1
 .297258,0.542997\H,0,3.137969,1.498382,-0.872578\H,0,0.737853,2.046332
 ,-1.054624\H,0,3.850921,-0.647676,0.151544\H,0,2.139159,-2.240541,0.98

 Normal termination of Gaussian 16 at Tue Apr  8 22:40:04 2025.
