 Gaussian 16, Revision C.01,

 ----------------------------------------------------------------------
 #t hf aug-cc-pvdz symm=none int=(grid=ultrafine) guess=(read,tcheck) s
 table=(opt,rrhf)
 ----------------------------------------------------------------------
 -----
 title
 -----
 Symbolic Z-matrix:
 Charge =  0 Multiplicity = 1

 SCF Done:  E(RHF) =  -708.550044987     A.U. after   15 cycles
 Normal termination of Gaussian 16 at Tue Apr  8 23:45:45 2025.
 Gaussian 16:  ES64L-G16RevC.01  3-Jul-2019

 ----------------------------------------------------------------------
 #t hf aug-cc-pvdz iop(5/13=1,5/36=2,99/5=2) pseudo=read geom=check gue
 ss=(read,tcheck) scf=(maxcycle=1)
 ----------------------------------------------------------------------
 -----
 title
 -----
 Structure from the checkpoint file:  "BDE49_nonexpt_157_mol1.chk"
 Charge =  0 Multiplicity = 1

                         Standard orientation:
 ---------------------------------------------------------------------
 Center     Atomic      Atomic             Coordinates (Angstroms)
 Number     Number       Type             X           Y           Z
 ---------------------------------------------------------------------
      1          5           0        0.708368    1.695046   -0.434761
      2          5           0       -0.708360    1.695037    0.434813
      3          6           0       -1.974612    0.836171    0.208688
      4          6           0       -3.131239    1.028181    0.995474
      5          6           0       -2.031786   -0.169786   -0.781509
      6          6           0       -3.168261   -0.941831   -0.981599
      7          6           0       -4.274806   -0.704300   -0.175983
      8          6           0       -4.280559    0.269439    0.813668
      9          1           0       -1.162976   -0.350471   -1.405336
     10          1           0       -3.216210   -1.714140   -1.739279
     11          6           0        1.974616    0.836166   -0.208663
     12          6           0        3.131308    1.028320   -0.995318
     13          6           0        2.031720   -0.169950    0.781377
     14          6           0        3.168187   -0.942013    0.981438
     15          6           0        4.274799   -0.704336    0.175954
     16          6           0        4.280623    0.269564   -0.813538
     17          1           0        1.162860   -0.350747    1.405101
     18          1           0        3.216083   -1.714446    1.738995
     19          9           0       -5.383235   -1.447652   -0.361954
     20          9           0        5.383222   -1.447705    0.361899
     21          1           0       -3.120062    1.792568    1.764313
     22          1           0        3.120186    1.792831   -1.764035
     23          1           0        5.169821    0.414248   -1.414616
     24          1           0       -5.169708    0.414014    1.414845
     25          1           0       -0.779660    2.504951    1.323947
     26          1           0        0.779808    2.505239   -1.323629
 ---------------------------------------------------------------------

 SCF Done:  E(RHF) =  -711.619400040     A.U. after    2 cycles

 The electronic state is 1-A.
 Alpha  occ. eigenvalues --  -29.29462 -29.29462 -11.54453 -11.54333 -11.47811
 Alpha  occ. eigenvalues --  -11.47590 -11.45313 -11.45256 -11.42575 -11.42398
 Alpha  occ. eigenvalues --  -11.41952 -11.41812 -11.37629 -11.37595  -7.61187
 Alpha  occ. eigenvalues --   -7.61185  -1.38126  -1.37899  -1.17222  -1.16568
 Alpha  occ. eigenvalues --   -1.11619  -1.11446  -0.98303  -0.93811  -0.89638
 Alpha  occ. eigenvalues --   -0.89374  -0.84538  -0.77244  -0.77146  -0.73445
 Alpha  occ. eigenvalues --   -0.65695  -0.64238  -0.62328  -0.61267  -0.60157
 Alpha  occ. eigenvalues --   -0.60115  -0.58005  -0.55696  -0.55386  -0.55335
 Alpha  occ. eigenvalues --   -0.48630  -0.47267  -0.43841  -0.43662  -0.41825
 Alpha  occ. eigenvalues --   -0.41775  -0.39270  -0.39123  -0.35379  -0.34966
 Alpha  occ. eigenvalues --   -0.34893  -0.28013  -0.27941  -0.24924  -0.24834
 Alpha virt. eigenvalues --    0.02999   0.03220   0.03768   0.04001   0.05319
 Alpha virt. eigenvalues --    0.05735   0.05969   0.06915   0.06938   0.07159
 Alpha virt. eigenvalues --    0.07778   0.07894   0.08812   0.08873   0.09824

 Mulliken charges:
               1
     1  B    3.431917
     2  B    3.430923
     3  C   -3.482112
     4  C    0.737484
     5  C    2.460100
     6  C   -5.361769
     7  C    2.991038
     8  C   -4.823028
     9  H    2.053449
    10  H    1.692809
    11  C   -3.481763
    12  C    0.737437
    13  C    2.459780
    14  C   -5.361714
    15  C    2.990904
    16  C   -4.823015
    17  H    2.053506
    18  H    1.692790
    19  F    0.565122
    20  F    0.565113
    21  H    2.059013
    22  H    2.059002
    23  H    1.693500
    24  H    1.693505
    25  H   -4.016575
    26  H   -4.017415
 Sum of Mulliken charges =   0.00000

 Dipole moment (field-independent basis, Debye):
    X=             -0.0001    Y=             -4.1449    Z=             -0.0001  Tot=              4.1449

 Test job not archived.
 1\1\GINC-SE403\SP\RHF\Aug-CC-pVDZ\C12H10B2F2\OHZDE\08-Apr-2025\0\\#t h
 f aug-cc-pvdz iop(5/13=1,5/36=2,99/5=2) pseudo=read geom=check guess=(
 read,tcheck) scf=(maxcycle=1)\\title\\0,1\B,0,0.708368,1.695046,-0.434
 761\B,0,-0.70836,1.695037,0.434813\C,0,-1.974612,0.836171,0.208688\C,0
 ,-3.131239,1.028181,0.995474\C,0,-2.031786,-0.169786,-0.781509\C,0,-3.
 168261,-0.941831,-0.981599\C,0,-4.274806,-0.7043,-0.175983\C,0,-4.2805
 59,0.269439,0.813668\H,0,-1.162976,-0.350471,-1.405336\H,0,-3.21621,-1
 .71414,-1.739279\C,0,1.974616,0.836166,-0.208663\C,0,3.131308,1.02832,

 Normal termination of Gaussian 16 at Tue Apr  8 23:46:11 2025.
