 Gaussian 16, Revision C.01,

 ----------------------------------------------------------------------
 #t hf aug-cc-pvdz symm=none int=(grid=ultrafine) guess=(read,tcheck) s
 table=opt
 ----------------------------------------------------------------------
 -----
 title
 -----
 Symbolic Z-matrix:
 Charge =  0 Multiplicity = 2

 SCF Done:  E(UHF) =  -300.900925818     A.U. after   25 cycles
 Normal termination of Gaussian 16 at Tue Apr  8 23:02:43 2025.
 Gaussian 16:  ES64L-G16RevC.01  3-Jul-2019

 ----------------------------------------------------------------------
 #t hf aug-cc-pvdz iop(5/13=1,5/36=2,99/5=2) pseudo=read geom=check gue
 ss=(read,tcheck) scf=(maxcycle=1)
 ----------------------------------------------------------------------
 -----
 title
 -----
 Structure from the checkpoint file:  "BDE49_expt_254_mol2.chk"
 Charge =  0 Multiplicity = 2

                         Standard orientation:
 ---------------------------------------------------------------------
 Center     Atomic      Atomic             Coordinates (Angstroms)
 Number     Number       Type             X           Y           Z
 ---------------------------------------------------------------------
      1          6           0        0.953662   -0.166818    0.406811
      2          6           0       -0.500793    0.131085    0.021793
      3          8           0       -0.909960    1.250479   -0.027532
      4          8           0        1.942609   -0.044090   -0.212994
      5          8           0       -1.278042   -0.959198   -0.085694
      6          1           0       -0.754073   -1.763132    0.038141
 ---------------------------------------------------------------------

 SCF Done:  E(UHF) =  -302.103385428     A.U. after    2 cycles

 The electronic state is 2-A.
 Alpha  occ. eigenvalues --  -21.17183 -21.16656 -21.10106 -11.57946 -11.52900
 Alpha  occ. eigenvalues --   -1.87289  -1.78966  -1.70487  -1.02256  -0.80336
 Alpha  occ. eigenvalues --   -0.68881  -0.63163  -0.60119  -0.55220  -0.52322
 Alpha  occ. eigenvalues --   -0.49307  -0.39163  -0.37797  -0.27638
 Alpha virt. eigenvalues --    0.03057   0.08163   0.09675   0.10248   0.11154
 Alpha virt. eigenvalues --    0.11502   0.11672   0.12415   0.13486   0.16933
 Alpha virt. eigenvalues --    0.18467   0.20203   0.21302   0.23456   0.23697

  Beta  occ. eigenvalues --  -21.17138 -21.15462 -21.09814 -11.57293 -11.51311
  Beta  occ. eigenvalues --   -1.86784  -1.76586  -1.69946  -0.97257  -0.79298
  Beta  occ. eigenvalues --   -0.63356  -0.60160  -0.59160  -0.52530  -0.48988
  Beta  occ. eigenvalues --   -0.45617  -0.37248  -0.35198
  Beta virt. eigenvalues --    0.02469   0.06507   0.09289   0.09902   0.10434
  Beta virt. eigenvalues --    0.11429   0.11649   0.11926   0.13885   0.14238
  Beta virt. eigenvalues --    0.17847   0.19096   0.21430   0.23319   0.23571

 Mulliken charges and spin densities:
               1          2
     1  C    0.967725   0.764650
     2  C    5.135024  -0.113790
     3  O   -2.585893   0.081519
     4  O   -1.884786   0.247376
     5  O   -2.691900   0.014515
     6  H    1.059829   0.005730
 Sum of Mulliken charges =  -0.00000   1.00000

 Dipole moment (field-independent basis, Debye):
    X=              0.2738    Y=             -1.5420    Z=             -0.5803  Tot=              1.6702
                          Isotropic Fermi Contact Couplings
        Atom                 a.u.       MegaHertz       Gauss      10(-4) cm-1
     1  C(13)              0.15527     174.55498      62.28556      58.22528
     2  C(13)              0.09997     112.38649      40.10230      37.48810
     3  O(17)              0.01809     -10.96545      -3.91274      -3.65768
     4  O(17)              0.08718     -52.85056     -18.85840     -17.62905
     5  O(17)              0.00021      -0.12666      -0.04520      -0.04225
     6  H(1)              -0.00009      -0.38594      -0.13771      -0.12874
 --------------------------------------------------------
       Center         ----  Spin Dipole Couplings  ----

 Normal termination of Gaussian 16 at Tue Apr  8 23:02:45 2025.
