 Gaussian 16, Revision C.01,

 ----------------------------------------------------------------------
 #t hf aug-cc-pvdz symm=none int=(grid=ultrafine) guess=(read,tcheck) s
 table=(opt,rrhf)
 ----------------------------------------------------------------------
 -----
 title
 -----
 Symbolic Z-matrix:
 Charge =  0 Multiplicity = 1

 SCF Done:  E(RHF) =  -1061.07820074     A.U. after   15 cycles
 Normal termination of Gaussian 16 at Wed Apr  9 00:16:35 2025.
 Gaussian 16:  ES64L-G16RevC.01  3-Jul-2019

 ----------------------------------------------------------------------
 #t hf aug-cc-pvdz iop(5/13=1,5/36=2,99/5=2) pseudo=read geom=check gue
 ss=(read,tcheck) scf=(maxcycle=1)
 ----------------------------------------------------------------------
 -----
 title
 -----
 Structure from the checkpoint file:  "BDE49_nonexpt_2529_mol1.chk"
 Charge =  0 Multiplicity = 1

                         Standard orientation:
 ---------------------------------------------------------------------
 Center     Atomic      Atomic             Coordinates (Angstroms)
 Number     Number       Type             X           Y           Z
 ---------------------------------------------------------------------
      1         17           0       -1.824451    0.321530    0.000116
      2          7           0        1.215687    0.229390   -0.000004
      3         16           0       -0.233976   -0.948585   -0.000176
      4          8           0        2.250151   -0.398640    0.000111
      5          8           0        1.031033    1.411844   -0.000001
 ---------------------------------------------------------------------

 SCF Done:  E(RHF) =  -1062.39166915     A.U. after    2 cycles

 The electronic state is 1-A.
 Alpha  occ. eigenvalues --  -99.95467 -75.82121 -21.14479 -21.13523 -16.04662
 Alpha  occ. eigenvalues --  -13.23152 -13.17120 -13.12583 -10.52677  -9.72340
 Alpha  occ. eigenvalues --   -9.71663  -9.71565  -8.15672  -2.03649  -1.74413
 Alpha  occ. eigenvalues --   -1.39582  -1.17424  -0.91463  -0.74239  -0.70689
 Alpha  occ. eigenvalues --   -0.65581  -0.59751  -0.59573  -0.56175  -0.36561
 Alpha  occ. eigenvalues --   -0.35421  -0.34243  -0.31130
 Alpha virt. eigenvalues --    0.02876   0.05145   0.08574   0.09265   0.10267
 Alpha virt. eigenvalues --    0.12056   0.13028   0.13462   0.15547   0.16512
 Alpha virt. eigenvalues --    0.17169   0.19227   0.19267   0.22335   0.23117

 Mulliken charges:
               1
     1  Cl  -0.327866
     2  N    4.581481
     3  S    0.850147
     4  O   -2.481281
     5  O   -2.622480
 Sum of Mulliken charges =  -0.00000

 Dipole moment (field-independent basis, Debye):
    X=              0.4821    Y=             -2.8312    Z=             -0.0005  Tot=              2.8719

 Test job not archived.
 1\1\GINC-SE127\SP\RHF\Aug-CC-pVDZ\Cl1N1O2S1\OHZDE\09-Apr-2025\0\\#t hf
  aug-cc-pvdz iop(5/13=1,5/36=2,99/5=2) pseudo=read geom=check guess=(r
 ead,tcheck) scf=(maxcycle=1)\\title\\0,1\Cl,0,-1.824451,0.32153,0.0001
 16\N,0,1.215687,0.22939,-0.000004\S,0,-0.233976,-0.948585,-0.000176\O,
 0,2.250151,-0.39864,0.000111\O,0,1.031033,1.411844,-0.000001\\Version=
 ES64L-G16RevC.01\State=1-A\HF=-1062.3916692\RMSD=8.574e-02\Dipole=0.18
 9684,-1.113861,-0.0001936\Quadrupole=-1.6437859,2.7123676,-1.0685816,-
 0.2997728,-0.000157,0.0009927\PG=C01 [X(Cl1N1O2S1)]\\@

 Normal termination of Gaussian 16 at Wed Apr  9 00:16:37 2025.
