 Gaussian 16, Revision C.01,

 ----------------------------------------------------------------------
 #t hf aug-cc-pvdz symm=none int=(grid=ultrafine) guess=(read,tcheck) s
 table=(opt,rrhf)
 ----------------------------------------------------------------------
 -----
 title
 -----
 Symbolic Z-matrix:
 Charge =  0 Multiplicity = 1

 SCF Done:  E(RHF) =  -1330.86091805     A.U. after   16 cycles
 Normal termination of Gaussian 16 at Wed Apr  9 00:54:56 2025.
 Gaussian 16:  ES64L-G16RevC.01  3-Jul-2019

 ----------------------------------------------------------------------
 #t hf aug-cc-pvdz iop(5/13=1,5/36=2,99/5=2) pseudo=read geom=check gue
 ss=(read,tcheck) scf=(maxcycle=1)
 ----------------------------------------------------------------------
 -----
 title
 -----
 Structure from the checkpoint file:  "BDE49_nonexpt_928_mol1.chk"
 Charge =  0 Multiplicity = 1

                         Standard orientation:
 ---------------------------------------------------------------------
 Center     Atomic      Atomic             Coordinates (Angstroms)
 Number     Number       Type             X           Y           Z
 ---------------------------------------------------------------------
      1         17           0        1.865452    1.725317    0.458349
      2         16           0        0.812918   -0.706906   -0.723411
      3          8           0        1.152936   -0.061911   -1.959444
      4          8           0        0.960732   -2.125717   -0.512285
      5          7           0        1.864389   -0.037047    0.467285
      6          6           0       -0.852316   -0.243765   -0.283100
      7          6           0       -1.597268   -1.083407    0.546446
      8          1           0       -1.171905   -2.017089    0.890176
      9          6           0       -2.895851   -0.716168    0.887953
     10          1           0       -3.486806   -1.363463    1.525165
     11          6           0       -3.437602    0.472295    0.400596
     12          1           0       -4.450590    0.751989    0.666317
     13          6           0       -2.687728    1.296212   -0.437741
     14          1           0       -3.116632    2.212217   -0.826478
     15          6           0       -1.388393    0.941727   -0.788016
     16          1           0       -0.799502    1.557295   -1.454443
     17          6           0        1.725923   -0.554286    1.836553
     18          1           0        1.758456   -1.640710    1.770963
     19          1           0        0.802361   -0.228931    2.327190
     20          1           0        2.584588   -0.206496    2.410455
 ---------------------------------------------------------------------

 SCF Done:  E(RHF) =  -1333.55940595     A.U. after    2 cycles

 The electronic state is 1-A.
 Alpha  occ. eigenvalues --  -99.92756 -75.91201 -21.05843 -21.05725 -15.80332
 Alpha  occ. eigenvalues --  -13.54966 -13.43482 -13.39083 -11.54983 -11.46900
 Alpha  occ. eigenvalues --  -11.46608 -11.44501 -11.43557 -11.42183 -11.39697
 Alpha  occ. eigenvalues --  -10.49845  -9.69781  -9.69009  -9.68843  -8.26433
 Alpha  occ. eigenvalues --   -1.85365  -1.66965  -1.48431  -1.37305  -1.23880
 Alpha  occ. eigenvalues --   -1.15063  -1.12377  -1.04584  -0.93893  -0.89805
 Alpha  occ. eigenvalues --   -0.84506  -0.74936  -0.71115  -0.67193  -0.66350
 Alpha  occ. eigenvalues --   -0.65053  -0.61533  -0.61181  -0.60619  -0.56829
 Alpha  occ. eigenvalues --   -0.55000  -0.53417  -0.51753  -0.49867  -0.48430
 Alpha  occ. eigenvalues --   -0.44415  -0.42528  -0.40830  -0.40659  -0.37128
 Alpha  occ. eigenvalues --   -0.36762  -0.35979  -0.35609
 Alpha virt. eigenvalues --    0.02602   0.04161   0.04399   0.04744   0.04795
 Alpha virt. eigenvalues --    0.06144   0.06985   0.07047   0.07648   0.08129
 Alpha virt. eigenvalues --    0.09729   0.10224   0.10751   0.11225   0.12068

 Mulliken charges:
               1
     1  Cl   0.210210
     2  S    7.254627
     3  O   -2.910958
     4  O   -2.928835
     5  N   -2.035112
     6  C    2.253026
     7  C   -3.670043
     8  H    2.062104
     9  C   -0.555088
    10  H    1.511512
    11  C   -2.820389
    12  H    1.572260
    13  C   -0.322317
    14  H    1.531211
    15  C   -3.558510
    16  H    1.877487
    17  C   -3.663872
    18  H    1.415878
    19  H    1.569268
    20  H    1.207541
 Sum of Mulliken charges =  -0.00000

 Dipole moment (field-independent basis, Debye):
    X=             -3.0024    Y=             -0.4214    Z=              2.1778  Tot=              3.7329

 Test job not archived.
 1\1\GINC-SE247\SP\RHF\Aug-CC-pVDZ\C7H8Cl1N1O2S1\OHZDE\09-Apr-2025\0\\#
 t hf aug-cc-pvdz iop(5/13=1,5/36=2,99/5=2) pseudo=read geom=check gues
 s=(read,tcheck) scf=(maxcycle=1)\\title\\0,1\Cl,0,1.865452,1.725317,0.
 458349\S,0,0.812918,-0.706906,-0.723411\O,0,1.152936,-0.061911,-1.9594
 44\O,0,0.960732,-2.125717,-0.512285\N,0,1.864389,-0.037047,0.467285\C,
 0,-0.852316,-0.243765,-0.2831\C,0,-1.597268,-1.083407,0.546446\H,0,-1.
 171905,-2.017089,0.890176\C,0,-2.895851,-0.716168,0.887953\H,0,-3.4868
 06,-1.363463,1.525165\C,0,-3.437602,0.472295,0.400596\H,0,-4.45059,0.7

 Normal termination of Gaussian 16 at Wed Apr  9 00:55:12 2025.
