 Gaussian 16, Revision C.01,

 ----------------------------------------------------------------------
 #t hf aug-cc-pvdz symm=none int=(grid=ultrafine) guess=(read,tcheck) s
 table=(opt,rrhf)
 ----------------------------------------------------------------------
 -----
 title
 -----
 Symbolic Z-matrix:
 Charge =  0 Multiplicity = 1

 SCF Done:  E(RHF) =  -887.963704120     A.U. after   15 cycles
 Normal termination of Gaussian 16 at Tue Apr  8 23:09:30 2025.
 Gaussian 16:  ES64L-G16RevC.01  3-Jul-2019

 ----------------------------------------------------------------------
 #t hf aug-cc-pvdz iop(5/13=1,5/36=2,99/5=2) pseudo=read geom=check gue
 ss=(read,tcheck) scf=(maxcycle=1)
 ----------------------------------------------------------------------
 -----
 title
 -----
 Structure from the checkpoint file:  "BDE49_expt_434_mol1.chk"
 Charge =  0 Multiplicity = 1

                         Standard orientation:
 ---------------------------------------------------------------------
 Center     Atomic      Atomic             Coordinates (Angstroms)
 Number     Number       Type             X           Y           Z
 ---------------------------------------------------------------------
      1         16           0       -1.231351    0.407252   -0.371389
      2          8           0       -1.525375    1.821476   -0.314462
      3          7           0       -1.864737   -0.179619    1.085279
      4          6           0        0.518090    0.147901   -0.153091
      5          6           0        1.270548    1.129322    0.490329
      6          6           0        2.638369    0.931877    0.650200
      7          6           0        3.237408   -0.233947    0.172520
      8          6           0        2.473036   -1.204519   -0.472577
      9          6           0        1.103531   -1.017031   -0.643261
     10          1           0        2.942570   -2.105837   -0.849071
     11          1           0        0.492148   -1.749805   -1.152023
     12          1           0        0.787528    2.032030    0.841309
     13          1           0        3.237200    1.689602    1.141970
     14          1           0        4.303965   -0.382472    0.298158
     15          8           0       -1.668548   -0.407553   -1.480974
     16          7           0       -1.937807   -1.584721    1.145780
     17          1           0       -2.719671    0.343940    1.275760
     18          1           0       -1.814301   -1.878890    2.105879
     19          1           0       -2.804529   -1.947219    0.761608
 ---------------------------------------------------------------------

 SCF Done:  E(RHF) =  -890.468419420     A.U. after    2 cycles

 The electronic state is 1-A.
 Alpha  occ. eigenvalues --  -75.89468 -21.04382 -21.04282 -15.78618 -15.78100
 Alpha  occ. eigenvalues --  -13.52436 -13.42867 -13.37778 -11.53781 -11.45339
 Alpha  occ. eigenvalues --  -11.45271 -11.43208 -11.42385 -11.38471  -8.24756
 Alpha  occ. eigenvalues --   -1.83798  -1.65362  -1.49483  -1.36201  -1.17437
 Alpha  occ. eigenvalues --   -1.12015  -1.11142  -0.95885  -0.88614  -0.84156
 Alpha  occ. eigenvalues --   -0.73612  -0.71800  -0.70043  -0.66389  -0.62544
 Alpha  occ. eigenvalues --   -0.60281  -0.59893  -0.59284  -0.52232  -0.49733
 Alpha  occ. eigenvalues --   -0.47433  -0.45911  -0.43124  -0.40828  -0.39269
 Alpha  occ. eigenvalues --   -0.37095  -0.36870  -0.34980  -0.34339  -0.34237
 Alpha virt. eigenvalues --    0.03036   0.03959   0.04941   0.05091   0.05603
 Alpha virt. eigenvalues --    0.05841   0.07447   0.07707   0.08993   0.10913
 Alpha virt. eigenvalues --    0.11238   0.11398   0.12905   0.13468   0.13594

 Mulliken charges:
               1
     1  S    7.226263
     2  O   -2.985022
     3  N   -1.519902
     4  C    2.127959
     5  C   -3.761998
     6  C   -0.519672
     7  C   -2.669639
     8  C   -0.503364
     9  C   -2.989691
    10  H    1.511769
    11  H    1.878896
    12  H    1.842834
    13  H    1.502011
    14  H    1.562792
    15  O   -2.849323
    16  N   -1.783400
    17  H    0.534286
    18  H    0.755405
    19  H    0.639797
 Sum of Mulliken charges =  -0.00000

 Dipole moment (field-independent basis, Debye):
    X=              0.8584    Y=             -1.7729    Z=              2.3006  Tot=              3.0287

 Test job not archived.
 1\1\GINC-SE460\SP\RHF\Aug-CC-pVDZ\C6H8N2O2S1\OHZDE\08-Apr-2025\0\\#t h
 f aug-cc-pvdz iop(5/13=1,5/36=2,99/5=2) pseudo=read geom=check guess=(
 read,tcheck) scf=(maxcycle=1)\\title\\0,1\S,0,-1.231351,0.407252,-0.37
 1389\O,0,-1.525375,1.821476,-0.314462\N,0,-1.864737,-0.179619,1.085279
 \C,0,0.51809,0.147901,-0.153091\C,0,1.270548,1.129322,0.490329\C,0,2.6
 38369,0.931877,0.6502\C,0,3.237408,-0.233947,0.17252\C,0,2.473036,-1.2
 04519,-0.472577\C,0,1.103531,-1.017031,-0.643261\H,0,2.94257,-2.105837
 ,-0.849071\H,0,0.492148,-1.749805,-1.152023\H,0,0.787528,2.03203,0.841

 Normal termination of Gaussian 16 at Tue Apr  8 23:09:41 2025.
