 Gaussian 16, Revision C.01,

 ----------------------------------------------------------------------
 #t hf aug-cc-pvdz symm=none int=(grid=ultrafine) guess=(read,tcheck) s
 table=(opt,rrhf)
 ----------------------------------------------------------------------
 -----
 title
 -----
 Symbolic Z-matrix:
 Charge =  0 Multiplicity = 1

 SCF Done:  E(RHF) =  -632.926110839     A.U. after   12 cycles

 1\1\GINC-SE339\Stability\RHF\Aug-CC-pVDZ\C6H14S1\OHZDE\08-Apr-2025\0\\
 #t hf aug-cc-pvdz symm=none int=(grid=ultrafine) guess=(read,tcheck) s
 table=(opt,rrhf)\\title\\0,1\S,0,3.609168,-0.26209,-0.085375\C,0,2.009
 596,0.637859,0.041341\H,0,3.488257,-0.966848,1.053134\C,0,0.77045,-0.2
 55246,-0.007943\H,0,2.025175,1.321457,-0.811782\H,0,2.022638,1.250814,
 0.94499\C,0,-0.537407,0.547442,0.026881\H,0,0.793344,-0.95209,0.838197
 \H,0,0.808139,-0.869393,-0.913482\C,0,-1.790162,-0.335508,-0.013343\H,
 0,-0.558188,1.243367,-0.82149\H,0,-0.561368,1.168347,0.931515\C,0,-3.1

 Normal termination of Gaussian 16 at Tue Apr  8 22:47:19 2025.
 Gaussian 16:  ES64L-G16RevC.01  3-Jul-2019

 ----------------------------------------------------------------------
 #t hf aug-cc-pvdz iop(5/13=1,5/36=2,99/5=2) pseudo=read geom=check gue
 ss=(read,tcheck) scf=(maxcycle=1)
 ----------------------------------------------------------------------
 -----
 title
 -----
 Structure from the checkpoint file:  "BDE49_expt_1556_mol1.chk"
 Charge =  0 Multiplicity = 1

                         Standard orientation:
 ---------------------------------------------------------------------
 Center     Atomic      Atomic             Coordinates (Angstroms)
 Number     Number       Type             X           Y           Z
 ---------------------------------------------------------------------
      1         16           0        3.609168   -0.262090   -0.085375
      2          6           0        2.009596    0.637859    0.041341
      3          1           0        3.488257   -0.966848    1.053134
      4          6           0        0.770450   -0.255246   -0.007943
      5          1           0        2.025175    1.321457   -0.811782
      6          1           0        2.022638    1.250814    0.944990
      7          6           0       -0.537407    0.547442    0.026881
      8          1           0        0.793344   -0.952090    0.838197
      9          1           0        0.808139   -0.869393   -0.913482
     10          6           0       -1.790162   -0.335508   -0.013343
     11          1           0       -0.558188    1.243367   -0.821490
     12          1           0       -0.561368    1.168347    0.931515
     13          6           0       -3.101055    0.458744    0.016749
     14          1           0       -1.770238   -1.031414    0.835231
     15          1           0       -1.765485   -0.957830   -0.916984
     16          6           0       -4.347345   -0.430173   -0.023590
     17          1           0       -3.120791    1.153811   -0.831330
     18          1           0       -3.125154    1.080680    0.919766
     19          1           0       -4.369555   -1.039104   -0.932731
     20          1           0       -5.263731    0.165778   -0.001069
     21          1           0       -4.374184   -1.112851    0.831463
 ---------------------------------------------------------------------

 SCF Done:  E(RHF) =  -634.393214677     A.U. after    2 cycles

 The electronic state is 1-A.
 Alpha  occ. eigenvalues --  -75.67965 -13.12317 -13.09600 -13.01836 -11.43266
 Alpha  occ. eigenvalues --  -11.42347 -11.40731 -11.38366 -11.36556 -11.34410
 Alpha  occ. eigenvalues --   -8.01805  -1.28694  -1.19704  -1.10070  -1.00602
 Alpha  occ. eigenvalues --   -0.91038  -0.84254  -0.82435  -0.67174  -0.63030
 Alpha  occ. eigenvalues --   -0.59129  -0.57428  -0.56433  -0.53957  -0.51597
 Alpha  occ. eigenvalues --   -0.49347  -0.47093  -0.46325  -0.45428  -0.44902
 Alpha  occ. eigenvalues --   -0.43607  -0.35382  -0.23143
 Alpha virt. eigenvalues --    0.03916   0.04526   0.04633   0.05049   0.05658
 Alpha virt. eigenvalues --    0.05775   0.05902   0.06226   0.06948   0.08099
 Alpha virt. eigenvalues --    0.08320   0.09003   0.09379   0.10239   0.11755

 Mulliken charges:
               1
     1  S   -0.667190
     2  C   -4.721428
     3  H    0.973873
     4  C   -3.024632
     5  H    1.481767
     6  H    1.447247
     7  C   -2.158687
     8  H    1.577025
     9  H    1.596193
    10  C   -1.839167
    11  H    1.543788
    12  H    1.530908
    13  C   -3.074181
    14  H    1.577500
    15  H    1.562857
    16  C   -4.451990
    17  H    1.449596
    18  H    1.455898
    19  H    1.328972
    20  H    1.086843
    21  H    1.324809
 Sum of Mulliken charges =   0.00000

 Dipole moment (field-independent basis, Debye):
    X=             -0.4453    Y=              0.6566    Z=             -0.7496  Tot=              1.0915

 Test job not archived.
 1\1\GINC-SE339\SP\RHF\Aug-CC-pVDZ\C6H14S1\OHZDE\08-Apr-2025\0\\#t hf a
 ug-cc-pvdz iop(5/13=1,5/36=2,99/5=2) pseudo=read geom=check guess=(rea
 d,tcheck) scf=(maxcycle=1)\\title\\0,1\S,0,3.609168,-0.26209,-0.085375
 \C,0,2.009596,0.637859,0.041341\H,0,3.488257,-0.966848,1.053134\C,0,0.
 77045,-0.255246,-0.007943\H,0,2.025175,1.321457,-0.811782\H,0,2.022638
 ,1.250814,0.94499\C,0,-0.537407,0.547442,0.026881\H,0,0.793344,-0.9520
 9,0.838197\H,0,0.808139,-0.869393,-0.913482\C,0,-1.790162,-0.335508,-0
 .013343\H,0,-0.558188,1.243367,-0.82149\H,0,-0.561368,1.168347,0.93151

 Normal termination of Gaussian 16 at Tue Apr  8 22:47:27 2025.
