 Gaussian 16, Revision C.01,

 ----------------------------------------------------------------------
 #t hf aug-cc-pvdz symm=none int=(grid=ultrafine) guess=(read,tcheck) s
 table=(opt,rrhf)
 ----------------------------------------------------------------------
 -----
 title
 -----
 Symbolic Z-matrix:
 Charge =  0 Multiplicity = 1

 SCF Done:  E(RHF) =  -1423.33130702     A.U. after   15 cycles
 Normal termination of Gaussian 16 at Tue Apr  8 23:01:39 2025.
 Gaussian 16:  ES64L-G16RevC.01  3-Jul-2019

 ----------------------------------------------------------------------
 #t hf aug-cc-pvdz iop(5/13=1,5/36=2,99/5=2) pseudo=read geom=check gue
 ss=(read,tcheck) scf=(maxcycle=1)
 ----------------------------------------------------------------------
 -----
 title
 -----
 Structure from the checkpoint file:  "BDE49_expt_1965_mol1.chk"
 Charge =  0 Multiplicity = 1

                         Standard orientation:
 ---------------------------------------------------------------------
 Center     Atomic      Atomic             Coordinates (Angstroms)
 Number     Number       Type             X           Y           Z
 ---------------------------------------------------------------------
      1         16           0        0.648294   -1.090097    1.008199
      2         16           0        2.024220   -0.701595   -0.528097
      3         16           0        2.732617    1.259459   -0.290997
      4          1           0        1.798960    1.881922   -1.037694
      5          6           0       -0.885954   -0.396347    0.398415
      6          6           0       -1.333309    0.824033    0.914801
      7          6           0       -2.547221    1.355836    0.484092
      8          6           0       -3.312158    0.675731   -0.460752
      9          6           0       -2.866592   -0.542542   -0.974201
     10          6           0       -1.658985   -1.082864   -0.544193
     11          1           0       -1.311296   -2.032450   -0.932224
     12          1           0       -4.256148    1.091113   -0.794652
     13          1           0       -3.463956   -1.075400   -1.705235
     14          1           0       -0.731590    1.346112    1.648785
     15          1           0       -2.892753    2.301348    0.886356
 ---------------------------------------------------------------------

 SCF Done:  E(RHF) =  -1425.11314963     A.U. after    2 cycles

 The electronic state is 1-A.
 Alpha  occ. eigenvalues --  -75.73488 -75.72108 -75.71803 -13.20244 -13.15466
 Alpha  occ. eigenvalues --  -13.14077 -13.10945 -13.10404 -13.08841 -13.06680
 Alpha  occ. eigenvalues --  -13.06214 -13.03923 -11.52630 -11.44901 -11.44427
 Alpha  occ. eigenvalues --  -11.42590 -11.41820 -11.37825  -8.07128  -8.05898
 Alpha  occ. eigenvalues --   -8.05610  -1.37202  -1.24744  -1.15196  -1.10527
 Alpha  occ. eigenvalues --   -1.05902  -0.94537  -0.87836  -0.84016  -0.71963
 Alpha  occ. eigenvalues --   -0.65100  -0.59684  -0.58722  -0.55394  -0.53594
 Alpha  occ. eigenvalues --   -0.51993  -0.46564  -0.44098  -0.41725  -0.39131
 Alpha  occ. eigenvalues --   -0.34325  -0.33612  -0.27640  -0.24316  -0.23599
 Alpha virt. eigenvalues --    0.02407   0.03480   0.04641   0.04945   0.05428
 Alpha virt. eigenvalues --    0.05833   0.06723   0.08002   0.09209   0.10073
 Alpha virt. eigenvalues --    0.10804   0.11931   0.12685   0.12756   0.13544

 Mulliken charges:
               1
     1  S   -0.429090
     2  S   -0.214983
     3  S   -1.208957
     4  H    1.218378
     5  C    4.289653
     6  C   -4.161864
     7  C   -0.844969
     8  C   -2.367622
     9  C   -0.703966
    10  C   -3.791733
    11  H    1.771826
    12  H    1.520139
    13  H    1.544711
    14  H    1.820232
    15  H    1.558243
 Sum of Mulliken charges =   0.00000

 Dipole moment (field-independent basis, Debye):
    X=             -0.0294    Y=             -0.4582    Z=              0.4424  Tot=              0.6376

 Test job not archived.
 1\1\GINC-SE069\SP\RHF\Aug-CC-pVDZ\C6H6S3\OHZDE\08-Apr-2025\0\\#t hf au
 g-cc-pvdz iop(5/13=1,5/36=2,99/5=2) pseudo=read geom=check guess=(read
 ,tcheck) scf=(maxcycle=1)\\title\\0,1\S,0,0.648294,-1.090097,1.008199\
 S,0,2.02422,-0.701595,-0.528097\S,0,2.732617,1.259459,-0.290997\H,0,1.
 79896,1.881922,-1.037694\C,0,-0.885954,-0.396347,0.398415\C,0,-1.33330
 9,0.824033,0.914801\C,0,-2.547221,1.355836,0.484092\C,0,-3.312158,0.67
 5731,-0.460752\C,0,-2.866592,-0.542542,-0.974201\C,0,-1.658985,-1.0828
 64,-0.544193\H,0,-1.311296,-2.03245,-0.932224\H,0,-4.256148,1.091113,-

 Normal termination of Gaussian 16 at Tue Apr  8 23:01:46 2025.
