 Gaussian 16, Revision C.01,

 ----------------------------------------------------------------------
 #t hf aug-cc-pvdz symm=none int=(grid=ultrafine) guess=(read,tcheck) s
 table=(opt,rrhf)
 ----------------------------------------------------------------------
 -----
 title
 -----
 Symbolic Z-matrix:
 Charge =  0 Multiplicity = 1

 SCF Done:  E(RHF) =  -687.466793138     A.U. after   17 cycles
 Normal termination of Gaussian 16 at Wed Apr  9 00:07:00 2025.
 Gaussian 16:  ES64L-G16RevC.01  3-Jul-2019

 ----------------------------------------------------------------------
 #t hf aug-cc-pvdz iop(5/13=1,5/36=2,99/5=2) pseudo=read geom=check gue
 ss=(read,tcheck) scf=(maxcycle=1)
 ----------------------------------------------------------------------
 -----
 title
 -----
 Structure from the checkpoint file:  "BDE49_nonexpt_2204_mol1.chk"
 Charge =  0 Multiplicity = 1

                         Standard orientation:
 ---------------------------------------------------------------------
 Center     Atomic      Atomic             Coordinates (Angstroms)
 Number     Number       Type             X           Y           Z
 ---------------------------------------------------------------------
      1          6           0        2.513747   -1.230757    0.000185
      2          6           0        2.307762    0.142391    0.000203
      3          6           0        1.008611    0.667881   -0.000029
      4          6           0        1.415899   -2.089311   -0.000024
      5          6           0        0.118902   -1.584750   -0.000261
      6          6           0       -0.097931   -0.205862   -0.000305
      7          1           0        1.566064   -3.162740   -0.000039
      8          1           0       -0.726816   -2.262783   -0.000449
      9          8           0       -1.330603    0.351722   -0.000430
     10         14           0       -2.861097   -0.314439    0.000249
     11          1           0        3.520961   -1.628164    0.000388
     12          6           0        0.801975    2.080873   -0.000011
     13          7           0        0.665023    3.227773    0.000007
     14          1           0        3.146501    0.827386    0.000387
     15          1           0       -3.773194    0.838797   -0.000328
     16          1           0       -3.050992   -1.150052    1.206306
     17          1           0       -3.051290   -1.151282   -1.204919
 ---------------------------------------------------------------------

 SCF Done:  E(RHF) =  -689.422588250     A.U. after    2 cycles

 The electronic state is 1-A.
 Alpha  occ. eigenvalues --  -76.26174 -21.09036 -15.75456 -11.56873 -11.50010
 Alpha  occ. eigenvalues --  -11.47618 -11.45343 -11.43510 -11.43276 -11.39574
 Alpha  occ. eigenvalues --   -5.59636  -2.26233  -2.21689  -2.21180  -1.76869
 Alpha  occ. eigenvalues --   -1.36816  -1.28478  -1.13941  -1.10336  -0.92732
 Alpha  occ. eigenvalues --   -0.89731  -0.78338  -0.76445  -0.68886  -0.64234
 Alpha  occ. eigenvalues --   -0.62899  -0.59740  -0.58949  -0.53498  -0.51569
 Alpha  occ. eigenvalues --   -0.50707  -0.49287  -0.48669  -0.46789  -0.44686
 Alpha  occ. eigenvalues --   -0.42609  -0.39669  -0.34743  -0.30507
 Alpha virt. eigenvalues --    0.02754   0.04037   0.04618   0.05410   0.06177
 Alpha virt. eigenvalues --    0.06194   0.07035   0.08302   0.08556   0.08562
 Alpha virt. eigenvalues --    0.10235   0.10663   0.10951   0.11195   0.12376

 Mulliken charges:
               1
     1  C   -1.908777
     2  C   -1.366360
     3  C    3.289257
     4  C   -1.833618
     5  C   -3.999068
     6  C    5.805102
     7  H    1.503830
     8  H    2.001432
     9  O   -5.125254
    10  Si   6.293591
    11  H    1.549977
    12  C   -0.510228
    13  N   -2.255362
    14  H    1.761749
    15  H   -1.823391
    16  H   -1.691606
    17  H   -1.691277
 Sum of Mulliken charges =  -0.00000

 Dipole moment (field-independent basis, Debye):
    X=              0.0904    Y=             -4.0118    Z=              0.0004  Tot=              4.0128

 Test job not archived.
 1\1\GINC-SE128\SP\RHF\Aug-CC-pVDZ\C7H7N1O1Si1\OHZDE\09-Apr-2025\0\\#t
 hf aug-cc-pvdz iop(5/13=1,5/36=2,99/5=2) pseudo=read geom=check guess=
 (read,tcheck) scf=(maxcycle=1)\\title\\0,1\C,0,2.513747,-1.230757,0.00
 0185\C,0,2.307762,0.142391,0.000203\C,0,1.008611,0.667881,-0.000029\C,
 0,1.415899,-2.089311,-0.000024\C,0,0.118902,-1.58475,-0.000261\C,0,-0.
 097931,-0.205862,-0.000305\H,0,1.566064,-3.16274,-0.000039\H,0,-0.7268
 16,-2.262783,-0.000449\O,0,-1.330603,0.351722,-0.00043\Si,0,-2.861097,
 -0.314439,0.000249\H,0,3.520961,-1.628164,0.000388\C,0,0.801975,2.0808

 Normal termination of Gaussian 16 at Wed Apr  9 00:07:10 2025.
