 Gaussian 16, Revision C.01,

 ----------------------------------------------------------------------
 #t hf aug-cc-pvdz symm=none int=(grid=ultrafine) guess=(read,tcheck) s
 table=(opt,rrhf)
 ----------------------------------------------------------------------
 -----
 title
 -----
 Symbolic Z-matrix:
 Charge =  0 Multiplicity = 1

 SCF Done:  E(RHF) =  -744.688557068     A.U. after   14 cycles
 Normal termination of Gaussian 16 at Tue Apr  8 22:52:09 2025.
 Gaussian 16:  ES64L-G16RevC.01  3-Jul-2019

 ----------------------------------------------------------------------
 #t hf aug-cc-pvdz iop(5/13=1,5/36=2,99/5=2) pseudo=read geom=check gue
 ss=(read,tcheck) scf=(maxcycle=1)
 ----------------------------------------------------------------------
 -----
 title
 -----
 Structure from the checkpoint file:  "BDE49_expt_1728_mol1.chk"
 Charge =  0 Multiplicity = 1

                         Standard orientation:
 ---------------------------------------------------------------------
 Center     Atomic      Atomic             Coordinates (Angstroms)
 Number     Number       Type             X           Y           Z
 ---------------------------------------------------------------------
      1          6           0        2.004844   -1.139734   -0.172619
      2          6           0        0.674016   -1.193821    0.232026
      3          7           0        2.673022   -0.000008   -0.374135
      4          6           0        2.004853    1.139726   -0.172630
      5          6           0        0.674026    1.193827    0.232014
      6          6           0       -0.016952    0.000007    0.443087
      7          1           0        2.562769   -2.056718   -0.340134
      8          1           0        0.186525   -2.151483    0.376827
      9          1           0        2.562785    2.056703   -0.340153
     10          1           0        0.186542    2.151494    0.376807
     11          6           0       -1.447894    0.000015    0.888667
     12         17           0       -2.598634   -0.000006   -0.534329
     13          1           0       -1.695177    0.890007    1.462945
     14          1           0       -1.695179   -0.889960    1.462972
 ---------------------------------------------------------------------

 SCF Done:  E(RHF) =  -746.285347788     A.U. after    2 cycles

 The electronic state is 1-A.
 Alpha  occ. eigenvalues --  -99.88647 -15.74556 -11.49924 -11.46518 -11.45694
 Alpha  occ. eigenvalues --  -11.44933 -11.42767 -11.38785 -10.45831  -9.65781
 Alpha  occ. eigenvalues --   -9.65070  -9.64996  -1.46105  -1.33605  -1.21020
 Alpha  occ. eigenvalues --   -1.12253  -1.02760  -0.90235  -0.86535  -0.72203
 Alpha  occ. eigenvalues --   -0.67345  -0.66726  -0.62323  -0.60128  -0.58525
 Alpha  occ. eigenvalues --   -0.56901  -0.53894  -0.49223  -0.47885  -0.46862
 Alpha  occ. eigenvalues --   -0.37277  -0.36699  -0.34903
 Alpha virt. eigenvalues --    0.02843   0.04621   0.05034   0.05904   0.06157
 Alpha virt. eigenvalues --    0.06513   0.07759   0.09435   0.09729   0.10448
 Alpha virt. eigenvalues --    0.10931   0.11959   0.12183   0.12314   0.13558

 Mulliken charges:
               1
     1  C   -1.063342
     2  C   -2.254959
     3  N   -3.838225
     4  C   -1.063350
     5  C   -2.254952
     6  C    6.006613
     7  H    1.513022
     8  H    1.591906
     9  H    1.513022
    10  H    1.591907
    11  C   -4.761858
    12  Cl   0.179983
    13  H    1.420121
    14  H    1.420113
 Sum of Mulliken charges =   0.00000

 Dipole moment (field-independent basis, Debye):
    X=              0.0605    Y=              0.0000    Z=              2.0181  Tot=              2.0190

 Test job not archived.
 1\1\GINC-SE070\SP\RHF\Aug-CC-pVDZ\C6H6Cl1N1\OHZDE\08-Apr-2025\0\\#t hf
  aug-cc-pvdz iop(5/13=1,5/36=2,99/5=2) pseudo=read geom=check guess=(r
 ead,tcheck) scf=(maxcycle=1)\\title\\0,1\C,0,2.004844,-1.139734,-0.172
 619\C,0,0.674016,-1.193821,0.232026\N,0,2.673022,-0.000008,-0.374135\C
 ,0,2.004853,1.139726,-0.17263\C,0,0.674026,1.193827,0.232014\C,0,-0.01
 6952,0.000007,0.443087\H,0,2.562769,-2.056718,-0.340134\H,0,0.186525,-
 2.151483,0.376827\H,0,2.562785,2.056703,-0.340153\H,0,0.186542,2.15149
 4,0.376807\C,0,-1.447894,0.000015,0.888667\Cl,0,-2.598634,-0.000006,-0

 Normal termination of Gaussian 16 at Tue Apr  8 22:52:14 2025.
