 Gaussian 16, Revision C.01,

 ----------------------------------------------------------------------
 #t hf aug-cc-pvdz symm=none int=(grid=ultrafine) guess=(read,tcheck) s
 table=opt
 ----------------------------------------------------------------------
 -----
 title
 -----
 Symbolic Z-matrix:
 Charge =  0 Multiplicity = 2

 SCF Done:  E(UHF) =  -974.038555915     A.U. after   22 cycles
 Normal termination of Gaussian 16 at Tue Apr  8 23:56:22 2025.
 Gaussian 16:  ES64L-G16RevC.01  3-Jul-2019

 ----------------------------------------------------------------------
 #t hf aug-cc-pvdz iop(5/13=1,5/36=2,99/5=2) pseudo=read geom=check gue
 ss=(read,tcheck) scf=(maxcycle=1)
 ----------------------------------------------------------------------
 -----
 title
 -----
 Structure from the checkpoint file:  "BDE49_nonexpt_199_mol2.chk"
 Charge =  0 Multiplicity = 2

                         Standard orientation:
 ---------------------------------------------------------------------
 Center     Atomic      Atomic             Coordinates (Angstroms)
 Number     Number       Type             X           Y           Z
 ---------------------------------------------------------------------
      1         17           0        1.902412    0.443832   -0.000001
      2          5           0        0.869060   -0.923497    0.000005
      3          6           0       -1.485398    0.531599   -0.000004
      4          7           0       -1.894244    1.614019    0.000003
      5         16           0       -0.907138   -1.088461   -0.000000
 ---------------------------------------------------------------------

 SCF Done:  E(UHF) =  -974.975185116     A.U. after    2 cycles

 The electronic state is 2-A.
 Alpha  occ. eigenvalues --  -99.93634 -75.77170 -15.78807 -13.23976 -13.18316
 Alpha  occ. eigenvalues --  -13.10511 -11.45991 -10.50893  -9.70801  -9.70364
 Alpha  occ. eigenvalues --   -9.70134  -8.11358  -7.73987  -1.39864  -1.33904
 Alpha  occ. eigenvalues --   -1.21384  -0.82046  -0.70484  -0.61224  -0.58592
 Alpha  occ. eigenvalues --   -0.55402  -0.51104  -0.50987  -0.43628  -0.35236
 Alpha  occ. eigenvalues --   -0.33428
 Alpha virt. eigenvalues --    0.02759   0.03263   0.03546   0.03675   0.04748
 Alpha virt. eigenvalues --    0.10027   0.10664   0.11692   0.12295   0.13424
 Alpha virt. eigenvalues --    0.14626   0.15061   0.15318   0.16289   0.16818

  Beta  occ. eigenvalues --  -99.93565 -75.77155 -15.78924 -13.24112 -13.18220
  Beta  occ. eigenvalues --  -13.10605 -11.45697 -10.50814  -9.70749  -9.70156
  Beta  occ. eigenvalues --   -9.70053  -8.11292  -7.71881  -1.38865  -1.33708
  Beta  occ. eigenvalues --   -1.20700  -0.77752  -0.69284  -0.58929  -0.58456
  Beta  occ. eigenvalues --   -0.53948  -0.51033  -0.50568  -0.40910  -0.33112
  Beta virt. eigenvalues --   -0.00635   0.03240   0.03557   0.03697   0.05914
  Beta virt. eigenvalues --    0.06802   0.10569   0.10856   0.11751   0.12556
  Beta virt. eigenvalues --    0.13437   0.14965   0.15346   0.16159   0.16763

 Mulliken charges and spin densities:
               1          2
     1  Cl  -0.637425   0.018357
     2  B    1.564490   0.976375
     3  C    0.446161   0.247219
     4  N   -1.909754  -0.071011
     5  S    0.536528  -0.170941
 Sum of Mulliken charges =  -0.00000   1.00000

 Dipole moment (field-independent basis, Debye):
    X=             -0.6312    Y=             -3.6148    Z=             -0.0000  Tot=              3.6695
                          Isotropic Fermi Contact Couplings
        Atom                 a.u.       MegaHertz       Gauss      10(-4) cm-1
     1  Cl(35)             0.08111      35.56369      12.69001      11.86277
     2  B(11)              0.22992     329.79186     117.67794     110.00672
     3  C(13)              0.04411      49.59010      17.69498      16.54148
     4  N(14)             -0.00104      -0.33694      -0.12023      -0.11239
     5  S(33)              0.48992     168.27447      60.04452      56.13032
 --------------------------------------------------------
       Center         ----  Spin Dipole Couplings  ----
                      3XX-RR        3YY-RR        3ZZ-RR

 1\1\GINC-SE343\SP\UHF\Aug-CC-pVDZ\C1B1Cl1N1S1(2)\OHZDE\08-Apr-2025\0\\
 #t hf aug-cc-pvdz iop(5/13=1,5/36=2,99/5=2) pseudo=read geom=check gue
 ss=(read,tcheck) scf=(maxcycle=1)\\title\\0,2\Cl,0,-1.902412,0.443831,
 0.000001\B,0,-0.86906,-0.923497,-0.000005\C,0,1.485398,0.531599,0.0000
 04\N,0,1.894244,1.614019,-0.000003\S,0,0.907138,-1.088461,0.\\Version=
 ES64L-G16RevC.01\State=2-A\HF=-974.9751851\S2=0.760724\S2-1=0.\S2A=0.7
 50089\RMSD=9.361e-02\Dipole=0.2483327,-1.4221651,0.0000011\Quadrupole=
 -0.5802116,0.5595117,0.0206999,-5.5406594,0.0000025,0.000004\PG=C01 [X

 Normal termination of Gaussian 16 at Tue Apr  8 23:56:24 2025.
