 Gaussian 16, Revision C.01,

 ----------------------------------------------------------------------
 #t hf aug-cc-pvdz symm=none int=(grid=ultrafine) guess=(read,tcheck) s
 table=(opt,rrhf)
 ----------------------------------------------------------------------
 -----
 title
 -----
 Symbolic Z-matrix:
 Charge =  0 Multiplicity = 1

 SCF Done:  E(RHF) =  -877.273292224     A.U. after   16 cycles
 Normal termination of Gaussian 16 at Tue Apr  8 22:52:36 2025.
 Gaussian 16:  ES64L-G16RevC.01  3-Jul-2019

 ----------------------------------------------------------------------
 #t hf aug-cc-pvdz iop(5/13=1,5/36=2,99/5=2) pseudo=read geom=check gue
 ss=(read,tcheck) scf=(maxcycle=1)
 ----------------------------------------------------------------------
 -----
 title
 -----
 Structure from the checkpoint file:  "BDE49_expt_1720_mol1.chk"
 Charge =  0 Multiplicity = 1

                         Standard orientation:
 ---------------------------------------------------------------------
 Center     Atomic      Atomic             Coordinates (Angstroms)
 Number     Number       Type             X           Y           Z
 ---------------------------------------------------------------------
      1          6           0        3.367264    0.104375    0.039889
      2          6           0        2.547214    1.191269   -0.253606
      3          6           0        1.164780    1.037865   -0.345456
      4          6           0        2.803945   -1.154003    0.242423
      5          6           0        1.425464   -1.324903    0.155846
      6          6           0        0.627342   -0.225408   -0.132100
      7          1           0        4.440408    0.237131    0.108883
      8          1           0        2.980317    2.171535   -0.414308
      9          1           0        0.528124    1.882369   -0.564263
     10          1           0        3.434590   -2.005750    0.468236
     11          1           0        0.960722   -2.291548    0.303327
     12          8           0       -0.747962   -0.515589   -0.273040
     13          6           0       -1.675549    0.332619    0.174504
     14          8           0       -1.545661    1.386513    0.698374
     15         17           0       -3.268113   -0.396001   -0.152562
 ---------------------------------------------------------------------

 SCF Done:  E(RHF) =  -879.374696077     A.U. after    2 cycles

 The electronic state is 1-A.
 Alpha  occ. eigenvalues --  -99.91737 -21.14277 -21.09711 -11.58675 -11.55277
 Alpha  occ. eigenvalues --  -11.47622 -11.44601 -11.42797 -11.42241 -11.38476
 Alpha  occ. eigenvalues --  -10.49082  -9.68976  -9.68170  -9.68063  -1.89378
 Alpha  occ. eigenvalues --   -1.72478  -1.35335  -1.32486  -1.11475  -1.10163
 Alpha  occ. eigenvalues --   -0.91484  -0.89217  -0.81852  -0.72460  -0.70695
 Alpha  occ. eigenvalues --   -0.66455  -0.64883  -0.61587  -0.60301  -0.58761
 Alpha  occ. eigenvalues --   -0.54927  -0.53596  -0.50502  -0.49776  -0.47518
 Alpha  occ. eigenvalues --   -0.44820  -0.39896  -0.35867  -0.34027  -0.31503
 Alpha virt. eigenvalues --    0.03120   0.04852   0.04919   0.06228   0.06542
 Alpha virt. eigenvalues --    0.06924   0.08683   0.09781   0.09953   0.10524
 Alpha virt. eigenvalues --    0.11374   0.11705   0.12632   0.12952   0.13376

 Mulliken charges:
               1
     1  C   -2.407848
     2  C   -0.664542
     3  C   -3.809400
     4  C   -0.262511
     5  C   -3.448294
     6  C    5.825799
     7  H    1.541479
     8  H    1.458646
     9  H    1.790934
    10  H    1.472966
    11  H    1.770797
    12  O   -4.005507
    13  C    2.903738
    14  O   -2.234626
    15  Cl   0.068370
 Sum of Mulliken charges =  -0.00000

 Dipole moment (field-independent basis, Debye):
    X=              3.4696    Y=              0.1305    Z=              0.0311  Tot=              3.4722

 Test job not archived.
 1\1\GINC-SE227\SP\RHF\Aug-CC-pVDZ\C7H5Cl1O2\OHZDE\08-Apr-2025\0\\#t hf
  aug-cc-pvdz iop(5/13=1,5/36=2,99/5=2) pseudo=read geom=check guess=(r
 ead,tcheck) scf=(maxcycle=1)\\title\\0,1\C,0,3.367264,0.104375,0.03988
 9\C,0,2.547214,1.191269,-0.253606\C,0,1.16478,1.037865,-0.345456\C,0,2
 .803945,-1.154003,0.242423\C,0,1.425464,-1.324903,0.155846\C,0,0.62734
 2,-0.225408,-0.1321\H,0,4.440408,0.237131,0.108883\H,0,2.980317,2.1715
 35,-0.414308\H,0,0.528124,1.882369,-0.564263\H,0,3.43459,-2.00575,0.46
 8236\H,0,0.960722,-2.291548,0.303327\O,0,-0.747962,-0.515589,-0.27304\

 Normal termination of Gaussian 16 at Tue Apr  8 22:52:43 2025.
