 Gaussian 16, Revision C.01,

 ----------------------------------------------------------------------
 #t hf aug-cc-pvdz symm=none int=(grid=ultrafine) guess=(read,tcheck) s
 table=opt
 ----------------------------------------------------------------------
 -----
 title
 -----
 Symbolic Z-matrix:
 Charge =  0 Multiplicity = 2

 SCF Done:  E(UHF) =  -484.652180958     A.U. after   15 cycles
 Normal termination of Gaussian 16 at Wed Apr  9 00:47:22 2025.
 Gaussian 16:  ES64L-G16RevC.01  3-Jul-2019

 ----------------------------------------------------------------------
 #t hf aug-cc-pvdz iop(5/13=1,5/36=2,99/5=2) pseudo=read geom=check gue
 ss=(read,tcheck) scf=(maxcycle=1)
 ----------------------------------------------------------------------
 -----
 title
 -----
 Structure from the checkpoint file:  "BDE49_nonexpt_806_mol2.chk"
 Charge =  0 Multiplicity = 2

                         Standard orientation:
 ---------------------------------------------------------------------
 Center     Atomic      Atomic             Coordinates (Angstroms)
 Number     Number       Type             X           Y           Z
 ---------------------------------------------------------------------
      1          6           0       -0.381092    0.000001    0.766932
      2          6           0        0.568057    1.204863    0.571831
      3          6           0        0.568057   -1.204862    0.571832
      4          6           0        1.520070   -0.778413   -0.570049
      5          1           0        0.050897   -2.144539    0.359313
      6          1           0        1.137456   -1.358868    1.495651
      7          6           0        1.520073    0.778411   -0.570048
      8          1           0        1.156368   -1.156353   -1.529097
      9          1           0        2.521290   -1.191503   -0.429120
     10          1           0        2.521293    1.191498   -0.429116
     11          1           0        1.156374    1.156353   -1.529098
     12          1           0        1.137455    1.358871    1.495650
     13          1           0        0.050898    2.144539    0.359309
     14         14           0       -1.875619   -0.000000   -0.412273
     15          1           0       -0.816666    0.000002    1.775008
     16          1           0       -2.713843    1.213963   -0.209829
     17          1           0       -2.713844   -1.213962   -0.209827
 ---------------------------------------------------------------------

 SCF Done:  E(UHF) =  -485.799953250     A.U. after    2 cycles

 The electronic state is 2-A.
 Alpha  occ. eigenvalues --  -76.21439 -11.46000 -11.42066 -11.37827 -11.36701
 Alpha  occ. eigenvalues --  -11.33609  -5.54827  -2.18889  -2.17239  -2.16503
 Alpha  occ. eigenvalues --   -1.31551  -1.03897  -1.03757  -0.82880  -0.81340
 Alpha  occ. eigenvalues --   -0.72484  -0.66862  -0.64696  -0.58282  -0.54442
 Alpha  occ. eigenvalues --   -0.47677  -0.46643  -0.46368  -0.43615  -0.43499
 Alpha  occ. eigenvalues --   -0.42507  -0.38028  -0.26326
 Alpha virt. eigenvalues --    0.03912   0.05378   0.05574   0.05637   0.05763
 Alpha virt. eigenvalues --    0.05920   0.06149   0.06565   0.06821   0.08831
 Alpha virt. eigenvalues --    0.09430   0.09744   0.09853   0.11462   0.13068

  Beta  occ. eigenvalues --  -76.20904 -11.45998 -11.42041 -11.37827 -11.36673
  Beta  occ. eigenvalues --  -11.33596  -5.53993  -2.18217  -2.16619  -2.13051
  Beta  occ. eigenvalues --   -1.31446  -1.03895  -1.03478  -0.81896  -0.81317
  Beta  occ. eigenvalues --   -0.69400  -0.66550  -0.64013  -0.58242  -0.54137
  Beta  occ. eigenvalues --   -0.47078  -0.46363  -0.46209  -0.43581  -0.43452
  Beta  occ. eigenvalues --   -0.42363  -0.36925
  Beta virt. eigenvalues --    0.03311   0.04691   0.05609   0.05617   0.05770
  Beta virt. eigenvalues --    0.05781   0.06066   0.06534   0.06605   0.07995
  Beta virt. eigenvalues --    0.08974   0.09449   0.09992   0.10693   0.11824

 Mulliken charges and spin densities:
               1          2
     1  C   -1.583027  -0.268061
     2  C   -2.972604   0.081815
     3  C   -2.972601   0.081815
     4  C   -2.628009  -0.003912
     5  H    1.322950  -0.014478
     6  H    1.327184   0.005851
     7  C   -2.628007  -0.003913
     8  H    1.387273  -0.001808
     9  H    1.332409   0.001419
    10  H    1.332411   0.001419
    11  H    1.387271  -0.001808
    12  H    1.327183   0.005851
    13  H    1.322952  -0.014478
    14  Si   3.491452   1.206293
    15  H    1.665294  -0.039194
    16  H   -1.556066  -0.018405
    17  H   -1.556066  -0.018405
 Sum of Mulliken charges =   0.00000   1.00000

 Dipole moment (field-independent basis, Debye):
    X=              1.1228    Y=             -0.0000    Z=              0.4227  Tot=              1.1998
                          Isotropic Fermi Contact Couplings
        Atom                 a.u.       MegaHertz       Gauss      10(-4) cm-1
     1  C(13)              0.01297      14.57929       5.20225       4.86313
     2  C(13)              0.00006       0.06556       0.02339       0.02187
     3  C(13)              0.00006       0.06556       0.02339       0.02187
     4  C(13)              0.00012       0.13509       0.04820       0.04506
     5  H(1)              -0.00005      -0.20571      -0.07340      -0.06862
     6  H(1)              -0.00010      -0.43771      -0.15618      -0.14600
     7  C(13)              0.00012       0.13507       0.04820       0.04505
     8  H(1)               0.00017       0.76895       0.27438       0.25650

 Normal termination of Gaussian 16 at Wed Apr  9 00:47:29 2025.
