 Gaussian 16, Revision C.01,

 ----------------------------------------------------------------------
 #t hf aug-cc-pvdz symm=none int=(grid=ultrafine) guess=(read,tcheck) s
 table=opt
 ----------------------------------------------------------------------
 -----
 title
 -----
 Symbolic Z-matrix:
 Charge =  0 Multiplicity = 2

 SCF Done:  E(UHF) =  -246.399158928     A.U. after   19 cycles
 Normal termination of Gaussian 16 at Tue Apr  8 23:04:54 2025.
 Gaussian 16:  ES64L-G16RevC.01  3-Jul-2019

 ----------------------------------------------------------------------
 #t hf aug-cc-pvdz iop(5/13=1,5/36=2,99/5=2) pseudo=read geom=check gue
 ss=(read,tcheck) scf=(maxcycle=1)
 ----------------------------------------------------------------------
 -----
 title
 -----
 Structure from the checkpoint file:  "BDE49_expt_359_mol2.chk"
 Charge =  0 Multiplicity = 2

                         Standard orientation:
 ---------------------------------------------------------------------
 Center     Atomic      Atomic             Coordinates (Angstroms)
 Number     Number       Type             X           Y           Z
 ---------------------------------------------------------------------
      1          7           0        0.411325   -0.078313    0.000004
      2          6           0       -0.855574   -0.628557    0.000013
      3          8           0       -1.890203    0.006536   -0.000013
      4          6           0        0.544906    1.378253    0.000000
      5          1           0       -0.454928    1.805493   -0.000027
      6          1           0        1.086796    1.704707   -0.890940
      7          1           0        1.086750    1.704718    0.890964
      8          6           0        1.544679   -0.861954    0.000002
      9          1           0        1.434589   -1.934697    0.000005
     10          1           0        2.506997   -0.379434   -0.000005
     11          1           0       -0.821929   -1.731337   -0.000013
 ---------------------------------------------------------------------

 SCF Done:  E(UHF) =  -247.504894554     A.U. after    2 cycles

 The electronic state is 2-A.
 Alpha  occ. eigenvalues --  -21.04145 -15.77529 -11.48485 -11.41006 -11.40085
 Alpha  occ. eigenvalues --   -1.71381  -1.45212  -1.06246  -0.99187  -0.80356
 Alpha  occ. eigenvalues --   -0.69622  -0.64497  -0.64233  -0.55617  -0.54498
 Alpha  occ. eigenvalues --   -0.51963  -0.49954  -0.42148  -0.30501  -0.23526
 Alpha virt. eigenvalues --    0.03146   0.05096   0.05303   0.06152   0.06834
 Alpha virt. eigenvalues --    0.08015   0.10388   0.10443   0.12981   0.13721
 Alpha virt. eigenvalues --    0.13972   0.14877   0.15823   0.16642   0.17032

  Beta  occ. eigenvalues --  -21.03602 -15.77401 -11.48582 -11.40330 -11.38691
  Beta  occ. eigenvalues --   -1.70407  -1.43726  -1.04894  -0.94531  -0.79749
  Beta  occ. eigenvalues --   -0.68787  -0.63257  -0.62758  -0.55512  -0.54052
  Beta  occ. eigenvalues --   -0.50019  -0.49489  -0.34017  -0.30038
  Beta virt. eigenvalues --    0.03272   0.05124   0.05364   0.05930   0.06840
  Beta virt. eigenvalues --    0.08032   0.09025   0.10516   0.11696   0.13061
  Beta virt. eigenvalues --    0.14037   0.14951   0.15770   0.15921   0.16716

 Mulliken charges and spin densities:
               1          2
     1  N   -2.610515  -0.043846
     2  C    2.012762  -0.086951
     3  O   -2.715620   0.161846
     4  C   -3.434338  -0.004269
     5  H    1.357755   0.001625
     6  H    1.351359  -0.001222
     7  H    1.351361  -0.001221
     8  C   -1.986748   1.165644
     9  H    1.562999  -0.097494
    10  H    1.491208  -0.092315
    11  H    1.619776  -0.001797
 Sum of Mulliken charges =  -0.00000   1.00000

 Dipole moment (field-independent basis, Debye):
    X=              1.8555    Y=              0.2272    Z=             -0.0000  Tot=              1.8694
                          Isotropic Fermi Contact Couplings
        Atom                 a.u.       MegaHertz       Gauss      10(-4) cm-1
     1  N(14)             -0.00743      -2.39984      -0.85632      -0.80050
     2  C(13)             -0.00720      -8.09924      -2.89001      -2.70161
     3  O(17)              0.03266     -19.79951      -7.06496      -6.60441
     4  C(13)             -0.00275      -3.09600      -1.10473      -1.03271
     5  H(1)              -0.00021      -0.95800      -0.34184      -0.31955
     6  H(1)               0.00072       3.22665       1.15135       1.07629
     7  H(1)               0.00072       3.22682       1.15141       1.07635
     8  C(13)              0.10707     120.37154      42.95156      40.15162

 Normal termination of Gaussian 16 at Tue Apr  8 23:04:58 2025.
