 Gaussian 16, Revision C.01,

 ----------------------------------------------------------------------
 #t hf aug-cc-pvdz symm=none int=(grid=ultrafine) guess=(read,tcheck) s
 table=(opt,rrhf)
 ----------------------------------------------------------------------
 -----
 title
 -----
 Symbolic Z-matrix:
 Charge =  0 Multiplicity = 1

 SCF Done:  E(RHF) =  -896.784078398     A.U. after   15 cycles
 Normal termination of Gaussian 16 at Tue Apr  8 23:23:01 2025.
 Gaussian 16:  ES64L-G16RevC.01  3-Jul-2019

 ----------------------------------------------------------------------
 #t hf aug-cc-pvdz iop(5/13=1,5/36=2,99/5=2) pseudo=read geom=check gue
 ss=(read,tcheck) scf=(maxcycle=1)
 ----------------------------------------------------------------------
 -----
 title
 -----
 Structure from the checkpoint file:  "BDE49_nonexpt_1202_mol1.chk"
 Charge =  0 Multiplicity = 1

                         Standard orientation:
 ---------------------------------------------------------------------
 Center     Atomic      Atomic             Coordinates (Angstroms)
 Number     Number       Type             X           Y           Z
 ---------------------------------------------------------------------
      1         16           0        0.646673   -1.114773    0.012715
      2          8           0       -0.839625   -0.610049   -0.626689
      3          6           0       -1.662856    0.084679    0.203533
      4          6           0        1.515064    0.422291   -0.136471
      5          9           0        2.781002    0.179862    0.267063
      6          8           0        1.119992    1.467182   -0.503308
      7          8           0       -1.489745    0.415873    1.319916
      8          9           0       -2.757112    0.332417   -0.503192
 ---------------------------------------------------------------------

 SCF Done:  E(RHF) =  -898.883616586     A.U. after    2 cycles

 The electronic state is 1-A.
 Alpha  occ. eigenvalues --  -75.81472 -29.35261 -29.34858 -21.17325 -21.13079
 Alpha  occ. eigenvalues --  -21.11509 -13.28091 -13.22163 -13.15713 -11.61193
 Alpha  occ. eigenvalues --  -11.59914  -8.15311  -1.91990  -1.80337  -1.75257
 Alpha  occ. eigenvalues --   -1.25422  -1.09665  -0.98816  -0.77150  -0.71785
 Alpha  occ. eigenvalues --   -0.65798  -0.65109  -0.62216  -0.60141  -0.51319
 Alpha  occ. eigenvalues --   -0.47000  -0.45576  -0.43570  -0.36872  -0.34559
 Alpha  occ. eigenvalues --   -0.33440  -0.32693  -0.31174  -0.30800  -0.29461
 Alpha virt. eigenvalues --    0.05458   0.07751   0.09057   0.09804   0.10939
 Alpha virt. eigenvalues --    0.11364   0.11901   0.12589   0.12689   0.14366
 Alpha virt. eigenvalues --    0.15657   0.16148   0.17389   0.19488   0.20733

 Mulliken charges:
               1
     1  S    1.604471
     2  O   -2.315834
     3  C    3.160422
     4  C    0.813245
     5  F    0.923553
     6  O   -2.556139
     7  O   -2.489570
     8  F    0.859852
 Sum of Mulliken charges =  -0.00000

 Dipole moment (field-independent basis, Debye):
    X=              1.0539    Y=             -2.2234    Z=             -0.6860  Tot=              2.5544

 Test job not archived.
 1\1\GINC-SE361\SP\RHF\Aug-CC-pVDZ\C2F2O3S1\OHZDE\08-Apr-2025\0\\#t hf
 aug-cc-pvdz iop(5/13=1,5/36=2,99/5=2) pseudo=read geom=check guess=(re
 ad,tcheck) scf=(maxcycle=1)\\title\\0,1\S,0,0.646673,-1.114773,0.01271
 5\O,0,-0.839625,-0.610049,-0.626689\C,0,-1.662856,0.084679,0.203533\C,
 0,1.515064,0.422291,-0.136471\F,0,2.781002,0.179862,0.267063\O,0,1.119
 992,1.467182,-0.503308\O,0,-1.489745,0.415873,1.319916\F,0,-2.757112,0
 .332417,-0.503192\\Version=ES64L-G16RevC.01\State=1-A\HF=-898.8836166\
 RMSD=5.349e-02\Dipole=0.4146195,-0.8747616,-0.2698816\Quadrupole=11.43

 Normal termination of Gaussian 16 at Tue Apr  8 23:23:04 2025.
