 Gaussian 16, Revision C.01,

 ----------------------------------------------------------------------
 #t hf aug-cc-pvdz symm=none int=(grid=ultrafine) guess=(read,tcheck) s
 table=(opt,rrhf)
 ----------------------------------------------------------------------
 -----
 title
 -----
 Symbolic Z-matrix:
 Charge =  0 Multiplicity = 1

 SCF Done:  E(RHF) =  -1025.31686817     A.U. after   15 cycles
 Normal termination of Gaussian 16 at Wed Apr  9 00:19:39 2025.
 Gaussian 16:  ES64L-G16RevC.01  3-Jul-2019

 ----------------------------------------------------------------------
 #t hf aug-cc-pvdz iop(5/13=1,5/36=2,99/5=2) pseudo=read geom=check gue
 ss=(read,tcheck) scf=(maxcycle=1)
 ----------------------------------------------------------------------
 -----
 title
 -----
 Structure from the checkpoint file:  "BDE49_nonexpt_2583_mol1.chk"
 Charge =  0 Multiplicity = 1

                         Standard orientation:
 ---------------------------------------------------------------------
 Center     Atomic      Atomic             Coordinates (Angstroms)
 Number     Number       Type             X           Y           Z
 ---------------------------------------------------------------------
      1         17           0        2.094930   -0.580030   -0.089808
      2         16           0        0.620365    0.896530    0.062193
      3          6           0       -0.798773   -0.096699    0.330098
      4          7           0       -1.826534    0.185467   -0.370367
      5          1           0       -0.793409   -0.842194    1.123793
      6          8           0       -2.942825   -0.514271    0.071671
      7          1           0       -3.625260   -0.245685   -0.553522
 ---------------------------------------------------------------------

 SCF Done:  E(RHF) =  -1026.49732230     A.U. after    2 cycles

 The electronic state is 1-A.
 Alpha  occ. eigenvalues --  -99.91873 -75.76222 -21.12735 -15.82072 -13.19266
 Alpha  occ. eigenvalues --  -13.11558 -13.08030 -11.45679 -10.48962  -9.68686
 Alpha  occ. eigenvalues --   -9.68055  -9.67962  -8.10092  -1.82206  -1.36794
 Alpha  occ. eigenvalues --   -1.28536  -1.09040  -0.83763  -0.69866  -0.62030
 Alpha  occ. eigenvalues --   -0.59282  -0.57033  -0.55746  -0.53925  -0.45130
 Alpha  occ. eigenvalues --   -0.38688  -0.35705  -0.25887
 Alpha virt. eigenvalues --    0.03657   0.04095   0.05277   0.06624   0.10371
 Alpha virt. eigenvalues --    0.10891   0.12310   0.13231   0.14053   0.14512
 Alpha virt. eigenvalues --    0.15572   0.16647   0.17258   0.17655   0.18356

 Mulliken charges:
               1
     1  Cl  -0.363647
     2  S    1.055109
     3  C   -0.752454
     4  N   -0.099316
     5  H    1.594370
     6  O   -2.320091
     7  H    0.886029
 Sum of Mulliken charges =  -0.00000

 Dipole moment (field-independent basis, Debye):
    X=             -2.8383    Y=              2.0542    Z=              0.3212  Tot=              3.5183

 Test job not archived.
 1\1\GINC-SE222\SP\RHF\Aug-CC-pVDZ\C1H2Cl1N1O1S1\OHZDE\09-Apr-2025\0\\#
 t hf aug-cc-pvdz iop(5/13=1,5/36=2,99/5=2) pseudo=read geom=check gues
 s=(read,tcheck) scf=(maxcycle=1)\\title\\0,1\Cl,0,2.09493,-0.58003,-0.
 089808\S,0,0.620365,0.89653,0.062193\C,0,-0.798773,-0.096699,0.330098\
 N,0,-1.826534,0.185467,-0.370367\H,0,-0.793409,-0.842194,1.123793\O,0,
 -2.942825,-0.514271,0.071671\H,0,-3.62526,-0.245685,-0.553522\\Version
 =ES64L-G16RevC.01\State=1-A\HF=-1026.4973223\RMSD=6.641e-02\Dipole=-1.
 1166717,0.8081725,0.1263666\Quadrupole=1.9746098,1.0890026,-3.0636123,

 Normal termination of Gaussian 16 at Wed Apr  9 00:19:41 2025.
