 Gaussian 16, Revision C.01,

 ----------------------------------------------------------------------
 #t hf aug-cc-pvdz symm=none int=(grid=ultrafine) guess=(read,tcheck) s
 table=(opt,rrhf)
 ----------------------------------------------------------------------
 -----
 title
 -----
 Symbolic Z-matrix:
 Charge =  0 Multiplicity = 1

 SCF Done:  E(RHF) =  -499.352747375     A.U. after   12 cycles
 Normal termination of Gaussian 16 at Wed Apr  9 00:06:42 2025.
 Gaussian 16:  ES64L-G16RevC.01  3-Jul-2019

 ----------------------------------------------------------------------
 #t hf aug-cc-pvdz iop(5/13=1,5/36=2,99/5=2) pseudo=read geom=check gue
 ss=(read,tcheck) scf=(maxcycle=1)
 ----------------------------------------------------------------------
 -----
 title
 -----
 Structure from the checkpoint file:  "BDE49_nonexpt_2228_mol1.chk"
 Charge =  0 Multiplicity = 1

                         Standard orientation:
 ---------------------------------------------------------------------
 Center     Atomic      Atomic             Coordinates (Angstroms)
 Number     Number       Type             X           Y           Z
 ---------------------------------------------------------------------
      1          7           0        0.575081    1.412555   -0.826178
      2          6           0        1.365106   -1.243767   -0.048483
      3          6           0       -1.614007   -0.657543   -0.644354
      4         14           0       -0.008653    0.029104    0.019426
      5          1           0        1.558827   -1.570101   -1.075296
      6          1           0        1.093032   -2.129368    0.532850
      7          1           0        2.301554   -0.853007    0.361793
      8          1           0        1.382993    1.353249   -1.426556
      9          1           0       -0.029283    2.176436   -1.090590
     10          1           0       -1.486394   -1.049591   -1.657621
     11          1           0       -2.387953    0.115226   -0.676336
     12          1           0       -1.984269   -1.467852   -0.009744
     13          8           0       -0.388973    0.443484    1.583189
     14          1           0        0.252255    0.989657    2.044293
 ---------------------------------------------------------------------

 SCF Done:  E(RHF) =  -500.511806238     A.U. after    2 cycles

 The electronic state is 1-A.
 Alpha  occ. eigenvalues --  -76.20596 -21.05217 -15.71917 -11.33767 -11.33243
 Alpha  occ. eigenvalues --   -5.55198  -2.21807  -2.19589  -2.18126  -1.64032
 Alpha  occ. eigenvalues --   -1.24517  -1.04143  -1.00532  -0.68824  -0.64508
 Alpha  occ. eigenvalues --   -0.58998  -0.56229  -0.55031  -0.53737  -0.52871
 Alpha  occ. eigenvalues --   -0.46262  -0.42960  -0.39556  -0.35852  -0.34315
 Alpha virt. eigenvalues --    0.03001   0.05451   0.05564   0.05926   0.06551
 Alpha virt. eigenvalues --    0.06922   0.06985   0.07501   0.08375   0.09305
 Alpha virt. eigenvalues --    0.09831   0.10480   0.11762   0.15276   0.16923

 Mulliken charges:
               1
     1  N   -2.778515
     2  C   -5.476303
     3  C   -5.585950
     4  Si   7.721134
     5  H    1.154106
     6  H    1.176232
     7  H    1.143198
     8  H    0.643565
     9  H    0.648725
    10  H    1.107319
    11  H    1.223791
    12  H    1.215678
    13  O   -3.216729
    14  H    1.023749
 Sum of Mulliken charges =  -0.00000

 Dipole moment (field-independent basis, Debye):
    X=              0.4738    Y=              0.5442    Z=             -0.7516  Tot=              1.0419

 Test job not archived.
 1\1\GINC-SE404\SP\RHF\Aug-CC-pVDZ\C2H9N1O1Si1\OHZDE\09-Apr-2025\0\\#t
 hf aug-cc-pvdz iop(5/13=1,5/36=2,99/5=2) pseudo=read geom=check guess=
 (read,tcheck) scf=(maxcycle=1)\\title\\0,1\N,0,0.575083,1.412554,-0.82
 6178\C,0,1.365104,-1.243769,-0.048483\C,0,-1.614008,-0.65754,-0.644354
 \Si,0,-0.008653,0.029104,0.019426\H,0,1.558824,-1.570103,-1.075296\H,0
 ,1.093028,-2.12937,0.53285\H,0,2.301552,-0.853011,0.361793\H,0,1.38299
 5,1.353247,-1.426556\H,0,-0.029279,2.176436,-1.09059\H,0,-1.486396,-1.
 049588,-1.657621\H,0,-2.387953,0.11523,-0.676336\H,0,-1.984272,-1.4678

 Normal termination of Gaussian 16 at Wed Apr  9 00:06:45 2025.
