 Gaussian 16, Revision C.01,

 ----------------------------------------------------------------------
 #t hf aug-cc-pvdz symm=none int=(grid=ultrafine) guess=(read,tcheck) s
 table=(opt,rrhf)
 ----------------------------------------------------------------------
 -----
 title
 -----
 Symbolic Z-matrix:
 Charge =  0 Multiplicity = 1

 SCF Done:  E(RHF) =  -1426.57037703     A.U. after   18 cycles
 Normal termination of Gaussian 16 at Tue Apr  8 23:27:18 2025.
 Gaussian 16:  ES64L-G16RevC.01  3-Jul-2019

 ----------------------------------------------------------------------
 #t hf aug-cc-pvdz iop(5/13=1,5/36=2,99/5=2) pseudo=read geom=check gue
 ss=(read,tcheck) scf=(maxcycle=1)
 ----------------------------------------------------------------------
 -----
 title
 -----
 Structure from the checkpoint file:  "BDE49_nonexpt_1199_mol1.chk"
 Charge =  0 Multiplicity = 1

                         Standard orientation:
 ---------------------------------------------------------------------
 Center     Atomic      Atomic             Coordinates (Angstroms)
 Number     Number       Type             X           Y           Z
 ---------------------------------------------------------------------
      1          6           0        3.382822   -0.168914    0.387032
      2          8           0        3.025590   -0.133220    1.524566
      3          8           0        2.668643    0.375266   -0.671242
      4         16           0        1.142388    1.042308   -0.353810
      5          6           0        0.243380   -0.533175   -0.285729
      6          8           0        0.871073   -1.558649   -0.383215
      7          6           0        4.640990   -0.795192   -0.152112
      8          1           0        5.286184   -1.075737    0.677814
      9          1           0        5.155252   -0.108290   -0.825685
     10          1           0        4.367726   -1.683548   -0.726405
     11          6           0       -1.250531   -0.545776   -0.109894
     12          6           0       -1.828117   -1.827589   -0.101355
     13          6           0       -3.192870   -2.011165    0.049805
     14          6           0       -4.026445   -0.903936    0.199547
     15          6           0       -3.486244    0.375953    0.196778
     16          6           0       -2.113162    0.547274    0.042764
     17          1           0       -3.606040   -3.012501    0.052138
     18          1           0       -4.117932    1.246647    0.313605
     19          1           0       -1.159866   -2.670855   -0.216591
     20          1           0       -5.095915   -1.031445    0.319601
     21         17           0       -1.520530    2.198045    0.055564
 ---------------------------------------------------------------------

 SCF Done:  E(RHF) =  -1429.57938361     A.U. after    2 cycles

 The electronic state is 1-A.
 Alpha  occ. eigenvalues --  -99.91809 -75.75255 -21.10049 -21.07175 -21.05617
 Alpha  occ. eigenvalues --  -13.24393 -13.18209 -13.10282 -11.54963 -11.53799
 Alpha  occ. eigenvalues --  -11.52834 -11.49626 -11.47335 -11.45125 -11.44396
 Alpha  occ. eigenvalues --  -11.40582 -11.39462 -10.49225  -9.69222  -9.68676
 Alpha  occ. eigenvalues --   -9.68175  -8.08958  -1.83807  -1.73838  -1.67172
 Alpha  occ. eigenvalues --   -1.42745  -1.30525  -1.17108  -1.13502  -1.10744
 Alpha  occ. eigenvalues --   -1.07846  -0.93533  -0.89493  -0.81870  -0.75987
 Alpha  occ. eigenvalues --   -0.72262  -0.66787  -0.65562  -0.63599  -0.63369
 Alpha  occ. eigenvalues --   -0.61454  -0.60504  -0.60306  -0.59629  -0.53928
 Alpha  occ. eigenvalues --   -0.53628  -0.53549  -0.51718  -0.49843  -0.48811
 Alpha  occ. eigenvalues --   -0.48062  -0.45890  -0.40127  -0.35848  -0.35711
 Alpha  occ. eigenvalues --   -0.34200  -0.30102  -0.28261  -0.25711
 Alpha virt. eigenvalues --    0.02727   0.04501   0.04762   0.05058   0.06570
 Alpha virt. eigenvalues --    0.06774   0.06785   0.07013   0.07374   0.08582
 Alpha virt. eigenvalues --    0.08711   0.09645   0.10342   0.11230   0.11605

 Mulliken charges:
               1
     1  C    5.180240
     2  O   -3.012921
     3  O   -2.852752
     4  S    2.009391
     5  C    1.537526
     6  O   -3.919840
     7  C   -4.395358
     8  H    1.227451
     9  H    1.282536
    10  H    1.283843
    11  C    4.836068
    12  C   -3.705017
    13  C   -2.595829
    14  C   -1.912203
    15  C   -1.865742
    16  C    1.292920
    17  H    1.485608
    18  H    1.685107
    19  H    1.749546
    20  H    1.539892
    21  Cl  -0.850467
 Sum of Mulliken charges =   0.00000

 Dipole moment (field-independent basis, Debye):
    X=             -2.1523    Y=             -0.6402    Z=             -0.4887  Tot=              2.2980

 Test job not archived.
 1\1\GINC-SE226\SP\RHF\Aug-CC-pVDZ\C9H7Cl1O3S1\OHZDE\08-Apr-2025\0\\#t
 hf aug-cc-pvdz iop(5/13=1,5/36=2,99/5=2) pseudo=read geom=check guess=
 (read,tcheck) scf=(maxcycle=1)\\title\\0,1\C,0,3.382822,-0.168914,0.38
 7032\O,0,3.02559,-0.13322,1.524566\O,0,2.668643,0.375266,-0.671242\S,0
 ,1.142388,1.042308,-0.35381\C,0,0.24338,-0.533175,-0.285729\O,0,0.8710
 73,-1.558649,-0.383215\C,0,4.64099,-0.795192,-0.152112\H,0,5.286184,-1
 .075737,0.677814\H,0,5.155252,-0.10829,-0.825685\H,0,4.367726,-1.68354
 8,-0.726405\C,0,-1.250531,-0.545776,-0.109894\C,0,-1.828117,-1.827589,

 Normal termination of Gaussian 16 at Tue Apr  8 23:27:36 2025.
