 Gaussian 16, Revision C.01,

 ----------------------------------------------------------------------
 #t hf aug-cc-pvdz symm=none int=(grid=ultrafine) guess=(read,tcheck) s
 table=(opt,rrhf)
 ----------------------------------------------------------------------
 -----
 title
 -----
 Symbolic Z-matrix:
 Charge =  0 Multiplicity = 1

 SCF Done:  E(RHF) =  -796.731862075     A.U. after   15 cycles
 Normal termination of Gaussian 16 at Wed Apr  9 00:52:11 2025.
 Gaussian 16:  ES64L-G16RevC.01  3-Jul-2019

 ----------------------------------------------------------------------
 #t hf aug-cc-pvdz iop(5/13=1,5/36=2,99/5=2) pseudo=read geom=check gue
 ss=(read,tcheck) scf=(maxcycle=1)
 ----------------------------------------------------------------------
 -----
 title
 -----
 Structure from the checkpoint file:  "BDE49_nonexpt_942_mol1.chk"
 Charge =  0 Multiplicity = 1

                         Standard orientation:
 ---------------------------------------------------------------------
 Center     Atomic      Atomic             Coordinates (Angstroms)
 Number     Number       Type             X           Y           Z
 ---------------------------------------------------------------------
      1         17           0       -0.547216    1.701009   -0.170216
      2          8           0        2.095326    0.594774    0.331774
      3          8           0       -0.947260   -0.875633   -0.414784
      4          7           0       -0.153453    0.018407    0.304266
      5          7           0        1.511535   -1.544825   -0.222064
      6          6           0        1.269641   -0.248284    0.101391
      7          6           0       -2.151238   -1.150731    0.318530
      8          1           0        0.776987   -2.117970   -0.600874
      9          1           0        2.474873   -1.792673   -0.374186
     10          1           0       -2.679212   -1.897966   -0.273216
     11          1           0       -1.913924   -1.536969    1.311810
     12          1           0       -2.757584   -0.245688    0.399268
 ---------------------------------------------------------------------

 SCF Done:  E(RHF) =  -798.451565351     A.U. after    2 cycles

 The electronic state is 1-A.
 Alpha  occ. eigenvalues --  -99.91696 -21.11153 -21.04257 -15.83528 -15.79238
 Alpha  occ. eigenvalues --  -11.52433 -11.42988 -10.48752  -9.68624  -9.67883
 Alpha  occ. eigenvalues --   -9.67649  -1.86949  -1.72820  -1.38767  -1.35711
 Alpha  occ. eigenvalues --   -1.16724  -0.99000  -0.83731  -0.75415  -0.69863
 Alpha  occ. eigenvalues --   -0.66942  -0.63341  -0.61235  -0.59588  -0.53971
 Alpha  occ. eigenvalues --   -0.53047  -0.50204  -0.48595  -0.39956  -0.36099
 Alpha  occ. eigenvalues --   -0.32355  -0.31229
 Alpha virt. eigenvalues --    0.03084   0.04468   0.04727   0.05510   0.06236
 Alpha virt. eigenvalues --    0.07250   0.09787   0.11449   0.11800   0.12924
 Alpha virt. eigenvalues --    0.13148   0.13844   0.14615   0.16079   0.16665

 Mulliken charges:
               1
     1  Cl   0.222970
     2  O   -2.830985
     3  O   -2.634549
     4  N   -0.070170
     5  N   -2.773878
     6  C    5.337930
     7  C   -2.646548
     8  H    0.810336
     9  H    0.658007
    10  H    1.312105
    11  H    1.287453
    12  H    1.327329
 Sum of Mulliken charges =  -0.00000

 Dipole moment (field-independent basis, Debye):
    X=             -1.0927    Y=             -4.2903    Z=             -0.8230  Tot=              4.5031

 Test job not archived.
 1\1\GINC-SE070\SP\RHF\Aug-CC-pVDZ\C2H5Cl1N2O2\OHZDE\09-Apr-2025\0\\#t
 hf aug-cc-pvdz iop(5/13=1,5/36=2,99/5=2) pseudo=read geom=check guess=
 (read,tcheck) scf=(maxcycle=1)\\title\\0,1\Cl,0,-0.547217,1.701009,-0.
 170216\O,0,2.095326,0.594775,0.331774\O,0,-0.947259,-0.875634,-0.41478
 4\N,0,-0.153453,0.018407,0.304266\N,0,1.511536,-1.544824,-0.222064\C,0
 ,1.269641,-0.248283,0.101391\C,0,-2.151237,-1.150733,0.31853\H,0,0.776
 988,-2.11797,-0.600874\H,0,2.474874,-1.792671,-0.374186\H,0,-2.679211,
 -1.897968,-0.273216\H,0,-1.913923,-1.53697,1.31181\H,0,-2.757584,-0.24

 Normal termination of Gaussian 16 at Wed Apr  9 00:52:15 2025.
