 Gaussian 16, Revision C.01,

 ----------------------------------------------------------------------
 #t hf aug-cc-pvdz symm=none int=(grid=ultrafine) guess=(read,tcheck) s
 table=(opt,rrhf)
 ----------------------------------------------------------------------
 -----
 title
 -----
 Symbolic Z-matrix:
 Charge =  0 Multiplicity = 1

 SCF Done:  E(RHF) =  -496.413295634     A.U. after   12 cycles
 Normal termination of Gaussian 16 at Wed Apr  9 00:36:54 2025.
 Gaussian 16:  ES64L-G16RevC.01  3-Jul-2019

 ----------------------------------------------------------------------
 #t hf aug-cc-pvdz iop(5/13=1,5/36=2,99/5=2) pseudo=read geom=check gue
 ss=(read,tcheck) scf=(maxcycle=1)
 ----------------------------------------------------------------------
 -----
 title
 -----
 Structure from the checkpoint file:  "BDE49_nonexpt_443_mol1.chk"
 Charge =  0 Multiplicity = 1

                         Standard orientation:
 ---------------------------------------------------------------------
 Center     Atomic      Atomic             Coordinates (Angstroms)
 Number     Number       Type             X           Y           Z
 ---------------------------------------------------------------------
      1          6           0       -1.269665   -1.410775    0.055613
      2          6           0       -2.640883   -0.868813    0.483513
      3          6           0       -2.997945    0.419560   -0.270203
      4          6           0       -1.895116    1.476145   -0.120073
      5          6           0       -0.524935    0.928247   -0.544622
      6          6           0        1.208844   -0.915495   -0.249949
      7          6           0       -0.152828   -0.362757    0.208726
      8          5           0        2.455859   -0.030269    0.054104
      9          9           0        3.613870   -0.205804   -0.577013
     10          9           0        2.450968    0.922734    0.983688
     11          1           0       -1.316409   -1.727229   -0.995639
     12          1           0       -1.019634   -2.305506    0.636923
     13          1           0       -2.626899   -0.663775    1.561815
     14          1           0       -3.411611   -1.629555    0.322772
     15          1           0       -3.953762    0.815745    0.087477
     16          1           0       -3.134707    0.188796   -1.334776
     17          1           0       -1.844014    1.798859    0.927700
     18          1           0       -2.139670    2.367212   -0.707092
     19          1           0        0.244861    1.690091   -0.382574
     20          1           0       -0.537773    0.716534   -1.623015
     21          1           0        1.188393   -1.155416   -1.320616
     22          1           0        1.398248   -1.882368    0.243195
     23          1           0       -0.074688   -0.111093    1.275214
 ---------------------------------------------------------------------

 SCF Done:  E(RHF) =  -498.599760749     A.U. after    2 cycles

 The electronic state is 1-A.
 Alpha  occ. eigenvalues --  -29.25015 -29.24905 -11.43970 -11.43663 -11.42144
 Alpha  occ. eigenvalues --  -11.39910 -11.37788 -11.36405 -11.33737  -7.69131
 Alpha  occ. eigenvalues --   -1.34042  -1.20283  -1.10191  -1.10021  -0.96605
 Alpha  occ. eigenvalues --   -0.88410  -0.85209  -0.78542  -0.73636  -0.65506
 Alpha  occ. eigenvalues --   -0.63203  -0.61887  -0.61266  -0.58804  -0.55814
 Alpha  occ. eigenvalues --   -0.52455  -0.51270  -0.47435  -0.47001  -0.46743
 Alpha  occ. eigenvalues --   -0.45287  -0.44399  -0.43942  -0.42665  -0.39936
 Alpha  occ. eigenvalues --   -0.38411  -0.33365  -0.31740  -0.25362
 Alpha virt. eigenvalues --    0.03710   0.04145   0.04412   0.05011   0.05223
 Alpha virt. eigenvalues --    0.05546   0.05636   0.05756   0.06289   0.07810
 Alpha virt. eigenvalues --    0.07868   0.08601   0.09078   0.09239   0.09825

 Mulliken charges:
               1
     1  C   -3.018543
     2  C   -3.112213
     3  C   -2.696558
     4  C   -3.291737
     5  C   -3.657975
     6  C   -4.581157
     7  C    0.977341
     8  B    1.788195
     9  F    0.088320
    10  F   -1.058057
    11  H    1.419219
    12  H    1.452846
    13  H    1.419688
    14  H    1.265939
    15  H    1.346010
    16  H    1.383312
    17  H    1.363015
    18  H    1.227830
    19  H    1.503544
    20  H    1.448778
    21  H    1.339278
    22  H    1.283349
    23  H    2.109574
 Sum of Mulliken charges =  -0.00000

 Dipole moment (field-independent basis, Debye):
    X=              1.1924    Y=              1.2136    Z=              0.6291  Tot=              1.8139

 Test job not archived.
 1\1\GINC-SE105\SP\RHF\Aug-CC-pVDZ\C7H13B1F2\OHZDE\09-Apr-2025\0\\#t hf
  aug-cc-pvdz iop(5/13=1,5/36=2,99/5=2) pseudo=read geom=check guess=(r
 ead,tcheck) scf=(maxcycle=1)\\title\\0,1\C,0,-1.269665,-1.410775,0.055
 613\C,0,-2.640883,-0.868813,0.483513\C,0,-2.997945,0.41956,-0.270203\C
 ,0,-1.895116,1.476145,-0.120073\C,0,-0.524935,0.928247,-0.544622\C,0,1
 .208844,-0.915495,-0.249949\C,0,-0.152828,-0.362757,0.208726\B,0,2.455
 859,-0.030269,0.054104\F,0,3.61387,-0.205804,-0.577013\F,0,2.450968,0.
 922734,0.983688\H,0,-1.316409,-1.727229,-0.995639\H,0,-1.019634,-2.305

 Normal termination of Gaussian 16 at Wed Apr  9 00:37:08 2025.
