 Gaussian 16, Revision C.01,

 ----------------------------------------------------------------------
 #t hf aug-cc-pvdz symm=none int=(grid=ultrafine) guess=(read,tcheck) s
 table=(opt,rrhf)
 ----------------------------------------------------------------------
 -----
 title
 -----
 Symbolic Z-matrix:
 Charge =  0 Multiplicity = 1

 SCF Done:  E(RHF) =  -600.797473301     A.U. after   14 cycles
 Normal termination of Gaussian 16 at Wed Apr  9 00:44:22 2025.
 Gaussian 16:  ES64L-G16RevC.01  3-Jul-2019

 ----------------------------------------------------------------------
 #t hf aug-cc-pvdz iop(5/13=1,5/36=2,99/5=2) pseudo=read geom=check gue
 ss=(read,tcheck) scf=(maxcycle=1)
 ----------------------------------------------------------------------
 -----
 title
 -----
 Structure from the checkpoint file:  "BDE49_nonexpt_718_mol1.chk"
 Charge =  0 Multiplicity = 1

                         Standard orientation:
 ---------------------------------------------------------------------
 Center     Atomic      Atomic             Coordinates (Angstroms)
 Number     Number       Type             X           Y           Z
 ---------------------------------------------------------------------
      1          6           0        0.305416   -0.143303    0.269192
      2          6           0       -0.248958    1.165876   -0.326682
      3          6           0       -1.701932    1.421994    0.106408
      4          6           0       -2.612984    0.232981   -0.224822
      5          6           0       -2.069127   -1.067615    0.380412
      6          6           0       -0.619555   -1.335008   -0.054047
      7          5           0        3.280952    0.698098    0.451749
      8          1           0       -0.202350    1.106842   -1.421698
      9          1           0        0.387582    2.005292   -0.033529
     10          1           0       -2.073526    2.333288   -0.373239
     11          1           0       -1.727581    1.607066    1.187981
     12          1           0       -2.683197    0.123169   -1.314804
     13          1           0       -3.629209    0.422394    0.134993
     14          1           0       -2.701597   -1.914737    0.096347
     15          1           0       -2.109803   -1.002047    1.475337
     16          1           0       -0.241083   -2.242260    0.425612
     17          1           0       -0.597925   -1.522485   -1.135752
     18         15           0        2.066672   -0.509753   -0.223342
     19          1           0        0.359668   -0.035198    1.360627
     20          1           0        4.303697    0.871172   -0.130389
     21          1           0        3.121322    1.143056    1.544739
     22          1           0        2.072006   -0.389302   -1.627602
 ---------------------------------------------------------------------

 SCF Done:  E(RHF) =  -602.327385906     A.U. after    2 cycles

 The electronic state is 1-A.
 Alpha  occ. eigenvalues -- -105.15297 -11.44077 -11.43817 -11.42348 -11.37875
 Alpha  occ. eigenvalues --  -11.37669 -11.34336  -7.61138  -2.73443  -1.53321
 Alpha  occ. eigenvalues --   -1.46620  -1.41219  -1.30496  -1.10453  -1.09183
 Alpha  occ. eigenvalues --   -0.88724  -0.88462  -0.81809  -0.77863  -0.66849
 Alpha  occ. eigenvalues --   -0.63667  -0.61541  -0.61100  -0.57434  -0.52876
 Alpha  occ. eigenvalues --   -0.49364  -0.48560  -0.47553  -0.47185  -0.44866
 Alpha  occ. eigenvalues --   -0.43322  -0.39476  -0.22076  -0.12298  -0.04107
 Alpha virt. eigenvalues --    0.03702   0.04007   0.04537   0.05296   0.05501
 Alpha virt. eigenvalues --    0.05562   0.05746   0.06167   0.06427   0.07682
 Alpha virt. eigenvalues --    0.08402   0.08781   0.08821   0.09599   0.10211

 Mulliken charges:
               1
     1  C    0.456440
     2  C   -4.079278
     3  C   -3.234041
     4  C   -2.885047
     5  C   -3.288842
     6  C   -3.166310
     7  B    4.746223
     8  H    1.468163
     9  H    1.523806
    10  H    1.293985
    11  H    1.346954
    12  H    1.366607
    13  H    1.312965
    14  H    1.330823
    15  H    1.356471
    16  H    1.389981
    17  H    1.419295
    18  P    2.152292
    19  H    1.948549
    20  H   -2.933770
    21  H   -2.099082
    22  H   -1.426186
 Sum of Mulliken charges =   0.00000

 Dipole moment (field-independent basis, Debye):
    X=             -4.7168    Y=             -6.8044    Z=             -1.0979  Tot=              8.3519

 Test job not archived.
 1\1\GINC-SE462\SP\RHF\Aug-CC-pVDZ\C6H14B1P1\OHZDE\09-Apr-2025\0\\#t hf
  aug-cc-pvdz iop(5/13=1,5/36=2,99/5=2) pseudo=read geom=check guess=(r
 ead,tcheck) scf=(maxcycle=1)\\title\\0,1\C,0,0.305416,-0.143303,0.2691
 92\C,0,-0.248958,1.165876,-0.326682\C,0,-1.701932,1.421994,0.106408\C,
 0,-2.612984,0.232981,-0.224822\C,0,-2.069127,-1.067615,0.380412\C,0,-0
 .619555,-1.335008,-0.054047\B,0,3.280952,0.698098,0.451749\H,0,-0.2023
 5,1.106842,-1.421698\H,0,0.387582,2.005292,-0.033529\H,0,-2.073526,2.3
 33288,-0.373239\H,0,-1.727581,1.607066,1.187981\H,0,-2.683197,0.123169

 Normal termination of Gaussian 16 at Wed Apr  9 00:44:33 2025.
