 Gaussian 16, Revision C.01,

 ----------------------------------------------------------------------
 #t hf aug-cc-pvdz symm=none int=(grid=ultrafine) guess=(read,tcheck) s
 table=(opt,rrhf)
 ----------------------------------------------------------------------
 -----
 title
 -----
 Symbolic Z-matrix:
 Charge =  0 Multiplicity = 1

 SCF Done:  E(RHF) =  -1007.42731746     A.U. after   18 cycles
 Normal termination of Gaussian 16 at Tue Apr  8 23:34:20 2025.
 Gaussian 16:  ES64L-G16RevC.01  3-Jul-2019

 ----------------------------------------------------------------------
 #t hf aug-cc-pvdz iop(5/13=1,5/36=2,99/5=2) pseudo=read geom=check gue
 ss=(read,tcheck) scf=(maxcycle=1)
 ----------------------------------------------------------------------
 -----
 title
 -----
 Structure from the checkpoint file:  "BDE49_nonexpt_1412_mol1.chk"
 Charge =  0 Multiplicity = 1

                         Standard orientation:
 ---------------------------------------------------------------------
 Center     Atomic      Atomic             Coordinates (Angstroms)
 Number     Number       Type             X           Y           Z
 ---------------------------------------------------------------------
      1          6           0       -3.143075   -0.092207    0.000634
      2          6           0       -2.385666   -1.220625   -0.305370
      3          6           0       -0.997336   -1.151503   -0.295817
      4          6           0       -2.503022    1.109845    0.305216
      5          6           0       -1.117813    1.186394    0.296506
      6          6           0       -0.337526    0.055253   -0.001774
      7          1           0       -4.225712   -0.148226    0.002492
      8          1           0       -2.875546   -2.155370   -0.552254
      9          1           0       -0.425102   -2.035403   -0.553878
     10          1           0       -3.087796    1.989280    0.549438
     11          1           0       -0.616218    2.117332    0.527450
     12          6           0        1.138171    0.141351   -0.001927
     13         15           0        2.079688   -1.446070    0.144923
     14         16           0        1.963946    1.538602   -0.264548
     15          1           0        1.471982   -1.953284    1.321254
     16          1           0        3.217536   -0.911959    0.779624
 ---------------------------------------------------------------------

 SCF Done:  E(RHF) =  -1009.12095406     A.U. after    2 cycles

 The electronic state is 1-A.
 Alpha  occ. eigenvalues -- -105.19978 -75.66858 -13.15065 -13.04555 -12.98718
 Alpha  occ. eigenvalues --  -11.52887 -11.49156 -11.45140 -11.44772 -11.42861
 Alpha  occ. eigenvalues --  -11.42267 -11.38138  -8.00959  -2.77017  -1.51233
 Alpha  occ. eigenvalues --   -1.47964  -1.44860  -1.36725  -1.19321  -1.11029
 Alpha  occ. eigenvalues --   -1.08604  -0.91282  -0.88143  -0.80955  -0.73677
 Alpha  occ. eigenvalues --   -0.70482  -0.62636  -0.59853  -0.58538  -0.53439
 Alpha  occ. eigenvalues --   -0.52613  -0.46847  -0.44344  -0.41130  -0.34721
 Alpha  occ. eigenvalues --   -0.31589  -0.29453  -0.25991  -0.18664  -0.03525
 Alpha virt. eigenvalues --    0.02969   0.04454   0.04889   0.05280   0.05752
 Alpha virt. eigenvalues --    0.06661   0.07385   0.08150   0.08580   0.09088
 Alpha virt. eigenvalues --    0.10583   0.11415   0.11997   0.12355   0.12870

 Mulliken charges:
               1
     1  C   -3.073575
     2  C   -2.285530
     3  C   -1.730758
     4  C   -1.618962
     5  C   -2.153207
     6  C    4.893436
     7  H    1.518358
     8  H    1.512470
     9  H    2.032739
    10  H    1.522300
    11  H    1.914178
    12  C   -3.885748
    13  P    1.961029
    14  S    0.368644
    15  H   -0.545251
    16  H   -0.430123
 Sum of Mulliken charges =  -0.00000

 Dipole moment (field-independent basis, Debye):
    X=              1.0533    Y=             -2.9730    Z=             -2.1779  Tot=              3.8329

 Test job not archived.
 1\1\GINC-SE163\SP\RHF\Aug-CC-pVDZ\C7H7P1S1\OHZDE\08-Apr-2025\0\\#t hf
 aug-cc-pvdz iop(5/13=1,5/36=2,99/5=2) pseudo=read geom=check guess=(re
 ad,tcheck) scf=(maxcycle=1)\\title\\0,1\C,0,-3.143075,-0.092207,0.0006
 34\C,0,-2.385666,-1.220625,-0.30537\C,0,-0.997336,-1.151503,-0.295817\
 C,0,-2.503022,1.109845,0.305216\C,0,-1.117813,1.186394,0.296506\C,0,-0
 .337526,0.055253,-0.001774\H,0,-4.225712,-0.148226,0.002492\H,0,-2.875
 546,-2.15537,-0.552254\H,0,-0.425102,-2.035403,-0.553878\H,0,-3.087796
 ,1.98928,0.549438\H,0,-0.616218,2.117332,0.52745\C,0,1.138171,0.141351

 Normal termination of Gaussian 16 at Tue Apr  8 23:34:28 2025.
