 Gaussian 16, Revision C.01,

 ----------------------------------------------------------------------
 #t hf aug-cc-pvdz symm=none int=(grid=ultrafine) guess=(read,tcheck) s
 table=(opt,rrhf)
 ----------------------------------------------------------------------
 -----
 title
 -----
 Symbolic Z-matrix:
 Charge =  0 Multiplicity = 1

 SCF Done:  E(RHF) =  -330.933614883     A.U. after   15 cycles
 Normal termination of Gaussian 16 at Wed Apr  9 00:30:19 2025.
 Gaussian 16:  ES64L-G16RevC.01  3-Jul-2019

 ----------------------------------------------------------------------
 #t hf aug-cc-pvdz iop(5/13=1,5/36=2,99/5=2) pseudo=read geom=check gue
 ss=(read,tcheck) scf=(maxcycle=1)
 ----------------------------------------------------------------------
 -----
 title
 -----
 Structure from the checkpoint file:  "BDE49_nonexpt_326_mol1.chk"
 Charge =  0 Multiplicity = 1

                         Standard orientation:
 ---------------------------------------------------------------------
 Center     Atomic      Atomic             Coordinates (Angstroms)
 Number     Number       Type             X           Y           Z
 ---------------------------------------------------------------------
      1          6           0        2.270032   -0.299765    0.000001
      2          6           0        1.832800    1.023426    0.000000
      3          6           0        0.467909    1.299501   -0.000003
      4          6           0        1.342525   -1.343156   -0.000001
      5          6           0       -0.018419   -1.060188   -0.000004
      6          6           0       -0.484670    0.267218   -0.000005
      7          1           0        3.332313   -0.519461    0.000004
      8          1           0        2.553877    1.833456    0.000002
      9          1           0        0.130705    2.331482   -0.000004
     10          1           0        1.685762   -2.372011    0.000000
     11          1           0       -0.739781   -1.870216   -0.000006
     12          5           0       -2.000474    0.600002   -0.000011
     13          8           0       -2.903044   -0.418363    0.000012
     14          1           0       -3.814920   -0.116070    0.000025
     15          1           0       -2.382297    1.737494    0.000007
 ---------------------------------------------------------------------

 SCF Done:  E(RHF) =  -332.461925287     A.U. after    2 cycles

 The electronic state is 1-A.
 Alpha  occ. eigenvalues --  -21.06290 -11.50742 -11.42701 -11.42006 -11.40037
 Alpha  occ. eigenvalues --  -11.39558 -11.35084  -7.64301  -1.74533  -1.33375
 Alpha  occ. eigenvalues --   -1.09751  -1.08526  -0.88321  -0.85730  -0.77277
 Alpha  occ. eigenvalues --   -0.69492  -0.63201  -0.62916  -0.57491  -0.55433
 Alpha  occ. eigenvalues --   -0.53064  -0.50124  -0.44824  -0.42982  -0.41223
 Alpha  occ. eigenvalues --   -0.37971  -0.32602  -0.32423
 Alpha virt. eigenvalues --    0.03270   0.04030   0.04557   0.05441   0.05664
 Alpha virt. eigenvalues --    0.05901   0.07215   0.08158   0.08692   0.09187
 Alpha virt. eigenvalues --    0.10400   0.12105   0.12157   0.14014   0.14630

 Mulliken charges:
               1
     1  C   -2.279290
     2  C   -1.039274
     3  C   -1.489663
     4  C   -1.078685
     5  C    0.003643
     6  C   -1.322067
     7  H    1.498910
     8  H    1.554280
     9  H    1.916527
    10  H    1.530581
    11  H    1.885178
    12  B    5.096220
    13  O   -3.846205
    14  H    1.210742
    15  H   -3.640896
 Sum of Mulliken charges =   0.00000

 Dipole moment (field-independent basis, Debye):
    X=             -0.3646    Y=             -0.2808    Z=              0.0000  Tot=              0.4602

 Test job not archived.
 1\1\GINC-SE404\SP\RHF\Aug-CC-pVDZ\C6H7B1O1\OHZDE\09-Apr-2025\0\\#t hf
 aug-cc-pvdz iop(5/13=1,5/36=2,99/5=2) pseudo=read geom=check guess=(re
 ad,tcheck) scf=(maxcycle=1)\\title\\0,1\C,0,-2.270032,-0.299765,-0.000
 001\C,0,-1.8328,1.023426,0.\C,0,-0.467909,1.299501,0.000003\C,0,-1.342
 525,-1.343156,0.000001\C,0,0.018419,-1.060188,0.000004\C,0,0.48467,0.2
 67218,0.000005\H,0,-3.332313,-0.519461,-0.000004\H,0,-2.553877,1.83345
 6,-0.000002\H,0,-0.130705,2.331482,0.000004\H,0,-1.685762,-2.372011,0.
 \H,0,0.739781,-1.870216,0.000006\B,0,2.000474,0.600002,0.000011\O,0,2.

 Normal termination of Gaussian 16 at Wed Apr  9 00:30:24 2025.
