 Gaussian 16, Revision C.01,

 ----------------------------------------------------------------------
 #t hf aug-cc-pvdz symm=none int=(grid=ultrafine) guess=(read,tcheck) s
 table=(opt,rrhf)
 ----------------------------------------------------------------------
 -----
 title
 -----
 Symbolic Z-matrix:
 Charge =  0 Multiplicity = 1

 SCF Done:  E(RHF) =  -667.299825487     A.U. after   15 cycles
 Normal termination of Gaussian 16 at Tue Apr  8 22:47:09 2025.
 Gaussian 16:  ES64L-G16RevC.01  3-Jul-2019

 ----------------------------------------------------------------------
 #t hf aug-cc-pvdz iop(5/13=1,5/36=2,99/5=2) pseudo=read geom=check gue
 ss=(read,tcheck) scf=(maxcycle=1)
 ----------------------------------------------------------------------
 -----
 title
 -----
 Structure from the checkpoint file:  "BDE49_expt_1560_mol1.chk"
 Charge =  0 Multiplicity = 1

                         Standard orientation:
 ---------------------------------------------------------------------
 Center     Atomic      Atomic             Coordinates (Angstroms)
 Number     Number       Type             X           Y           Z
 ---------------------------------------------------------------------
      1          6           0       -1.995058    1.204806   -0.157033
      2          6           0       -0.663302    1.203630    0.248765
      3          6           0        0.016509   -0.000001    0.460429
      4          6           0       -0.663303   -1.203631    0.248764
      5          6           0       -1.995059   -1.204805   -0.157035
      6          6           0       -2.664749    0.000001   -0.360249
      7          1           0       -2.510051    2.146077   -0.312885
      8          1           0       -0.144366    2.143962    0.403070
      9          1           0       -0.144369   -2.143963    0.403068
     10          1           0       -2.510053   -2.146075   -0.312888
     11          1           0       -3.702317    0.000002   -0.674431
     12          6           0        1.458452   -0.000002    0.894957
     13         16           0        2.559824    0.000001   -0.600941
     14          1           0        1.682224   -0.888255    1.485694
     15          1           0        1.682224    0.888250    1.485697
     16          1           0        3.728579   -0.000000    0.066135
 ---------------------------------------------------------------------

 SCF Done:  E(RHF) =  -668.840917323     A.U. after    2 cycles

 The electronic state is 1-A.
 Alpha  occ. eigenvalues --  -75.68538 -13.13979 -13.08054 -13.01638 -11.51811
 Alpha  occ. eigenvalues --  -11.44104 -11.43123 -11.41717 -11.40842 -11.40546
 Alpha  occ. eigenvalues --  -11.36316  -8.02316  -1.36026  -1.19651  -1.09215
 Alpha  occ. eigenvalues --   -1.07995  -0.94703  -0.86557  -0.82898  -0.70813
 Alpha  occ. eigenvalues --   -0.65257  -0.62728  -0.58520  -0.58090  -0.53359
 Alpha  occ. eigenvalues --   -0.53282  -0.48959  -0.44358  -0.43449  -0.39989
 Alpha  occ. eigenvalues --   -0.33179  -0.31241  -0.23774
 Alpha virt. eigenvalues --    0.03027   0.04175   0.05020   0.05465   0.05614
 Alpha virt. eigenvalues --    0.06093   0.07220   0.08182   0.09833   0.10782
 Alpha virt. eigenvalues --    0.11512   0.11761   0.12185   0.12457   0.13722

 Mulliken charges:
               1
     1  C   -1.369403
     2  C   -2.669283
     3  C    5.813022
     4  C   -2.669290
     5  C   -1.369409
     6  C   -3.046452
     7  H    1.495451
     8  H    1.707325
     9  H    1.707326
    10  H    1.495451
    11  H    1.519855
    12  C   -5.202447
    13  S   -0.516554
    14  H    1.124701
    15  H    1.124701
    16  H    0.855004
 Sum of Mulliken charges =   0.00000

 Dipole moment (field-independent basis, Debye):
    X=             -0.9738    Y=             -0.0000    Z=             -0.3741  Tot=              1.0432

 Test job not archived.
 1\1\GINC-SE362\SP\RHF\Aug-CC-pVDZ\C7H8S1\OHZDE\08-Apr-2025\0\\#t hf au
 g-cc-pvdz iop(5/13=1,5/36=2,99/5=2) pseudo=read geom=check guess=(read
 ,tcheck) scf=(maxcycle=1)\\title\\0,1\C,0,1.995058,-1.204806,-0.157033
 \C,0,0.663302,-1.20363,0.248765\C,0,-0.016509,0.000001,0.460429\C,0,0.
 663303,1.203631,0.248764\C,0,1.995059,1.204805,-0.157035\C,0,2.664749,
 -0.000001,-0.360249\H,0,2.510051,-2.146077,-0.312885\H,0,0.144366,-2.1
 43962,0.40307\H,0,0.144369,2.143963,0.403068\H,0,2.510053,2.146075,-0.
 312888\H,0,3.702317,-0.000002,-0.674431\C,0,-1.458452,0.000002,0.89495

 Normal termination of Gaussian 16 at Tue Apr  8 22:47:15 2025.
