 Gaussian 16, Revision C.01,

 ----------------------------------------------------------------------
 #t hf aug-cc-pvdz symm=none int=(grid=ultrafine) guess=(read,tcheck) s
 table=(opt,rrhf)
 ----------------------------------------------------------------------
 -----
 title
 -----
 Symbolic Z-matrix:
 Charge =  0 Multiplicity = 1

 SCF Done:  E(RHF) =  -1451.78050157     A.U. after   14 cycles
 Normal termination of Gaussian 16 at Wed Apr  9 00:01:04 2025.
 Gaussian 16:  ES64L-G16RevC.01  3-Jul-2019

 ----------------------------------------------------------------------
 #t hf aug-cc-pvdz iop(5/13=1,5/36=2,99/5=2) pseudo=read geom=check gue
 ss=(read,tcheck) scf=(maxcycle=1)
 ----------------------------------------------------------------------
 -----
 title
 -----
 Structure from the checkpoint file:  "BDE49_nonexpt_2110_mol1.chk"
 Charge =  0 Multiplicity = 1

                         Standard orientation:
 ---------------------------------------------------------------------
 Center     Atomic      Atomic             Coordinates (Angstroms)
 Number     Number       Type             X           Y           Z
 ---------------------------------------------------------------------
      1         14           0       -0.263211   -0.000055    0.323650
      2          7           0        1.521447   -0.001968   -0.250956
      3          8           0        1.754240   -0.000499   -1.450199
      4          8           0        2.368764   -0.002194    0.639707
      5          6           0       -0.307400   -0.000784    2.163399
      6          1           0        0.197733   -0.888911    2.548109
      7          1           0       -1.344399    0.000314    2.507452
      8          1           0        0.199861    0.885803    2.548860
      9         17           0       -1.090876    1.683123   -0.495623
     10         17           0       -1.094888   -1.680559   -0.497041
 ---------------------------------------------------------------------

 SCF Done:  E(RHF) =  -1453.46630304     A.U. after    2 cycles

 The electronic state is 1-A.
 Alpha  occ. eigenvalues --  -99.92630 -99.92628 -76.35508 -21.11015 -21.10808
 Alpha  occ. eigenvalues --  -15.97873 -11.40050 -10.50119 -10.50061  -9.69991
 Alpha  occ. eigenvalues --   -9.69961  -9.69424  -9.69363  -9.69349  -9.69199
 Alpha  occ. eigenvalues --   -5.69428  -2.32721  -2.32049  -2.31497  -1.98806
 Alpha  occ. eigenvalues --   -1.69795  -1.34894  -1.32086  -1.09641  -1.00751
 Alpha  occ. eigenvalues --   -0.77344  -0.69654  -0.68103  -0.63230  -0.62311
 Alpha  occ. eigenvalues --   -0.60778  -0.59905  -0.59314  -0.57688  -0.56048
 Alpha  occ. eigenvalues --   -0.54571  -0.49229  -0.33874  -0.33306  -0.32223
 Alpha virt. eigenvalues --    0.02284   0.05473   0.05859   0.05941   0.06537
 Alpha virt. eigenvalues --    0.07664   0.08319   0.08840   0.08858   0.11296
 Alpha virt. eigenvalues --    0.12609   0.13328   0.14041   0.14451   0.15084

 Mulliken charges:
               1
     1  Si   3.761853
     2  N    3.748730
     3  O   -2.576119
     4  O   -2.104680
     5  C   -4.877784
     6  H    1.307256
     7  H    1.184833
     8  H    1.307399
     9  Cl  -0.875675
    10  Cl  -0.875814
 Sum of Mulliken charges =  -0.00000

 Dipole moment (field-independent basis, Debye):
    X=             -1.2219    Y=              0.0008    Z=              2.3993  Tot=              2.6925

 Test job not archived.
 1\1\GINC-SE097\SP\RHF\Aug-CC-pVDZ\C1H3Cl2N1O2Si1\OHZDE\09-Apr-2025\0\\
 #t hf aug-cc-pvdz iop(5/13=1,5/36=2,99/5=2) pseudo=read geom=check gue
 ss=(read,tcheck) scf=(maxcycle=1)\\title\\0,1\Si,0,-0.263211,-0.000056
 ,0.32365\N,0,1.521447,-0.001967,-0.250956\O,0,1.75424,-0.000497,-1.450
 199\O,0,2.368764,-0.002192,0.639707\C,0,-0.3074,-0.000785,2.163399\H,0
 ,0.197734,-0.888911,2.548109\H,0,-1.344399,0.000312,2.507452\H,0,0.199
 86,0.885803,2.54886\Cl,0,-1.090878,1.683122,-0.495623\Cl,0,-1.094886,-
 1.68056,-0.497041\\Version=ES64L-G16RevC.01\State=1-A\HF=-1453.466303\

 Normal termination of Gaussian 16 at Wed Apr  9 00:01:08 2025.
