 Gaussian 16, Revision C.01,

 ----------------------------------------------------------------------
 #t hf aug-cc-pvdz symm=none int=(grid=ultrafine) guess=(read,tcheck) s
 table=(opt,rrhf)
 ----------------------------------------------------------------------
 -----
 title
 -----
 Symbolic Z-matrix:
 Charge =  0 Multiplicity = 1

 SCF Done:  E(RHF) =  -650.993760198     A.U. after   14 cycles
 Normal termination of Gaussian 16 at Wed Apr  9 00:04:28 2025.
 Gaussian 16:  ES64L-G16RevC.01  3-Jul-2019

 ----------------------------------------------------------------------
 #t hf aug-cc-pvdz iop(5/13=1,5/36=2,99/5=2) pseudo=read geom=check gue
 ss=(read,tcheck) scf=(maxcycle=1)
 ----------------------------------------------------------------------
 -----
 title
 -----
 Structure from the checkpoint file:  "BDE49_nonexpt_2172_mol1.chk"
 Charge =  0 Multiplicity = 1

                         Standard orientation:
 ---------------------------------------------------------------------
 Center     Atomic      Atomic             Coordinates (Angstroms)
 Number     Number       Type             X           Y           Z
 ---------------------------------------------------------------------
      1          6           0        1.905555   -0.351989   -0.671922
      2          8           0       -0.873739   -0.627583   -0.307538
      3          7           0       -2.188058   -0.269060    0.125414
      4          8           0       -2.965086   -1.102351   -0.132665
      5          6           0        2.243689   -1.709150   -0.028702
      6         14           0        0.380054    0.505572   -0.000405
      7          1           0        1.417990   -2.415321   -0.143635
      8          1           0        2.445928   -1.608624    1.041414
      9          1           0        3.130470   -2.155968   -0.486864
     10          6           0        0.478254    0.815914    1.842707
     11          1           0        1.301990    1.499308    2.073059
     12          1           0        0.646022   -0.110664    2.398227
     13          1           0       -0.444894    1.267898    2.215816
     14          6           0        0.016181    2.085816   -0.934138
     15          1           0        0.818316    2.815746   -0.784638
     16          1           0       -0.917390    2.542461   -0.593834
     17          1           0       -0.071346    1.900033   -2.008307
     18          1           0        1.768274   -0.475394   -1.752675
     19          1           0        2.748812    0.341854   -0.556837
 ---------------------------------------------------------------------

 SCF Done:  E(RHF) =  -652.821656791     A.U. after    2 cycles

 The electronic state is 1-A.
 Alpha  occ. eigenvalues --  -76.21777 -21.14918 -21.07150 -15.93242 -11.39781
 Alpha  occ. eigenvalues --  -11.35314 -11.35199 -11.34851  -5.56045  -2.22219
 Alpha  occ. eigenvalues --   -2.19965  -2.19447  -1.94971  -1.67694  -1.15399
 Alpha  occ. eigenvalues --   -1.05892  -1.02071  -0.94712  -0.89069  -0.70374
 Alpha  occ. eigenvalues --   -0.62114  -0.61760  -0.60457  -0.59275  -0.57785
 Alpha  occ. eigenvalues --   -0.56613  -0.55978  -0.55303  -0.54702  -0.49760
 Alpha  occ. eigenvalues --   -0.48987  -0.42425  -0.39030  -0.37283  -0.35092
 Alpha  occ. eigenvalues --   -0.29136
 Alpha virt. eigenvalues --    0.03090   0.04744   0.05349   0.05595   0.05968
 Alpha virt. eigenvalues --    0.06129   0.06901   0.06964   0.07784   0.08291
 Alpha virt. eigenvalues --    0.08852   0.09368   0.10261   0.10480   0.11393

 Mulliken charges:
               1
     1  C   -4.654060
     2  O   -3.438760
     3  N    2.473401
     4  O   -1.866705
     5  C   -3.940023
     6  Si  10.451536
     7  H    1.303001
     8  H    1.323329
     9  H    1.070114
    10  C   -5.911922
    11  H    1.124185
    12  H    1.150677
    13  H    1.072858
    14  C   -5.951297
    15  H    1.127823
    16  H    1.064510
    17  H    1.149019
    18  H    1.244596
    19  H    1.207717
 Sum of Mulliken charges =   0.00000

 Dipole moment (field-independent basis, Debye):
    X=              1.4991    Y=              0.1880    Z=             -0.2171  Tot=              1.5264

 Test job not archived.
 1\1\GINC-SE423\SP\RHF\Aug-CC-pVDZ\C4H11N1O2Si1\OHZDE\09-Apr-2025\0\\#t
  hf aug-cc-pvdz iop(5/13=1,5/36=2,99/5=2) pseudo=read geom=check guess
 =(read,tcheck) scf=(maxcycle=1)\\title\\0,1\C,0,1.905555,-0.351989,-0.
 671922\O,0,-0.873739,-0.627583,-0.307538\N,0,-2.188058,-0.26906,0.1254
 14\O,0,-2.965086,-1.102351,-0.132665\C,0,2.243689,-1.70915,-0.028702\S
 i,0,0.380054,0.505572,-0.000405\H,0,1.41799,-2.415321,-0.143635\H,0,2.
 445928,-1.608624,1.041414\H,0,3.13047,-2.155968,-0.486864\C,0,0.478254
 ,0.815914,1.842707\H,0,1.30199,1.499308,2.073059\H,0,0.646022,-0.11066

 Normal termination of Gaussian 16 at Wed Apr  9 00:04:37 2025.
