 Gaussian 16, Revision C.01,

 ----------------------------------------------------------------------
 #t hf aug-cc-pvdz symm=none int=(grid=ultrafine) guess=(read,tcheck) s
 table=(opt,rrhf)
 ----------------------------------------------------------------------
 -----
 title
 -----
 Symbolic Z-matrix:
 Charge =  0 Multiplicity = 1

 SCF Done:  E(RHF) =  -183.584866510     A.U. after   14 cycles
 Normal termination of Gaussian 16 at Wed Apr  9 00:41:57 2025.
 Gaussian 16:  ES64L-G16RevC.01  3-Jul-2019

 ----------------------------------------------------------------------
 #t hf aug-cc-pvdz iop(5/13=1,5/36=2,99/5=2) pseudo=read geom=check gue
 ss=(read,tcheck) scf=(maxcycle=1)
 ----------------------------------------------------------------------
 -----
 title
 -----
 Structure from the checkpoint file:  "BDE49_nonexpt_67_mol1.chk"
 Charge =  0 Multiplicity = 1

                         Standard orientation:
 ---------------------------------------------------------------------
 Center     Atomic      Atomic             Coordinates (Angstroms)
 Number     Number       Type             X           Y           Z
 ---------------------------------------------------------------------
      1          5           0       -2.286294   -0.272818   -0.326470
      2          5           0       -0.947659   -0.251933    0.614353
      3          6           0        0.475518    0.140177    0.076160
      4          7           0        0.750589    1.378908   -0.105690
      5          1           0       -0.061369    1.982996    0.063018
      6          6           0        1.549399   -0.888146   -0.160998
      7          1           0        1.234119   -1.612915   -0.919236
      8          1           0        1.753307   -1.451558    0.755784
      9          1           0        2.462289   -0.390394   -0.493924
     10          1           0       -1.016714   -0.489147    1.788737
     11          1           0       -2.904539    0.714788   -0.594517
     12          1           0       -2.700947   -1.294558   -0.790419
 ---------------------------------------------------------------------

 SCF Done:  E(RHF) =  -184.454104470     A.U. after    2 cycles

 The electronic state is 1-A.
 Alpha  occ. eigenvalues --  -15.73291 -11.42805 -11.37004  -7.61100  -7.60355
 Alpha  occ. eigenvalues --   -1.35290  -1.07458  -0.96154  -0.80592  -0.71866
 Alpha  occ. eigenvalues --   -0.59896  -0.57916  -0.52658  -0.51255  -0.48924
 Alpha  occ. eigenvalues --   -0.44734  -0.37048  -0.34166
 Alpha virt. eigenvalues --    0.02212   0.02427   0.02813   0.03735   0.06615
 Alpha virt. eigenvalues --    0.07065   0.07735   0.08029   0.08673   0.08977
 Alpha virt. eigenvalues --    0.09632   0.10326   0.10686   0.11314   0.12860

 Mulliken charges:
               1
     1  B    4.797838
     2  B    3.641810
     3  C    1.150561
     4  N   -3.127287
     5  H    0.863884
     6  C   -3.370258
     7  H    1.294584
     8  H    1.257339
     9  H    1.236415
    10  H   -2.615517
    11  H   -2.622171
    12  H   -2.507198
 Sum of Mulliken charges =   0.00000

 Dipole moment (field-independent basis, Debye):
    X=             -0.8179    Y=             -1.1748    Z=              0.2810  Tot=              1.4588

 Test job not archived.
 1\1\GINC-SE125\SP\RHF\Aug-CC-pVDZ\C2H7B2N1\OHZDE\09-Apr-2025\0\\#t hf
 aug-cc-pvdz iop(5/13=1,5/36=2,99/5=2) pseudo=read geom=check guess=(re
 ad,tcheck) scf=(maxcycle=1)\\title\\0,1\B,0,-2.286294,-0.272818,-0.326
 47\B,0,-0.947659,-0.251933,0.614353\C,0,0.475518,0.140177,0.07616\N,0,
 0.750589,1.378908,-0.10569\H,0,-0.061369,1.982996,0.063018\C,0,1.54939
 9,-0.888146,-0.160998\H,0,1.234119,-1.612915,-0.919236\H,0,1.753307,-1
 .451558,0.755784\H,0,2.462289,-0.390394,-0.493924\H,0,-1.016714,-0.489
 147,1.788737\H,0,-2.904539,0.714788,-0.594517\H,0,-2.700947,-1.294558,

 Normal termination of Gaussian 16 at Wed Apr  9 00:42:00 2025.
