 Gaussian 16, Revision C.01,

 ----------------------------------------------------------------------
 #t hf aug-cc-pvdz symm=none int=(grid=ultrafine) guess=(read,tcheck) s
 table=(opt,rrhf)
 ----------------------------------------------------------------------
 -----
 title
 -----
 Symbolic Z-matrix:
 Charge =  0 Multiplicity = 1

 SCF Done:  E(RHF) =  -513.792200550     A.U. after   13 cycles
 Normal termination of Gaussian 16 at Tue Apr  8 23:52:59 2025.
 Gaussian 16:  ES64L-G16RevC.01  3-Jul-2019

 ----------------------------------------------------------------------
 #t hf aug-cc-pvdz iop(5/13=1,5/36=2,99/5=2) pseudo=read geom=check gue
 ss=(read,tcheck) scf=(maxcycle=1)
 ----------------------------------------------------------------------
 -----
 title
 -----
 Structure from the checkpoint file:  "BDE49_nonexpt_1919_mol1.chk"
 Charge =  0 Multiplicity = 1

                         Standard orientation:
 ---------------------------------------------------------------------
 Center     Atomic      Atomic             Coordinates (Angstroms)
 Number     Number       Type             X           Y           Z
 ---------------------------------------------------------------------
      1         14           0        0.428435    0.689153    0.000064
      2          6           0       -0.785703   -0.772244   -0.000006
      3          6           0       -2.164907   -0.315772   -0.000198
      4          7           0       -3.244109    0.091313    0.000137
      5          6           0        2.129951   -0.047115    0.000204
      6          1           0        0.283170    1.497566    1.221170
      7          1           0        0.283416    1.497484   -1.221124
      8          7           0        3.181317   -0.526392   -0.000280
      9          1           0       -0.600657   -1.393396    0.881653
     10          1           0       -0.600521   -1.393459   -0.881589
 ---------------------------------------------------------------------

 SCF Done:  E(RHF) =  -514.947269366     A.U. after    2 cycles

 The electronic state is 1-A.
 Alpha  occ. eigenvalues --  -76.28803 -15.79412 -15.77520 -11.47610 -11.43493
 Alpha  occ. eigenvalues --  -11.41983  -5.62405  -2.26846  -2.25377  -2.24533
 Alpha  occ. eigenvalues --   -1.33437  -1.31872  -1.14058  -0.86871  -0.72085
 Alpha  occ. eigenvalues --   -0.66104  -0.65578  -0.55620  -0.53513  -0.53281
 Alpha  occ. eigenvalues --   -0.51738  -0.47847  -0.46931  -0.45086  -0.41708
 Alpha virt. eigenvalues --    0.02270   0.04122   0.05470   0.05761   0.06555
 Alpha virt. eigenvalues --    0.06596   0.08945   0.09314   0.09903   0.10746
 Alpha virt. eigenvalues --    0.11115   0.12541   0.13039   0.13412   0.13753

 Mulliken charges:
               1
     1  Si   6.046167
     2  C   -4.008827
     3  C    2.389160
     4  N   -2.269289
     5  C    0.329022
     6  H   -1.745277
     7  H   -1.745213
     8  N   -1.853377
     9  H    1.428767
    10  H    1.428867
 Sum of Mulliken charges =   0.00000

 Dipole moment (field-independent basis, Debye):
    X=              0.7707    Y=             -0.3543    Z=              0.0001  Tot=              0.8482

 Test job not archived.
 1\1\GINC-SE103\SP\RHF\Aug-CC-pVDZ\C3H4N2Si1\OHZDE\08-Apr-2025\0\\#t hf
  aug-cc-pvdz iop(5/13=1,5/36=2,99/5=2) pseudo=read geom=check guess=(r
 ead,tcheck) scf=(maxcycle=1)\\title\\0,1\Si,0,-0.428435,0.689153,-0.00
 0064\C,0,0.785703,-0.772244,0.000006\C,0,2.164907,-0.315772,0.000198\N
 ,0,3.244109,0.091313,-0.000137\C,0,-2.129951,-0.047115,-0.000204\H,0,-
 0.28317,1.497566,-1.22117\H,0,-0.283416,1.497484,1.221124\N,0,-3.18131
 7,-0.526392,0.00028\H,0,0.600657,-1.393396,-0.881653\H,0,0.600521,-1.3
 93459,0.881589\\Version=ES64L-G16RevC.01\State=1-A\HF=-514.9472694\RMS

 Normal termination of Gaussian 16 at Tue Apr  8 23:53:03 2025.
