 Gaussian 16, Revision C.01,

 ----------------------------------------------------------------------
 #t hf aug-cc-pvdz symm=none int=(grid=ultrafine) guess=(read,tcheck) s
 table=opt
 ----------------------------------------------------------------------
 -----
 title
 -----
 Symbolic Z-matrix:
 Charge =  0 Multiplicity = 2

 SCF Done:  E(UHF) =  -593.284031810     A.U. after   16 cycles

 1\1\GINC-SE455\Stability\UHF\Aug-CC-pVDZ\C5H11S1\OHZDE\09-Apr-2025\0\\
 #t hf aug-cc-pvdz symm=none int=(grid=ultrafine) guess=(read,tcheck) s
 table=opt\\title\\0,2\S,0,2.117204,0.003017,-0.000007\C,0,0.517026,0.8
 50013,-0.000113\C,0,-0.767031,-0.012837,0.000004\C,0,-1.967084,0.95457
 6,-0.000114\H,0,-1.959779,1.598327,0.885076\H,0,-2.909174,0.398924,-0.
 000038\H,0,-1.959788,1.5981,-0.885468\C,0,-0.817346,-0.893257,1.25962\
 H,0,-0.798442,-0.283841,2.16908\H,0,0.03274,-1.579273,1.293006\H,0,-1.
 734023,-1.489569,1.275881\C,0,-0.81736,-0.893581,-1.259385\H,0,-0.7984

 Normal termination of Gaussian 16 at Wed Apr  9 00:25:24 2025.
 Gaussian 16:  ES64L-G16RevC.01  3-Jul-2019

 ----------------------------------------------------------------------
 #t hf aug-cc-pvdz iop(5/13=1,5/36=2,99/5=2) pseudo=read geom=check gue
 ss=(read,tcheck) scf=(maxcycle=1)
 ----------------------------------------------------------------------
 -----
 title
 -----
 Structure from the checkpoint file:  "BDE49_nonexpt_2711_mol2.chk"
 Charge =  0 Multiplicity = 2

                         Standard orientation:
 ---------------------------------------------------------------------
 Center     Atomic      Atomic             Coordinates (Angstroms)
 Number     Number       Type             X           Y           Z
 ---------------------------------------------------------------------
      1         16           0        2.117204    0.003017   -0.000007
      2          6           0        0.517026    0.850013   -0.000113
      3          6           0       -0.767031   -0.012837    0.000004
      4          6           0       -1.967084    0.954576   -0.000114
      5          1           0       -1.959779    1.598327    0.885076
      6          1           0       -2.909174    0.398924   -0.000038
      7          1           0       -1.959788    1.598100   -0.885468
      8          6           0       -0.817346   -0.893257    1.259620
      9          1           0       -0.798442   -0.283841    2.169080
     10          1           0        0.032740   -1.579273    1.293006
     11          1           0       -1.734023   -1.489569    1.275881
     12          6           0       -0.817360   -0.893581   -1.259385
     13          1           0       -0.798468   -0.284399   -2.169002
     14          1           0       -1.734036   -1.489898   -1.275483
     15          1           0        0.032727   -1.579603   -1.292607
     16          1           0        0.531874    1.516623   -0.872380
     17          1           0        0.531875    1.516856    0.871975
 ---------------------------------------------------------------------

 SCF Done:  E(UHF) =  -594.505500846     A.U. after    2 cycles

 The electronic state is 2-A.
 Alpha  occ. eigenvalues --  -75.69912 -13.12905 -13.06494 -13.05056 -11.42497
 Alpha  occ. eigenvalues --  -11.40699 -11.38749 -11.38512 -11.34931  -8.03497
 Alpha  occ. eigenvalues --   -1.31452  -1.13929  -1.00705  -1.00437  -0.93396
 Alpha  occ. eigenvalues --   -0.77136  -0.64045  -0.63232  -0.60277  -0.57320
 Alpha  occ. eigenvalues --   -0.54608  -0.52435  -0.51307  -0.47522  -0.43925
 Alpha  occ. eigenvalues --   -0.42883  -0.38261  -0.28889  -0.23855
 Alpha virt. eigenvalues --    0.03368   0.05385   0.05535   0.05804   0.05823
 Alpha virt. eigenvalues --    0.06002   0.06240   0.06253   0.06364   0.09083
 Alpha virt. eigenvalues --    0.09422   0.09561   0.11843   0.13524   0.14366

  Beta  occ. eigenvalues --  -75.68932 -13.12327 -13.04475 -13.00574 -11.42581
  Beta  occ. eigenvalues --  -11.40724 -11.38753 -11.38510 -11.34939  -8.02401
  Beta  occ. eigenvalues --   -1.30899  -1.09570  -1.00684  -1.00415  -0.88861
  Beta  occ. eigenvalues --   -0.76543  -0.63326  -0.63166  -0.60099  -0.56687
  Beta  occ. eigenvalues --   -0.54540  -0.52142  -0.51265  -0.47273  -0.43841
  Beta  occ. eigenvalues --   -0.42720  -0.37673  -0.22323
  Beta virt. eigenvalues --    0.03404   0.04157   0.05415   0.05612   0.05818
  Beta virt. eigenvalues --    0.05838   0.06035   0.06330   0.06408   0.07706
  Beta virt. eigenvalues --    0.09127   0.09446   0.09652   0.11914   0.13652

 Mulliken charges and spin densities:
               1          2
     1  S    0.328180   1.173379
     2  C   -4.869370  -0.149633
     3  C    5.240461  -0.055536
     4  C   -4.573334   0.004593
     5  H    1.225044  -0.001919
     6  H    1.243195   0.000396
     7  H    1.225043  -0.001919
     8  C   -4.942358   0.036699
     9  H    1.173680   0.002903
    10  H    1.226091  -0.030080
    11  H    1.229894   0.001692
    12  C   -4.942362   0.036697
    13  H    1.173685   0.002903
    14  H    1.229894   0.001691
    15  H    1.226089  -0.030080
    16  H    1.403088   0.004106
    17  H    1.403080   0.004107
 Sum of Mulliken charges =   0.00000   1.00000

 Dipole moment (field-independent basis, Debye):
    X=             -0.1379    Y=             -0.0245    Z=              0.0000  Tot=              0.1401
                          Isotropic Fermi Contact Couplings
        Atom                 a.u.       MegaHertz       Gauss      10(-4) cm-1
     1  S(33)              0.25807      88.64119      31.62938      29.56752
     2  C(13)             -0.01672     -18.79524      -6.70661      -6.26942
     3  C(13)             -0.00042      -0.46920      -0.16742      -0.15651
     4  C(13)             -0.00104      -1.17105      -0.41786      -0.39062
     5  H(1)               0.00000       0.01912       0.00682       0.00638
     6  H(1)              -0.00014      -0.63416      -0.22628      -0.21153
     7  H(1)               0.00000       0.01911       0.00682       0.00637
     8  C(13)             -0.00038      -0.43148      -0.15396      -0.14393

 Normal termination of Gaussian 16 at Wed Apr  9 00:25:31 2025.
