 Gaussian 16, Revision C.01,

 ----------------------------------------------------------------------
 #t hf aug-cc-pvdz symm=none int=(grid=ultrafine) guess=(read,tcheck) s
 table=(opt,rrhf)
 ----------------------------------------------------------------------
 -----
 title
 -----
 Symbolic Z-matrix:
 Charge =  0 Multiplicity = 1

 SCF Done:  E(RHF) =  -1080.31713254     A.U. after   16 cycles
 Normal termination of Gaussian 16 at Tue Apr  8 23:32:42 2025.
 Gaussian 16:  ES64L-G16RevC.01  3-Jul-2019

 ----------------------------------------------------------------------
 #t hf aug-cc-pvdz iop(5/13=1,5/36=2,99/5=2) pseudo=read geom=check gue
 ss=(read,tcheck) scf=(maxcycle=1)
 ----------------------------------------------------------------------
 -----
 title
 -----
 Structure from the checkpoint file:  "BDE49_nonexpt_1372_mol1.chk"
 Charge =  0 Multiplicity = 1

                         Standard orientation:
 ---------------------------------------------------------------------
 Center     Atomic      Atomic             Coordinates (Angstroms)
 Number     Number       Type             X           Y           Z
 ---------------------------------------------------------------------
      1          9           0        3.230211    0.416192   -0.001203
      2         15           0        1.816166    0.232255   -0.835941
      3          6           0        0.802031   -0.084934    0.729030
      4          7           0        1.107299   -1.369607    1.343312
      5          1           0        2.106470   -1.537332    1.313528
      6          1           0        0.820051   -1.387595    2.317413
      7          6           0       -0.694330   -0.038406    0.484798
      8          9           0       -1.398614   -0.279697    1.602001
      9          7           0       -1.181933    1.352315   -0.022640
     10          8           0       -1.964003    1.370913   -0.946717
     11          8           0       -0.755616    2.296277    0.611480
     12          7           0       -1.128719   -1.063301   -0.581383
     13          8           0       -2.079016   -1.761008   -0.346163
     14          8           0       -0.439445   -1.048749   -1.590486
     15          1           0        2.009881   -1.135784   -1.134996
     16          1           0        1.018643    0.793162    1.353088
 ---------------------------------------------------------------------

 SCF Done:  E(RHF) =  -1083.50085554     A.U. after    2 cycles

 The electronic state is 1-A.
 Alpha  occ. eigenvalues -- -105.27347 -29.36582 -29.28309 -21.15533 -21.15242
 Alpha  occ. eigenvalues --  -21.14664 -21.13851 -16.05000 -16.04718 -15.78664
 Alpha  occ. eigenvalues --  -11.65373 -11.48587  -2.84806  -2.06239  -2.03958
 Alpha  occ. eigenvalues --   -1.75465  -1.75060  -1.57743  -1.56361  -1.52862
 Alpha  occ. eigenvalues --   -1.42791  -1.32691  -1.05761  -1.03280  -0.95953
 Alpha  occ. eigenvalues --   -0.84788  -0.80239  -0.79536  -0.72865  -0.70919
 Alpha  occ. eigenvalues --   -0.68197  -0.67430  -0.65136  -0.64608  -0.60911
 Alpha  occ. eigenvalues --   -0.52192  -0.49341  -0.45059  -0.43521  -0.42167
 Alpha  occ. eigenvalues --   -0.38556  -0.37221  -0.36159  -0.34915  -0.34876
 Alpha  occ. eigenvalues --   -0.34202  -0.33474  -0.31677  -0.26642  -0.22762
 Alpha  occ. eigenvalues --   -0.02579
 Alpha virt. eigenvalues --    0.03885   0.05547   0.06323   0.06573   0.09037
 Alpha virt. eigenvalues --    0.09834   0.09946   0.10061   0.11567   0.11828
 Alpha virt. eigenvalues --    0.12256   0.13711   0.14465   0.15171   0.15748

 Mulliken charges:
               1
     1  F   -0.400636
     2  P    2.193369
     3  C   -0.940845
     4  N   -2.753916
     5  H    0.770602
     6  H    0.476275
     7  C    2.882274
     8  F    0.714622
     9  N    4.455214
    10  O   -2.929874
    11  O   -3.148111
    12  N    3.996853
    13  O   -2.825310
    14  O   -2.905403
    15  H   -1.191118
    16  H    1.606005
 Sum of Mulliken charges =  -0.00000

 Dipole moment (field-independent basis, Debye):
    X=              2.6274    Y=              0.1167    Z=              4.5526  Tot=              5.2576

 Test job not archived.
 1\1\GINC-SE361\SP\RHF\Aug-CC-pVDZ\C2H4F2N3O4P1\OHZDE\08-Apr-2025\0\\#t
  hf aug-cc-pvdz iop(5/13=1,5/36=2,99/5=2) pseudo=read geom=check guess
 =(read,tcheck) scf=(maxcycle=1)\\title\\0,1\F,0,3.230211,0.416193,-0.0
 01203\P,0,1.816166,0.232255,-0.835941\C,0,0.802031,-0.084934,0.72903\N
 ,0,1.107299,-1.369607,1.343312\H,0,2.10647,-1.537331,1.313528\H,0,0.82
 0051,-1.387595,2.317413\C,0,-0.69433,-0.038406,0.484798\F,0,-1.398614,
 -0.279697,1.602001\N,0,-1.181933,1.352315,-0.02264\O,0,-1.964003,1.370
 913,-0.946717\O,0,-0.755616,2.296277,0.61148\N,0,-1.128719,-1.063301,-

 Normal termination of Gaussian 16 at Tue Apr  8 23:32:52 2025.
