 Gaussian 16, Revision C.01,

 ----------------------------------------------------------------------
 #t hf aug-cc-pvdz symm=none int=(grid=ultrafine) guess=(read,tcheck) s
 table=opt
 ----------------------------------------------------------------------
 -----
 title
 -----
 Symbolic Z-matrix:
 Charge =  0 Multiplicity = 2

 SCF Done:  E(UHF) =  -416.731723464     A.U. after   18 cycles
 Normal termination of Gaussian 16 at Tue Apr  8 23:17:47 2025.
 Gaussian 16:  ES64L-G16RevC.01  3-Jul-2019

 ----------------------------------------------------------------------
 #t hf aug-cc-pvdz iop(5/13=1,5/36=2,99/5=2) pseudo=read geom=check gue
 ss=(read,tcheck) scf=(maxcycle=1)
 ----------------------------------------------------------------------
 -----
 title
 -----
 Structure from the checkpoint file:  "BDE49_nonexpt_1028_mol2.chk"
 Charge =  0 Multiplicity = 2

                         Standard orientation:
 ---------------------------------------------------------------------
 Center     Atomic      Atomic             Coordinates (Angstroms)
 Number     Number       Type             X           Y           Z
 ---------------------------------------------------------------------
      1          8           0       -1.067278   -0.000001    0.056654
      2         15           0        0.426706   -0.000002   -0.100517
      3          1           0        1.068837   -1.102160    0.527272
      4          1           0        1.068803    1.102195    0.527254
 ---------------------------------------------------------------------

 SCF Done:  E(UHF) =  -417.219471642     A.U. after    2 cycles

 The electronic state is 2-A.
 Alpha  occ. eigenvalues -- -105.25368 -21.08213  -2.84857  -1.87840  -1.50499
 Alpha  occ. eigenvalues --   -1.48911  -1.32960  -0.71353  -0.41026  -0.38682
 Alpha  occ. eigenvalues --   -0.29414  -0.23009  -0.03431
 Alpha virt. eigenvalues --    0.04426   0.07248   0.08149   0.10777   0.12509
 Alpha virt. eigenvalues --    0.17524   0.19957   0.22023   0.23757   0.25472
 Alpha virt. eigenvalues --    0.28100   0.28777   0.33788   0.35092   0.36075

  Beta  occ. eigenvalues -- -105.25046 -21.05965  -2.84072  -1.84807  -1.50135
  Beta  occ. eigenvalues --   -1.41700  -1.25380  -0.67058  -0.36793  -0.27227
  Beta  occ. eigenvalues --   -0.22146  -0.16758
  Beta virt. eigenvalues --    0.04390   0.07316   0.07499   0.08201   0.11168
  Beta virt. eigenvalues --    0.15165   0.20183   0.21730   0.23382   0.24385
  Beta virt. eigenvalues --    0.27401   0.28640   0.29506   0.33882   0.36398

 Mulliken charges and spin densities:
               1          2
     1  O   -2.006396   0.159019
     2  P    3.429894   0.792079
     3  H   -0.711738   0.024448
     4  H   -0.711760   0.024454
 Sum of Mulliken charges =  -0.00000   1.00000

 Dipole moment (field-independent basis, Debye):
    X=              2.7287    Y=             -0.0001    Z=             -1.2047  Tot=              2.9828
                          Isotropic Fermi Contact Couplings
        Atom                 a.u.       MegaHertz       Gauss      10(-4) cm-1
     1  O(17)              0.17230    -104.45017     -37.27042     -34.84083
     2  P(31)              0.23556     426.61339     152.22627     142.30291
     3  H(1)               0.01619      72.34910      25.81596      24.13306
     4  H(1)               0.01619      72.34781      25.81550      24.13263
 --------------------------------------------------------
       Center         ----  Spin Dipole Couplings  ----
                      3XX-RR        3YY-RR        3ZZ-RR
 --------------------------------------------------------

 Normal termination of Gaussian 16 at Tue Apr  8 23:17:48 2025.
