 Gaussian 16, Revision C.01,

 ----------------------------------------------------------------------
 #t hf aug-cc-pvdz symm=none int=(grid=ultrafine) guess=(read,tcheck) s
 table=(opt,rrhf)
 ----------------------------------------------------------------------
 -----
 title
 -----
 Symbolic Z-matrix:
 Charge =  0 Multiplicity = 1

 SCF Done:  E(RHF) =  -142.327571785     A.U. after   12 cycles
 Normal termination of Gaussian 16 at Wed Apr  9 00:28:43 2025.
 Gaussian 16:  ES64L-G16RevC.01  3-Jul-2019

 ----------------------------------------------------------------------
 #t hf aug-cc-pvdz iop(5/13=1,5/36=2,99/5=2) pseudo=read geom=check gue
 ss=(read,tcheck) scf=(maxcycle=1)
 ----------------------------------------------------------------------
 -----
 title
 -----
 Structure from the checkpoint file:  "BDE49_nonexpt_301_mol1.chk"
 Charge =  0 Multiplicity = 1

                         Standard orientation:
 ---------------------------------------------------------------------
 Center     Atomic      Atomic             Coordinates (Angstroms)
 Number     Number       Type             X           Y           Z
 ---------------------------------------------------------------------
      1          5           0       -1.660503   -0.000030   -0.186160
      2          6           0       -0.314396   -0.000023    0.524372
      3          6           0        0.869317    0.737723   -0.146807
      4          6           0        0.869331   -0.737704   -0.146854
      5          1           0       -0.273012   -0.000057    1.608863
      6          1           0        0.667114   -1.259193   -1.073887
      7          1           0        1.538329   -1.257857    0.527870
      8          1           0        1.538308    1.257845    0.527948
      9          1           0        0.667090    1.259267   -1.073807
     10          1           0       -1.687460    0.000135   -1.382545
     11          1           0       -2.693372    0.000035    0.412091
 ---------------------------------------------------------------------

 SCF Done:  E(RHF) =  -143.052819325     A.U. after    2 cycles

 The electronic state is 1-A.
 Alpha  occ. eigenvalues --  -11.41499 -11.39823 -11.34197  -7.59795  -1.30380
 Alpha  occ. eigenvalues --   -0.93163  -0.85896  -0.76429  -0.66712  -0.59556
 Alpha  occ. eigenvalues --   -0.51049  -0.48743  -0.43556  -0.39729  -0.38214
 Alpha virt. eigenvalues --    0.03828   0.03987   0.04148   0.04546   0.06274
 Alpha virt. eigenvalues --    0.06829   0.07725   0.07830   0.10888   0.11088
 Alpha virt. eigenvalues --    0.12024   0.13020   0.13656   0.14202   0.14799

 Mulliken charges:
               1
     1  B    7.313079
     2  C   -1.573238
     3  C   -2.614055
     4  C   -2.613825
     5  H    1.453877
     6  H    1.199418
     7  H    1.218831
     8  H    1.218792
     9  H    1.199454
    10  H   -3.127166
    11  H   -3.675166
 Sum of Mulliken charges =  -0.00000

 Dipole moment (field-independent basis, Debye):
    X=              1.2272    Y=             -0.0002    Z=              0.3083  Tot=              1.2654

 Test job not archived.
 1\1\GINC-SE284\SP\RHF\Aug-CC-pVDZ\C3H7B1\OHZDE\09-Apr-2025\0\\#t hf au
 g-cc-pvdz iop(5/13=1,5/36=2,99/5=2) pseudo=read geom=check guess=(read
 ,tcheck) scf=(maxcycle=1)\\title\\0,1\B,0,1.660503,0.00003,-0.18616\C,
 0,0.314396,0.000023,0.524372\C,0,-0.869317,-0.737723,-0.146807\C,0,-0.
 869331,0.737704,-0.146854\H,0,0.273012,0.000057,1.608863\H,0,-0.667114
 ,1.259193,-1.073887\H,0,-1.538329,1.257857,0.52787\H,0,-1.538308,-1.25
 7845,0.527948\H,0,-0.66709,-1.259267,-1.073807\H,0,1.68746,-0.000135,-
 1.382545\H,0,2.693372,-0.000036,0.412091\\Version=ES64L-G16RevC.01\Sta

 Normal termination of Gaussian 16 at Wed Apr  9 00:28:46 2025.
