 Gaussian 16, Revision C.01,

 ----------------------------------------------------------------------
 #t hf aug-cc-pvdz symm=none int=(grid=ultrafine) guess=(read,tcheck) s
 table=opt
 ----------------------------------------------------------------------
 -----
 title
 -----
 Symbolic Z-matrix:
 Charge =  0 Multiplicity = 2

 SCF Done:  E(UHF) =  -181.922189272     A.U. after   15 cycles

 1\1\GINC-SE419\Stability\UHF\Aug-CC-pVDZ\C4H10B1\OHZDE\09-Apr-2025\0\\
 #t hf aug-cc-pvdz symm=none int=(grid=ultrafine) guess=(read,tcheck) s
 table=opt\\title\\0,2\H,0,-1.428665,1.839893,1.025784\B,0,-1.52938,1.2
 78464,-0.022302\C,0,-1.412364,-0.23467,-0.307409\C,0,-0.253266,-0.9865
 86,0.394211\H,0,-2.373599,-0.616504,0.087246\C,0,1.124964,-0.619298,-0
 .174459\H,0,-0.405606,-2.06626,0.287493\H,0,-0.274869,-0.770283,1.4684
 78\C,0,1.496001,0.855378,-0.005043\H,0,1.154892,-0.882963,-1.238601\H,
 0,1.884302,-1.239285,0.314781\H,0,0.782516,1.518384,-0.515756\H,0,2.47

 Normal termination of Gaussian 16 at Wed Apr  9 00:36:11 2025.
 Gaussian 16:  ES64L-G16RevC.01  3-Jul-2019

 ----------------------------------------------------------------------
 #t hf aug-cc-pvdz iop(5/13=1,5/36=2,99/5=2) pseudo=read geom=check gue
 ss=(read,tcheck) scf=(maxcycle=1)
 ----------------------------------------------------------------------
 -----
 title
 -----
 Structure from the checkpoint file:  "BDE49_nonexpt_471_mol2.chk"
 Charge =  0 Multiplicity = 2

                         Standard orientation:
 ---------------------------------------------------------------------
 Center     Atomic      Atomic             Coordinates (Angstroms)
 Number     Number       Type             X           Y           Z
 ---------------------------------------------------------------------
      1          1           0       -1.428664    1.839894    1.025784
      2          5           0       -1.529380    1.278465   -0.022302
      3          6           0       -1.412364   -0.234669   -0.307409
      4          6           0       -0.253266   -0.986586    0.394211
      5          1           0       -2.373599   -0.616503    0.087246
      6          6           0        1.124964   -0.619298   -0.174459
      7          1           0       -0.405607   -2.066260    0.287493
      8          1           0       -0.274869   -0.770283    1.468478
      9          6           0        1.496001    0.855378   -0.005043
     10          1           0        1.154892   -0.882963   -1.238601
     11          1           0        1.884302   -1.239286    0.314781
     12          1           0        0.782517    1.518384   -0.515756
     13          1           0        2.477745    1.070991   -0.435066
     14          1           0        1.520768    1.143227    1.049842
     15          1           0       -1.422595   -0.478468   -1.376491
 ---------------------------------------------------------------------

 SCF Done:  E(UHF) =  -182.844626245     A.U. after    2 cycles

 The electronic state is 2-A.
 Alpha  occ. eigenvalues --  -11.42238 -11.39490 -11.36058 -11.33703  -7.62273
 Alpha  occ. eigenvalues --   -1.24868  -1.08737  -0.95355  -0.82637  -0.73460
 Alpha  occ. eigenvalues --   -0.63743  -0.61218  -0.57995  -0.53271  -0.51743
 Alpha  occ. eigenvalues --   -0.46991  -0.45629  -0.44112  -0.42196  -0.27894
 Alpha virt. eigenvalues --    0.03726   0.03950   0.04326   0.04663   0.05970
 Alpha virt. eigenvalues --    0.06040   0.06541   0.06836   0.07328   0.08705
 Alpha virt. eigenvalues --    0.09697   0.10511   0.11640   0.12165   0.13520

  Beta  occ. eigenvalues --  -11.42194 -11.39457 -11.36060 -11.33688  -7.60566
  Beta  occ. eigenvalues --   -1.24556  -1.08239  -0.94621  -0.82174  -0.70153
  Beta  occ. eigenvalues --   -0.63675  -0.60766  -0.57079  -0.53167  -0.51090
  Beta  occ. eigenvalues --   -0.46594  -0.45189  -0.43655  -0.41449
  Beta virt. eigenvalues --    0.03695   0.03868   0.04270   0.04362   0.05973
  Beta virt. eigenvalues --    0.06078   0.06520   0.06817   0.07350   0.08725
  Beta virt. eigenvalues --    0.09698   0.10267   0.10569   0.12204   0.13142

 Mulliken charges and spin densities:
               1          2
     1  H   -1.180622  -0.030400
     2  B    1.502030   1.070384
     3  C   -3.437631  -0.080612
     4  C   -2.763996   0.068509
     5  H    1.553833  -0.021525
     6  C   -2.935113  -0.007905
     7  H    1.301475  -0.002862
     8  H    1.362905  -0.003341
     9  C   -3.689464   0.002263
    10  H    1.423209  -0.001334
    11  H    1.283753   0.000304
    12  H    1.370998  -0.008808
    13  H    1.154014  -0.000467
    14  H    1.332700  -0.000542
    15  H    1.721909   0.016337
 Sum of Mulliken charges =  -0.00000   1.00000

 Dipole moment (field-independent basis, Debye):
    X=              0.5973    Y=             -1.3589    Z=              0.3530  Tot=              1.5258
                          Isotropic Fermi Contact Couplings
        Atom                 a.u.       MegaHertz       Gauss      10(-4) cm-1
     1  H(1)               0.00719      32.13404      11.46622      10.71876
     2  B(11)              0.16816     241.20480      86.06787      80.45726
     3  C(13)              0.01025      11.52563       4.11263       3.84454
     4  C(13)              0.02137      24.02924       8.57423       8.01529
     5  H(1)              -0.00029      -1.29913      -0.46356      -0.43334
     6  C(13)             -0.00101      -1.13302      -0.40429      -0.37794
     7  H(1)               0.00131       5.85071       2.08768       1.95159
     8  H(1)              -0.00028      -1.26103      -0.44997      -0.42064

 Normal termination of Gaussian 16 at Wed Apr  9 00:36:15 2025.
