 Gaussian 16, Revision C.01,

 ----------------------------------------------------------------------
 #t hf aug-cc-pvdz symm=none int=(grid=ultrafine) guess=(read,tcheck) s
 table=opt
 ----------------------------------------------------------------------
 -----
 title
 -----
 Symbolic Z-matrix:
 Charge =  0 Multiplicity = 2

 SCF Done:  E(UHF) =  -824.171896308     A.U. after   27 cycles
 Normal termination of Gaussian 16 at Wed Apr  9 00:07:02 2025.
 Gaussian 16:  ES64L-G16RevC.01  3-Jul-2019

 ----------------------------------------------------------------------
 #t hf aug-cc-pvdz iop(5/13=1,5/36=2,99/5=2) pseudo=read geom=check gue
 ss=(read,tcheck) scf=(maxcycle=1)
 ----------------------------------------------------------------------
 -----
 title
 -----
 Structure from the checkpoint file:  "BDE49_nonexpt_222_mol2.chk"
 Charge =  0 Multiplicity = 2

                         Standard orientation:
 ---------------------------------------------------------------------
 Center     Atomic      Atomic             Coordinates (Angstroms)
 Number     Number       Type             X           Y           Z
 ---------------------------------------------------------------------
      1          5           0        1.643110    0.192260   -0.610315
      2         17           0        3.078151   -0.491139    0.018641
      3          6           0        0.297087    0.580500    0.053897
      4          8           0        0.125604    1.640816    0.591941
      5          8           0       -0.667445   -0.411558   -0.070279
      6          6           0       -2.043265   -0.111094   -0.126486
      7          8           0       -2.462636    0.940185   -0.488983
      8          6           0       -2.831438   -1.320814    0.286946
      9          1           0       -2.638727   -1.535379    1.341164
     10          1           0       -2.512119   -2.192140   -0.288085
     11          1           0       -3.891754   -1.131512    0.134028
 ---------------------------------------------------------------------

 SCF Done:  E(UHF) =  -825.908631094     A.U. after    2 cycles

 The electronic state is 2-A.
 Alpha  occ. eigenvalues --  -99.93626 -21.12225 -21.09119 -21.07981 -11.55102
 Alpha  occ. eigenvalues --  -11.50781 -11.41279 -10.50865  -9.70815  -9.70413
 Alpha  occ. eigenvalues --   -9.70152  -7.72105  -1.88338  -1.73975  -1.67521
 Alpha  occ. eigenvalues --   -1.38693  -1.13562  -0.97644  -0.83059  -0.71373
 Alpha  occ. eigenvalues --   -0.66259  -0.64801  -0.63499  -0.60111  -0.59602
 Alpha  occ. eigenvalues --   -0.58207  -0.55108  -0.52314  -0.50053  -0.44959
 Alpha  occ. eigenvalues --   -0.36886  -0.35199  -0.33314  -0.28145
 Alpha virt. eigenvalues --    0.03030   0.03591   0.03863   0.04165   0.05468
 Alpha virt. eigenvalues --    0.05944   0.06629   0.07617   0.10452   0.11365
 Alpha virt. eigenvalues --    0.12451   0.12671   0.13352   0.14066   0.15137

  Beta  occ. eigenvalues --  -99.93565 -21.12287 -21.08338 -21.07989 -11.55091
  Beta  occ. eigenvalues --  -11.50984 -11.41278 -10.50794  -9.70803  -9.70205
  Beta  occ. eigenvalues --   -9.70064  -7.70154  -1.88306  -1.73264  -1.66887
  Beta  occ. eigenvalues --   -1.37842  -1.13514  -0.95750  -0.81530  -0.70698
  Beta  occ. eigenvalues --   -0.66057  -0.64739  -0.63061  -0.59450  -0.58218
  Beta  occ. eigenvalues --   -0.57579  -0.54941  -0.51753  -0.49373  -0.44294
  Beta  occ. eigenvalues --   -0.34558  -0.33159  -0.29329
  Beta virt. eigenvalues --    0.01997   0.03419   0.04089   0.04276   0.04997
  Beta virt. eigenvalues --    0.06043   0.06393   0.07849   0.08430   0.11254
  Beta virt. eigenvalues --    0.12383   0.12560   0.13195   0.13551   0.14204

 Mulliken charges and spin densities:
               1          2
     1  B    1.672268   0.916045
     2  Cl  -1.050668   0.058767
     3  C    2.956065  -0.245560
     4  O   -2.441589   0.247321
     5  O   -2.881365  -0.003871
     6  C    5.079672   0.020014
     7  O   -2.933079  -0.000439
     8  C   -4.225072   0.008311
     9  H    1.320586  -0.000936
    10  H    1.292660   0.000501
    11  H    1.210520  -0.000153
 Sum of Mulliken charges =  -0.00000   1.00000

 Dipole moment (field-independent basis, Debye):
    X=             -0.5930    Y=             -1.5648    Z=              0.5228  Tot=              1.7531
                          Isotropic Fermi Contact Couplings
        Atom                 a.u.       MegaHertz       Gauss      10(-4) cm-1
     1  B(11)              0.22013     315.75169     112.66806     105.32343
     2  Cl(35)             0.09471      41.52622      14.81759      13.85166
     3  C(13)              0.00710       7.98360       2.84875       2.66304
     4  O(17)              0.04290     -26.00502      -9.27924      -8.67434
     5  O(17)             -0.00714       4.32885       1.54464       1.44395
     6  C(13)              0.00162       1.82012       0.64946       0.60713
     7  O(17)             -0.00029       0.17649       0.06298       0.05887
     8  C(13)              0.00013       0.15052       0.05371       0.05021

 1\1\GINC-SE419\SP\UHF\Aug-CC-pVDZ\C3H3B1Cl1O3(2)\OHZDE\09-Apr-2025\0\\
 #t hf aug-cc-pvdz iop(5/13=1,5/36=2,99/5=2) pseudo=read geom=check gue
 ss=(read,tcheck) scf=(maxcycle=1)\\title\\0,2\B,0,1.64311,0.19226,-0.6
 10315\Cl,0,3.078151,-0.491139,0.018641\C,0,0.297087,0.5805,0.053897\O,
 0,0.125604,1.640816,0.591941\O,0,-0.667445,-0.411558,-0.070279\C,0,-2.
 043265,-0.111094,-0.126486\O,0,-2.462636,0.940185,-0.488983\C,0,-2.831
 438,-1.320814,0.286946\H,0,-2.638727,-1.535379,1.341164\H,0,-2.512119,
 -2.19214,-0.288085\H,0,-3.891754,-1.131512,0.134028\\Version=ES64L-G16

 Normal termination of Gaussian 16 at Wed Apr  9 00:07:07 2025.
