 Gaussian 16, Revision C.01,

 ----------------------------------------------------------------------
 #t hf aug-cc-pvdz symm=none int=(grid=ultrafine) guess=(read,tcheck) s
 table=(opt,rrhf)
 ----------------------------------------------------------------------
 -----
 title
 -----
 Symbolic Z-matrix:
 Charge =  0 Multiplicity = 1

 SCF Done:  E(RHF) =  -293.420856655     A.U. after   12 cycles
 Normal termination of Gaussian 16 at Wed Apr  9 00:24:00 2025.
 Gaussian 16:  ES64L-G16RevC.01  3-Jul-2019

 ----------------------------------------------------------------------
 #t hf aug-cc-pvdz iop(5/13=1,5/36=2,99/5=2) pseudo=read geom=check gue
 ss=(read,tcheck) scf=(maxcycle=1)
 ----------------------------------------------------------------------
 -----
 title
 -----
 Structure from the checkpoint file:  "BDE49_nonexpt_267_mol1.chk"
 Charge =  0 Multiplicity = 1

                         Standard orientation:
 ---------------------------------------------------------------------
 Center     Atomic      Atomic             Coordinates (Angstroms)
 Number     Number       Type             X           Y           Z
 ---------------------------------------------------------------------
      1          6           0       -0.276937   -0.617410    0.000021
      2          5           0        1.199654   -0.054398    0.000026
      3          8           0        1.516385    1.282136   -0.000019
      4          8           0        2.238790   -0.940280   -0.000005
      5          6           0       -1.408647    0.422159   -0.000004
      6          6           0       -2.810461   -0.194878   -0.000002
      7          1           0       -2.960546   -0.824168    0.882516
      8          1           0       -2.960536   -0.824197   -0.882501
      9          1           0       -3.589382    0.572912   -0.000019
     10          1           0       -1.310742    1.074252   -0.878243
     11          1           0       -1.310753    1.074280    0.878216
     12          1           0        0.747435    1.857785   -0.000029
     13          1           0        3.090215   -0.489467   -0.000027
     14          1           0       -0.384548   -1.281727    0.868026
     15          1           0       -0.384538   -1.281756   -0.867963
 ---------------------------------------------------------------------

 SCF Done:  E(RHF) =  -294.764046960     A.U. after    2 cycles

 The electronic state is 1-A.
 Alpha  occ. eigenvalues --  -21.05685 -21.04566 -11.41338 -11.37426 -11.33489
 Alpha  occ. eigenvalues --   -7.62513  -1.81180  -1.64683  -1.20971  -1.01189
 Alpha  occ. eigenvalues --   -0.85969  -0.73233  -0.64032  -0.63777  -0.58950
 Alpha  occ. eigenvalues --   -0.56354  -0.54148  -0.48109  -0.47508  -0.46530
 Alpha  occ. eigenvalues --   -0.44869  -0.40618  -0.35843  -0.35770
 Alpha virt. eigenvalues --    0.03502   0.04477   0.04853   0.05118   0.06020
 Alpha virt. eigenvalues --    0.06842   0.06951   0.07042   0.08256   0.09166
 Alpha virt. eigenvalues --    0.09708   0.10401   0.10770   0.12718   0.14638

 Mulliken charges:
               1
     1  C   -4.014530
     2  B    7.471371
     3  O   -3.906061
     4  O   -4.329885
     5  C   -3.310077
     6  C   -3.656598
     7  H    1.236427
     8  H    1.236426
     9  H    1.098137
    10  H    1.261425
    11  H    1.261420
    12  H    1.572196
    13  H    1.025415
    14  H    1.527188
    15  H    1.527147
 Sum of Mulliken charges =  -0.00000

 Dipole moment (field-independent basis, Debye):
    X=             -0.6039    Y=              0.8650    Z=              0.0000  Tot=              1.0549

 Test job not archived.
 1\1\GINC-SE058\SP\RHF\Aug-CC-pVDZ\C3H9B1O2\OHZDE\09-Apr-2025\0\\#t hf
 aug-cc-pvdz iop(5/13=1,5/36=2,99/5=2) pseudo=read geom=check guess=(re
 ad,tcheck) scf=(maxcycle=1)\\title\\0,1\C,0,-0.276937,-0.61741,0.00002
 1\B,0,1.199654,-0.054398,0.000026\O,0,1.516385,1.282136,-0.000019\O,0,
 2.23879,-0.94028,-0.000005\C,0,-1.408647,0.422159,-0.000004\C,0,-2.810
 461,-0.194878,-0.000002\H,0,-2.960546,-0.824168,0.882516\H,0,-2.960536
 ,-0.824197,-0.882501\H,0,-3.589382,0.572913,-0.000019\H,0,-1.310742,1.
 074252,-0.878243\H,0,-1.310753,1.07428,0.878216\H,0,0.747435,1.857785,

 Normal termination of Gaussian 16 at Wed Apr  9 00:24:05 2025.
