 Gaussian 16, Revision C.01,

 ----------------------------------------------------------------------
 #t hf aug-cc-pvdz symm=none int=(grid=ultrafine) guess=(read,tcheck) s
 table=opt
 ----------------------------------------------------------------------
 -----
 title
 -----
 Symbolic Z-matrix:
 Charge =  0 Multiplicity = 2

 SCF Done:  E(UHF) =  -188.162849537     A.U. after   17 cycles
 Normal termination of Gaussian 16 at Tue Apr  8 22:37:23 2025.
 Gaussian 16:  ES64L-G16RevC.01  3-Jul-2019

 ----------------------------------------------------------------------
 #t hf aug-cc-pvdz iop(5/13=1,5/36=2,99/5=2) pseudo=read geom=check gue
 ss=(read,tcheck) scf=(maxcycle=1)
 ----------------------------------------------------------------------
 -----
 title
 -----
 Structure from the checkpoint file:  "BDE49_expt_1111_mol3.chk"
 Charge =  0 Multiplicity = 2

                         Standard orientation:
 ---------------------------------------------------------------------
 Center     Atomic      Atomic             Coordinates (Angstroms)
 Number     Number       Type             X           Y           Z
 ---------------------------------------------------------------------
      1          6           0        0.000000    0.412256   -0.000000
      2          8           0        1.167476    0.254210    0.000000
      3          8           0       -0.941521   -0.548178   -0.000000
      4          1           0       -1.807641   -0.121792   -0.000000
 ---------------------------------------------------------------------

 SCF Done:  E(UHF) =  -188.909061022     A.U. after    2 cycles

 The electronic state is 2-A'.
 Alpha  occ. eigenvalues --  -21.17035 -21.11038 -11.52846  -1.84879  -1.70278
 Alpha  occ. eigenvalues --   -0.82696  -0.69824  -0.57346  -0.57277  -0.48510
 Alpha  occ. eigenvalues --   -0.37159  -0.28762
 Alpha virt. eigenvalues --    0.03237   0.10168   0.10398   0.10968   0.13362
 Alpha virt. eigenvalues --    0.17034   0.18506   0.19756   0.22452   0.23943
 Alpha virt. eigenvalues --    0.27346   0.28828   0.30071   0.34230   0.35197

  Beta  occ. eigenvalues --  -21.16218 -21.10116 -11.50758  -1.82707  -1.68239
  Beta  occ. eigenvalues --   -0.78676  -0.59892  -0.55571  -0.53905  -0.41275
  Beta  occ. eigenvalues --   -0.37309
  Beta virt. eigenvalues --    0.02342   0.07543   0.10556   0.10877   0.11429
  Beta virt. eigenvalues --    0.18418   0.18859   0.19273   0.20631   0.22545
  Beta virt. eigenvalues --    0.24310   0.27546   0.29575   0.30167   0.34891

 Mulliken charges and spin densities:
               1          2
     1  C    2.777382   0.867918
     2  O   -1.672133   0.149188
     3  O   -2.201678   0.084928
     4  H    1.096429  -0.102034
 Sum of Mulliken charges =  -0.00000   1.00000

 Dipole moment (field-independent basis, Debye):
    X=             -1.5488    Y=             -0.4411    Z=             -0.0000  Tot=              1.6104
                          Isotropic Fermi Contact Couplings
        Atom                 a.u.       MegaHertz       Gauss      10(-4) cm-1
     1  C(13)              0.20002     224.86131      80.23611      75.00566
     2  O(17)              0.08707     -52.78149     -18.83375     -17.60601
     3  O(17)              0.07385     -44.76835     -15.97446     -14.93311
     4  H(1)              -0.00040      -1.77892      -0.63476      -0.59338
 --------------------------------------------------------
       Center         ----  Spin Dipole Couplings  ----
                      3XX-RR        3YY-RR        3ZZ-RR
 --------------------------------------------------------

 Normal termination of Gaussian 16 at Tue Apr  8 22:37:27 2025.
