 Gaussian 16, Revision C.01,

 ----------------------------------------------------------------------
 #t hf aug-cc-pvdz symm=none int=(grid=ultrafine) guess=(read,tcheck) s
 table=(opt,rrhf)
 ----------------------------------------------------------------------
 -----
 title
 -----
 Symbolic Z-matrix:
 Charge =  0 Multiplicity = 1

 SCF Done:  E(RHF) =  -994.875752506     A.U. after   14 cycles
 Normal termination of Gaussian 16 at Wed Apr  9 00:15:04 2025.
 Gaussian 16:  ES64L-G16RevC.01  3-Jul-2019

 ----------------------------------------------------------------------
 #t hf aug-cc-pvdz iop(5/13=1,5/36=2,99/5=2) pseudo=read geom=check gue
 ss=(read,tcheck) scf=(maxcycle=1)
 ----------------------------------------------------------------------
 -----
 title
 -----
 Structure from the checkpoint file:  "BDE49_nonexpt_2412_mol1.chk"
 Charge =  0 Multiplicity = 1

                         Standard orientation:
 ---------------------------------------------------------------------
 Center     Atomic      Atomic             Coordinates (Angstroms)
 Number     Number       Type             X           Y           Z
 ---------------------------------------------------------------------
      1         14           0       -0.681314    1.596884   -0.410192
      2         14           0        1.568192    1.220948    0.222483
      3          6           0        2.024121   -0.631223    0.223575
      4          1           0        1.810276    1.699460    1.608412
      5          1           0        2.479968    1.966760   -0.677801
      6          7           0        1.819575   -1.369261   -0.799040
      7          8           0        1.286925   -0.610936   -1.866262
      8          1           0        1.068625   -1.276004   -2.527610
      9          6           0       -1.813283    0.232589    0.236564
     10          1           0       -0.817460    1.729068   -1.873769
     11          1           0       -1.109391    2.866287    0.238438
     12          7           0       -2.367860   -0.474059   -0.676922
     13          8           0       -3.193913   -1.481781   -0.134346
     14          1           0       -3.541336   -1.907421   -0.924650
     15          6           0        2.615228   -1.309722    1.432263
     16          1           0        1.958425   -1.200255    2.300864
     17          1           0        3.574936   -0.856266    1.699608
     18          1           0        2.768615   -2.371982    1.233528
     19          6           0       -2.030254    0.001354    1.712332
     20          1           0       -1.696642   -1.002732    1.990774
     21          1           0       -3.096487    0.056008    1.948845
     22          1           0       -1.496782    0.734430    2.319494
 ---------------------------------------------------------------------

 SCF Done:  E(RHF) =  -997.057707154     A.U. after    2 cycles

 The electronic state is 1-A.
 Alpha  occ. eigenvalues --  -76.21977 -76.21690 -21.09789 -21.09261 -15.78338
 Alpha  occ. eigenvalues --  -15.78086 -11.43056 -11.42542 -11.37593 -11.37476
 Alpha  occ. eigenvalues --   -5.55585  -5.55302  -2.19846  -2.19704  -2.18087
 Alpha  occ. eigenvalues --   -2.17808  -2.17539  -2.16423  -1.78616  -1.77878
 Alpha  occ. eigenvalues --   -1.28120  -1.26937  -1.06177  -1.05109  -0.84683
 Alpha  occ. eigenvalues --   -0.79925  -0.71449  -0.69068  -0.64411  -0.63128
 Alpha  occ. eigenvalues --   -0.59646  -0.59501  -0.59178  -0.58898  -0.52723
 Alpha  occ. eigenvalues --   -0.51803  -0.51062  -0.49051  -0.48039  -0.46392
 Alpha  occ. eigenvalues --   -0.46073  -0.44188  -0.38055  -0.33747  -0.32414
 Alpha  occ. eigenvalues --   -0.30806  -0.29561
 Alpha virt. eigenvalues --    0.03658   0.04741   0.05341   0.05514   0.06007
 Alpha virt. eigenvalues --    0.06288   0.06490   0.06697   0.07125   0.07529
 Alpha virt. eigenvalues --    0.08172   0.08432   0.08524   0.09573   0.09806

 Mulliken charges:
               1
     1  Si   4.570375
     2  Si   5.135172
     3  C    0.731431
     4  H   -1.761772
     5  H   -2.303794
     6  N   -0.531825
     7  O   -2.310203
     8  H    0.995922
     9  C    1.605353
    10  H   -2.028445
    11  H   -1.828504
    12  N   -0.797978
    13  O   -2.289844
    14  H    0.935603
    15  C   -3.731350
    16  H    1.275410
    17  H    1.280100
    18  H    1.337504
    19  C   -4.431602
    20  H    1.396498
    21  H    1.284087
    22  H    1.467861
 Sum of Mulliken charges =  -0.00000

 Dipole moment (field-independent basis, Debye):
    X=             -0.7572    Y=             -1.2722    Z=              0.1166  Tot=              1.4850

 Test job not archived.
 1\1\GINC-SE253\SP\RHF\Aug-CC-pVDZ\C4H12N2O2Si2\OHZDE\09-Apr-2025\0\\#t
  hf aug-cc-pvdz iop(5/13=1,5/36=2,99/5=2) pseudo=read geom=check guess
 =(read,tcheck) scf=(maxcycle=1)\\title\\0,1\Si,0,0.681314,1.596884,0.4
 10192\Si,0,-1.568192,1.220948,-0.222483\C,0,-2.024121,-0.631223,-0.223
 575\H,0,-1.810276,1.69946,-1.608412\H,0,-2.479968,1.96676,0.677801\N,0
 ,-1.819575,-1.369261,0.79904\O,0,-1.286925,-0.610936,1.866262\H,0,-1.0
 68625,-1.276004,2.52761\C,0,1.813283,0.232589,-0.236564\H,0,0.81746,1.
 729068,1.873769\H,0,1.109391,2.866287,-0.238438\N,0,2.36786,-0.474059,

 Normal termination of Gaussian 16 at Wed Apr  9 00:15:18 2025.
