 Gaussian 16, Revision C.01,

 ----------------------------------------------------------------------
 #t hf aug-cc-pvdz symm=none int=(grid=ultrafine) guess=(read,tcheck) s
 table=(opt,rrhf)
 ----------------------------------------------------------------------
 -----
 title
 -----
 Symbolic Z-matrix:
 Charge =  0 Multiplicity = 1

 SCF Done:  E(RHF) =  -438.443768172     A.U. after   15 cycles
 Normal termination of Gaussian 16 at Tue Apr  8 23:21:56 2025.
 Gaussian 16:  ES64L-G16RevC.01  3-Jul-2019

 ----------------------------------------------------------------------
 #t hf aug-cc-pvdz iop(5/13=1,5/36=2,99/5=2) pseudo=read geom=check gue
 ss=(read,tcheck) scf=(maxcycle=1)
 ----------------------------------------------------------------------
 -----
 title
 -----
 Structure from the checkpoint file:  "BDE49_nonexpt_1161_mol1.chk"
 Charge =  0 Multiplicity = 1

                         Standard orientation:
 ---------------------------------------------------------------------
 Center     Atomic      Atomic             Coordinates (Angstroms)
 Number     Number       Type             X           Y           Z
 ---------------------------------------------------------------------
      1          9           0       -1.887475   -0.076832    0.060635
      2          8           0       -0.694595   -0.877669   -0.155922
      3          6           0        0.408122    0.029791   -0.025822
      4          8           0        1.477608   -0.753964   -0.373303
      5          1           0        1.751506   -1.219656    0.426216
      6          8           0        0.446700    0.445318    1.297116
      7          1           0        0.872606    1.310328    1.304892
      8          8           0        0.333520    1.070525   -0.914799
      9          1           0       -0.591438    1.348393   -0.946620
 ---------------------------------------------------------------------

 SCF Done:  E(RHF) =  -440.145971413     A.U. after    2 cycles

 The electronic state is 1-A.
 Alpha  occ. eigenvalues --  -29.30734 -21.17212 -21.12227 -21.12009 -21.11863
 Alpha  occ. eigenvalues --  -11.55421  -1.95684  -1.74909  -1.71859  -1.71651
 Alpha  occ. eigenvalues --   -0.93382  -0.77266  -0.73906  -0.67756  -0.61824
 Alpha  occ. eigenvalues --   -0.56651  -0.52922  -0.49761  -0.43057  -0.41933
 Alpha  occ. eigenvalues --   -0.36373  -0.35588  -0.34576  -0.27309  -0.23913
 Alpha virt. eigenvalues --    0.03869   0.05133   0.06238   0.11764   0.12092
 Alpha virt. eigenvalues --    0.13931   0.16397   0.17540   0.18205   0.18491
 Alpha virt. eigenvalues --    0.19967   0.21423   0.22903   0.23724   0.24146

 Mulliken charges:
               1
     1  F   -0.092090
     2  O   -1.744466
     3  C    8.832447
     4  O   -2.825730
     5  H    0.557374
     6  O   -2.888749
     7  H    0.544278
     8  O   -2.982762
     9  H    0.599698
 Sum of Mulliken charges =  -0.00000

 Dipole moment (field-independent basis, Debye):
    X=             -0.8560    Y=              1.1136    Z=              0.8347  Tot=              1.6339

 Test job not archived.
 1\1\GINC-SE173\SP\RHF\Aug-CC-pVDZ\C1H3F1O4\OHZDE\08-Apr-2025\0\\#t hf
 aug-cc-pvdz iop(5/13=1,5/36=2,99/5=2) pseudo=read geom=check guess=(re
 ad,tcheck) scf=(maxcycle=1)\\title\\0,1\F,0,-1.887475,-0.076832,0.0606
 35\O,0,-0.694595,-0.877669,-0.155922\C,0,0.408122,0.029791,-0.025822\O
 ,0,1.477608,-0.753965,-0.373303\H,0,1.751505,-1.219657,0.426216\O,0,0.
 4467,0.445318,1.297116\H,0,0.872606,1.310328,1.304892\O,0,0.33352,1.07
 0525,-0.914799\H,0,-0.591438,1.348393,-0.94662\\Version=ES64L-G16RevC.
 01\State=1-A\HF=-440.1459714\RMSD=4.668e-02\Dipole=-0.3367861,0.438122

 Normal termination of Gaussian 16 at Tue Apr  8 23:21:59 2025.
