 Gaussian 16, Revision C.01,

 ----------------------------------------------------------------------
 #t hf aug-cc-pvdz symm=none int=(grid=ultrafine) guess=(read,tcheck) s
 table=(opt,rrhf)
 ----------------------------------------------------------------------
 -----
 title
 -----
 Symbolic Z-matrix:
 Charge =  0 Multiplicity = 1

 SCF Done:  E(RHF) =  -939.187138377     A.U. after   16 cycles
 Normal termination of Gaussian 16 at Wed Apr  9 00:07:25 2025.
 Gaussian 16:  ES64L-G16RevC.01  3-Jul-2019

 ----------------------------------------------------------------------
 #t hf aug-cc-pvdz iop(5/13=1,5/36=2,99/5=2) pseudo=read geom=check gue
 ss=(read,tcheck) scf=(maxcycle=1)
 ----------------------------------------------------------------------
 -----
 title
 -----
 Structure from the checkpoint file:  "BDE49_nonexpt_1970_mol1.chk"
 Charge =  0 Multiplicity = 1

                         Standard orientation:
 ---------------------------------------------------------------------
 Center     Atomic      Atomic             Coordinates (Angstroms)
 Number     Number       Type             X           Y           Z
 ---------------------------------------------------------------------
      1         14           0       -0.585587    2.373644   -0.364085
      2          6           0        0.983794    2.209157    0.700089
      3          6           0        1.842035    1.021589    0.341266
      4          6           0        1.653384   -0.208998    0.981023
      5          6           0        2.815199    1.112221   -0.660953
      6          6           0        3.576224   -0.003403   -1.005437
      7          6           0        3.385659   -1.224910   -0.370004
      8          6           0        2.416118   -1.323554    0.629526
      9          1           0        2.980185    2.057330   -1.166388
     10          1           0        4.332454    0.081011   -1.778181
     11          6           0       -1.749996    0.915842   -0.162977
     12          1           0       -0.174502    2.500165   -1.783491
     13          1           0       -1.304866    3.604185    0.050464
     14          6           0       -1.473992   -0.315919   -0.776737
     15          6           0       -2.902910    1.024711    0.628250
     16          6           0       -3.748941   -0.071608    0.799341
     17          6           0       -3.464333   -1.288478    0.192809
     18          6           0       -2.319489   -1.411324   -0.598731
     19          1           0       -3.148337    1.967062    1.105790
     20          1           0       -4.640915    0.023239    1.408989
     21          8           0        2.253040   -2.539808    1.231875
     22          8           0       -2.079951   -2.627502   -1.172166
     23          1           0        3.971992   -2.099084   -0.624482
     24          1           0       -4.111401   -2.148875    0.313990
     25          1           0        0.900241   -0.299992    1.759212
     26          1           0       -0.589756   -0.431285   -1.398604
     27          1           0        1.556619   -2.474147    1.893581
     28          1           0       -1.259273   -2.585272   -1.674579
     29          1           0        0.674644    2.162222    1.749097
     30          1           0        1.549909    3.138956    0.579321
 ---------------------------------------------------------------------

 SCF Done:  E(RHF) =  -942.363372581     A.U. after    2 cycles

 The electronic state is 1-A.
 Alpha  occ. eigenvalues --  -76.21295 -21.10483 -21.10436 -11.52681 -11.52534
 Alpha  occ. eigenvalues --  -11.47142 -11.45747 -11.44136 -11.43068 -11.41691
 Alpha  occ. eigenvalues --  -11.41316 -11.40788 -11.40538 -11.38808 -11.36559
 Alpha  occ. eigenvalues --  -11.36143  -5.54985  -2.20332  -2.18669  -2.18072
 Alpha  occ. eigenvalues --   -1.75888  -1.75746  -1.33365  -1.31682  -1.14393
 Alpha  occ. eigenvalues --   -1.09785  -1.07407  -1.07016  -1.00199  -0.88060
 Alpha  occ. eigenvalues --   -0.86870  -0.85140  -0.82742  -0.74466  -0.70293
 Alpha  occ. eigenvalues --   -0.69533  -0.66980  -0.66401  -0.63153  -0.60967
 Alpha  occ. eigenvalues --   -0.57730  -0.57165  -0.56960  -0.54848  -0.54512
 Alpha  occ. eigenvalues --   -0.54171  -0.52977  -0.49628  -0.48394  -0.47328
 Alpha  occ. eigenvalues --   -0.46822  -0.44930  -0.44327  -0.43138  -0.41572
 Alpha  occ. eigenvalues --   -0.40142  -0.37893  -0.33969  -0.31711  -0.27271
 Alpha  occ. eigenvalues --   -0.26932
 Alpha virt. eigenvalues --    0.03245   0.04276   0.04678   0.05328   0.05563
 Alpha virt. eigenvalues --    0.05907   0.05977   0.06218   0.06517   0.06723
 Alpha virt. eigenvalues --    0.07438   0.07544   0.07969   0.08790   0.09102

 Mulliken charges:
               1
     1  Si   5.944960
     2  C   -5.919487
     3  C    4.982258
     4  C   -3.382333
     5  C   -3.520622
     6  C   -0.153123
     7  C   -4.156272
     8  C    5.027913
     9  H    1.851718
    10  H    1.535487
    11  C   -0.509982
    12  H   -2.164511
    13  H   -1.927022
    14  C   -3.118984
    15  C   -3.925051
    16  C    0.475544
    17  C   -3.800061
    18  C    6.110334
    19  H    1.882635
    20  H    1.574622
    21  O   -4.663889
    22  O   -4.620852
    23  H    1.806476
    24  H    1.815665
    25  H    2.093568
    26  H    2.119104
    27  H    1.095696
    28  H    1.106852
    29  H    1.294937
    30  H    1.144422
 Sum of Mulliken charges =   0.00000

 Dipole moment (field-independent basis, Debye):
    X=             -0.2086    Y=             -0.9227    Z=              0.6895  Tot=              1.1706

 Test job not archived.
 1\1\GINC-SE435\SP\RHF\Aug-CC-pVDZ\C13H14O2Si1\OHZDE\09-Apr-2025\0\\#t
 hf aug-cc-pvdz iop(5/13=1,5/36=2,99/5=2) pseudo=read geom=check guess=
 (read,tcheck) scf=(maxcycle=1)\\title\\0,1\Si,0,-0.585587,2.373644,-0.
 364085\C,0,0.983794,2.209157,0.700089\C,0,1.842035,1.021589,0.341266\C
 ,0,1.653384,-0.208998,0.981023\C,0,2.815199,1.112221,-0.660953\C,0,3.5
 76224,-0.003403,-1.005437\C,0,3.385659,-1.22491,-0.370004\C,0,2.416118
 ,-1.323554,0.629526\H,0,2.980185,2.05733,-1.166388\H,0,4.332454,0.0810
 11,-1.778181\C,0,-1.749996,0.915842,-0.162977\H,0,-0.174502,2.500165,-

 Normal termination of Gaussian 16 at Wed Apr  9 00:08:02 2025.
