 Gaussian 16, Revision C.01,

 ----------------------------------------------------------------------
 #t hf aug-cc-pvdz symm=none int=(grid=ultrafine) guess=(read,tcheck) s
 table=opt
 ----------------------------------------------------------------------
 -----
 title
 -----
 Symbolic Z-matrix:
 Charge =  0 Multiplicity = 2

 SCF Done:  E(UHF) =  -841.360417902     A.U. after   24 cycles
 Normal termination of Gaussian 16 at Tue Apr  8 23:46:14 2025.
 Gaussian 16:  ES64L-G16RevC.01  3-Jul-2019

 ----------------------------------------------------------------------
 #t hf aug-cc-pvdz iop(5/13=1,5/36=2,99/5=2) pseudo=read geom=check gue
 ss=(read,tcheck) scf=(maxcycle=1)
 ----------------------------------------------------------------------
 -----
 title
 -----
 Structure from the checkpoint file:  "BDE49_nonexpt_1762_mol2.chk"
 Charge =  0 Multiplicity = 2

                         Standard orientation:
 ---------------------------------------------------------------------
 Center     Atomic      Atomic             Coordinates (Angstroms)
 Number     Number       Type             X           Y           Z
 ---------------------------------------------------------------------
      1          6           0        1.561261   -0.110544    0.029167
      2         14           0       -0.012738    0.828489   -0.123375
      3          7           0        2.585252   -0.651731    0.024500
      4         17           0       -1.600484   -0.482182    0.024385
      5          1           0       -0.077769    1.823633    0.966209
 ---------------------------------------------------------------------

 SCF Done:  E(UHF) =  -842.123261157     A.U. after    2 cycles

 The electronic state is 2-A.
 Alpha  occ. eigenvalues --  -99.91773 -76.32555 -15.79823 -11.41433 -10.49186
 Alpha  occ. eigenvalues --   -9.69061  -9.68375  -9.68335  -5.65988  -2.29355
 Alpha  occ. eigenvalues --   -2.27735  -2.26337  -1.33273  -1.31856  -0.87390
 Alpha  occ. eigenvalues --   -0.66271  -0.59375  -0.57435  -0.56210  -0.51644
 Alpha  occ. eigenvalues --   -0.49142  -0.47832  -0.33748
 Alpha virt. eigenvalues --    0.03687   0.03897   0.05226   0.06045   0.08368
 Alpha virt. eigenvalues --    0.09049   0.11100   0.11587   0.11853   0.13312
 Alpha virt. eigenvalues --    0.14587   0.15385   0.15913   0.16599   0.17033

  Beta  occ. eigenvalues --  -99.91675 -76.31932 -15.78655 -11.42106 -10.49080
  Beta  occ. eigenvalues --   -9.68904  -9.68290  -9.68066  -5.64974  -2.28564
  Beta  occ. eigenvalues --   -2.27055  -2.22768  -1.32069  -1.30294  -0.84305
  Beta  occ. eigenvalues --   -0.65523  -0.58430  -0.56097  -0.55152  -0.50507
  Beta  occ. eigenvalues --   -0.47260  -0.47034
  Beta virt. eigenvalues --    0.00074   0.04289   0.04612   0.05448   0.06402
  Beta virt. eigenvalues --    0.09822   0.10297   0.11416   0.12542   0.13229
  Beta virt. eigenvalues --    0.13992   0.14512   0.16019   0.16520   0.17276

 Mulliken charges and spin densities:
               1          2
     1  C    0.543802  -0.432542
     2  Si   3.802365   0.924062
     3  N   -1.910874   0.375540
     4  Cl  -0.860732   0.057482
     5  H   -1.574561   0.075458
 Sum of Mulliken charges =  -0.00000   1.00000

 Dipole moment (field-independent basis, Debye):
    X=             -1.1939    Y=              2.0404    Z=             -0.4998  Tot=              2.4163
                          Isotropic Fermi Contact Couplings
        Atom                 a.u.       MegaHertz       Gauss      10(-4) cm-1
     1  C(13)             -0.00453      -5.08916      -1.81594      -1.69756
     2  Si(29)             0.74401    -661.22604    -235.94189    -220.56126
     3  N(14)              0.06934      22.40256       7.99379       7.47269
     4  Cl(35)             0.06767      29.66981      10.58693       9.89678
     5  H(1)               0.01563      69.87701      24.93385      23.30846
 --------------------------------------------------------
       Center         ----  Spin Dipole Couplings  ----
                      3XX-RR        3YY-RR        3ZZ-RR

 Normal termination of Gaussian 16 at Tue Apr  8 23:46:16 2025.
