 Gaussian 16, Revision C.01,

 ----------------------------------------------------------------------
 #t hf aug-cc-pvdz symm=none int=(grid=ultrafine) guess=(read,tcheck) s
 table=(opt,rrhf)
 ----------------------------------------------------------------------
 -----
 title
 -----
 Symbolic Z-matrix:
 Charge =  0 Multiplicity = 1

 SCF Done:  E(RHF) =  -1125.84570928     A.U. after   14 cycles
 Normal termination of Gaussian 16 at Tue Apr  8 22:51:39 2025.
 Gaussian 16:  ES64L-G16RevC.01  3-Jul-2019

 ----------------------------------------------------------------------
 #t hf aug-cc-pvdz iop(5/13=1,5/36=2,99/5=2) pseudo=read geom=check gue
 ss=(read,tcheck) scf=(maxcycle=1)
 ----------------------------------------------------------------------
 -----
 title
 -----
 Structure from the checkpoint file:  "BDE49_expt_1722_mol1.chk"
 Charge =  0 Multiplicity = 1

                         Standard orientation:
 ---------------------------------------------------------------------
 Center     Atomic      Atomic             Coordinates (Angstroms)
 Number     Number       Type             X           Y           Z
 ---------------------------------------------------------------------
      1          6           0        0.228703    0.000072   -0.528957
      2          6           0       -1.257658   -0.000033   -0.118478
      3         17           0        1.073009   -1.484102    0.044192
      4         17           0        1.072847    1.484199    0.044495
      5          1           0        0.275917    0.000179   -1.611152
      6          7           0       -1.504842   -0.000394    1.210608
      7          1           0       -0.767308   -0.000687    1.895421
      8          1           0       -2.463801   -0.000491    1.518346
      9          8           0       -2.102091    0.000235   -0.987493
 ---------------------------------------------------------------------

 SCF Done:  E(RHF) =  -1127.24037907     A.U. after    2 cycles

 The electronic state is 1-A.
 Alpha  occ. eigenvalues --  -99.91783 -99.91781 -21.05642 -15.80072 -11.54924
 Alpha  occ. eigenvalues --  -11.50225 -10.49132 -10.48997  -9.68958  -9.68956
 Alpha  occ. eigenvalues --   -9.68220  -9.68196  -9.68108  -9.68068  -1.73536
 Alpha  occ. eigenvalues --   -1.42269  -1.35426  -1.30255  -1.05494  -0.85345
 Alpha  occ. eigenvalues --   -0.74937  -0.70720  -0.67901  -0.64954  -0.56464
 Alpha  occ. eigenvalues --   -0.56448  -0.52102  -0.51296  -0.50944  -0.49422
 Alpha  occ. eigenvalues --   -0.34945  -0.31982
 Alpha virt. eigenvalues --    0.02643   0.03826   0.05321   0.06174   0.06394
 Alpha virt. eigenvalues --    0.09749   0.10727   0.10919   0.13047   0.13155
 Alpha virt. eigenvalues --    0.14645   0.14960   0.15272   0.15861   0.16839

 Mulliken charges:
               1
     1  C   -3.683923
     2  C    5.321546
     3  Cl   0.353642
     4  Cl   0.353698
     5  H    1.936485
     6  N   -2.865862
     7  H    0.787637
     8  H    0.784957
     9  O   -2.988181
 Sum of Mulliken charges =  -0.00000

 Dipole moment (field-independent basis, Debye):
    X=             -1.0765    Y=             -0.0007    Z=              1.3611  Tot=              1.7353

 Test job not archived.
 1\1\GINC-SE334\SP\RHF\Aug-CC-pVDZ\C2H3Cl2N1O1\OHZDE\08-Apr-2025\0\\#t
 hf aug-cc-pvdz iop(5/13=1,5/36=2,99/5=2) pseudo=read geom=check guess=
 (read,tcheck) scf=(maxcycle=1)\\title\\0,1\C,0,-0.228703,-0.000072,-0.
 528957\C,0,1.257658,0.000033,-0.118478\Cl,0,-1.073009,1.484102,0.04419
 2\Cl,0,-1.072846,-1.484199,0.044495\H,0,-0.275917,-0.000179,-1.611152\
 N,0,1.504842,0.000394,1.210608\H,0,0.767308,0.000687,1.895421\H,0,2.46
 3801,0.000492,1.518346\O,0,2.102091,-0.000234,-0.987493\\Version=ES64L
 -G16RevC.01\State=1-A\HF=-1127.2403791\RMSD=1.527e-01\Dipole=0.4235105

 Normal termination of Gaussian 16 at Tue Apr  8 22:51:42 2025.
