 Gaussian 16, Revision C.01,

 ----------------------------------------------------------------------
 #t hf aug-cc-pvdz symm=none int=(grid=ultrafine) guess=(read,tcheck) s
 table=(opt,rrhf)
 ----------------------------------------------------------------------
 -----
 title
 -----
 Symbolic Z-matrix:
 Charge =  0 Multiplicity = 1

 SCF Done:  E(RHF) =  -498.625967518     A.U. after   12 cycles

 1\1\GINC-SE109\Stability\RHF\Aug-CC-pVDZ\C4H11P1\OHZDE\08-Apr-2025\0\\
 #t hf aug-cc-pvdz symm=none int=(grid=ultrafine) guess=(read,tcheck) s
 table=(opt,rrhf)\\title\\0,1\P,0,1.959984,-0.001883,-0.190491\C,0,0.29
 722,-0.705751,0.330066\H,0,0.315741,-1.754998,0.016743\H,0,0.193597,-0
 .699315,1.419176\C,0,-0.910236,-0.005508,-0.322763\C,0,-2.200858,-0.78
 3838,-0.027967\H,0,-2.405885,-0.808293,1.0477\H,0,-2.132025,-1.817691,
 -0.37843\C,0,-1.042151,1.457001,0.123696\H,0,-3.060763,-0.31974,-0.519
 653\H,0,-0.752683,-0.013465,-1.409114\H,0,-1.913949,1.928296,-0.338417

 Normal termination of Gaussian 16 at Tue Apr  8 23:29:10 2025.
 Gaussian 16:  ES64L-G16RevC.01  3-Jul-2019

 ----------------------------------------------------------------------
 #t hf aug-cc-pvdz iop(5/13=1,5/36=2,99/5=2) pseudo=read geom=check gue
 ss=(read,tcheck) scf=(maxcycle=1)
 ----------------------------------------------------------------------
 -----
 title
 -----
 Structure from the checkpoint file:  "BDE49_nonexpt_1311_mol1.chk"
 Charge =  0 Multiplicity = 1

                         Standard orientation:
 ---------------------------------------------------------------------
 Center     Atomic      Atomic             Coordinates (Angstroms)
 Number     Number       Type             X           Y           Z
 ---------------------------------------------------------------------
      1         15           0        1.959984   -0.001883   -0.190491
      2          6           0        0.297220   -0.705751    0.330066
      3          1           0        0.315741   -1.754998    0.016743
      4          1           0        0.193597   -0.699315    1.419176
      5          6           0       -0.910236   -0.005508   -0.322763
      6          6           0       -2.200858   -0.783838   -0.027967
      7          1           0       -2.405885   -0.808293    1.047700
      8          1           0       -2.132025   -1.817691   -0.378430
      9          6           0       -1.042151    1.457001    0.123696
     10          1           0       -3.060763   -0.319740   -0.519653
     11          1           0       -0.752683   -0.013465   -1.409114
     12          1           0       -1.913949    1.928296   -0.338417
     13          1           0       -1.164194    1.522887    1.210482
     14          1           0       -0.165657    2.050204   -0.150694
     15          1           0        2.763473   -0.880053    0.582973
     16          1           0        2.058734    1.048989    0.758410
 ---------------------------------------------------------------------

 SCF Done:  E(RHF) =  -499.659328176     A.U. after    2 cycles

 The electronic state is 1-A.
 Alpha  occ. eigenvalues -- -105.17149 -11.41783 -11.39062 -11.38244 -11.34675
 Alpha  occ. eigenvalues --   -2.73946  -1.46875  -1.43472  -1.42149  -1.24183
 Alpha  occ. eigenvalues --   -1.00114  -0.97943  -0.81019  -0.70539  -0.63482
 Alpha  occ. eigenvalues --   -0.59805  -0.56726  -0.53652  -0.52738  -0.46704
 Alpha  occ. eigenvalues --   -0.44962  -0.43847  -0.25140  -0.20784  -0.02281
 Alpha virt. eigenvalues --    0.04361   0.05779   0.05893   0.05965   0.06222
 Alpha virt. eigenvalues --    0.06322   0.06488   0.06741   0.08053   0.09084
 Alpha virt. eigenvalues --    0.10082   0.11320   0.12295   0.13096   0.13630

 Mulliken charges:
               1
     1  P    2.557233
     2  C   -3.315279
     3  H    1.223196
     4  H    1.353589
     5  C   -1.794780
     6  C   -4.146357
     7  H    1.169695
     8  H    1.291127
     9  C   -3.890226
    10  H    1.264614
    11  H    1.619591
    12  H    1.279980
    13  H    1.282500
    14  H    1.384841
    15  H   -0.541667
    16  H   -0.738058
 Sum of Mulliken charges =   0.00000

 Dipole moment (field-independent basis, Debye):
    X=              0.0584    Y=             -0.0316    Z=             -1.9832  Tot=              1.9843

 Test job not archived.
 1\1\GINC-SE109\SP\RHF\Aug-CC-pVDZ\C4H11P1\OHZDE\08-Apr-2025\0\\#t hf a
 ug-cc-pvdz iop(5/13=1,5/36=2,99/5=2) pseudo=read geom=check guess=(rea
 d,tcheck) scf=(maxcycle=1)\\title\\0,1\P,0,1.959984,-0.001883,-0.19049
 1\C,0,0.29722,-0.705751,0.330066\H,0,0.315741,-1.754998,0.016743\H,0,0
 .193597,-0.699315,1.419176\C,0,-0.910236,-0.005508,-0.322763\C,0,-2.20
 0858,-0.783838,-0.027967\H,0,-2.405885,-0.808293,1.0477\H,0,-2.132025,
 -1.817691,-0.37843\C,0,-1.042151,1.457001,0.123696\H,0,-3.060763,-0.31
 974,-0.519653\H,0,-0.752683,-0.013465,-1.409114\H,0,-1.913949,1.928296

 Normal termination of Gaussian 16 at Tue Apr  8 23:29:16 2025.
