 Gaussian 16, Revision C.01,

 ----------------------------------------------------------------------
 #t hf aug-cc-pvdz symm=none int=(grid=ultrafine) guess=(read,tcheck) s
 table=(opt,rrhf)
 ----------------------------------------------------------------------
 -----
 title
 -----
 Symbolic Z-matrix:
 Charge =  0 Multiplicity = 1

 SCF Done:  E(RHF) =  -948.101776674     A.U. after   11 cycles
 Normal termination of Gaussian 16 at Tue Apr  8 23:47:14 2025.
 Gaussian 16:  ES64L-G16RevC.01  3-Jul-2019

 ----------------------------------------------------------------------
 #t hf aug-cc-pvdz iop(5/13=1,5/36=2,99/5=2) pseudo=read geom=check gue
 ss=(read,tcheck) scf=(maxcycle=1)
 ----------------------------------------------------------------------
 -----
 title
 -----
 Structure from the checkpoint file:  "BDE49_nonexpt_1787_mol1.chk"
 Charge =  0 Multiplicity = 1

                         Standard orientation:
 ---------------------------------------------------------------------
 Center     Atomic      Atomic             Coordinates (Angstroms)
 Number     Number       Type             X           Y           Z
 ---------------------------------------------------------------------
      1         14           0       -0.555281   -0.060916    0.000000
      2          9           0       -0.555281   -0.996728    1.280558
      3          9           0       -0.555281   -0.996728   -1.280558
      4         17           0        1.147851    1.059541   -0.000000
      5          1           0       -1.744471    0.781734    0.000000
 ---------------------------------------------------------------------

 SCF Done:  E(RHF) =  -949.174634477     A.U. after    2 cycles

 The electronic state is 1-A'.
 Alpha  occ. eigenvalues --  -99.91353 -76.33774 -29.30408 -29.30407 -10.48918
 Alpha  occ. eigenvalues --   -9.68740  -9.68043  -9.68026  -5.69407  -2.33893
 Alpha  occ. eigenvalues --   -2.32151  -2.29416  -1.32745  -0.96432  -0.72404
 Alpha  occ. eigenvalues --   -0.64618  -0.61346  -0.56306  -0.54106  -0.43304
 Alpha  occ. eigenvalues --   -0.39029  -0.36998  -0.36451  -0.35877  -0.30603
 Alpha virt. eigenvalues --    0.05273   0.05491   0.06963   0.07384   0.11138
 Alpha virt. eigenvalues --    0.14172   0.14795   0.14838   0.16186   0.16713
 Alpha virt. eigenvalues --    0.20747   0.22896   0.24484   0.24821   0.26226

 Mulliken charges:
               1
     1  Si   4.596667
     2  F   -0.855818
     3  F   -0.855818
     4  Cl  -0.819130
     5  H   -2.065901
 Sum of Mulliken charges =  -0.00000

 Dipole moment (field-independent basis, Debye):
    X=             -0.9421    Y=             -3.0729    Z=              0.0000  Tot=              3.2141

 Test job not archived.
 1\1\GINC-SE460\SP\RHF\Aug-CC-pVDZ\Cl1F2H1Si1\OHZDE\08-Apr-2025\0\\#t h
 f aug-cc-pvdz iop(5/13=1,5/36=2,99/5=2) pseudo=read geom=check guess=(
 read,tcheck) scf=(maxcycle=1)\\title\\0,1\Si,0,-0.555281,-0.060916,0.\
 F,0,-0.555281,-0.996728,1.280558\F,0,-0.555281,-0.996728,-1.280558\Cl,
 0,1.147851,1.059541,0.\H,0,-1.744471,0.781734,0.\\Version=ES64L-G16Rev
 C.01\State=1-A'\HF=-949.1746345\RMSD=6.922e-02\Dipole=-0.3706354,-1.20
 89833,0.\Quadrupole=-1.8094267,0.0534267,1.756,1.0828316,0.,0.\PG=CS [
 SG(Cl1H1Si1),X(F2)]\\@

 Normal termination of Gaussian 16 at Tue Apr  8 23:47:15 2025.
