 Gaussian 16, Revision C.01,

 ----------------------------------------------------------------------
 #t hf aug-cc-pvdz symm=none int=(grid=ultrafine) guess=(read,tcheck) s
 table=(opt,rrhf)
 ----------------------------------------------------------------------
 -----
 title
 -----
 Symbolic Z-matrix:
 Charge =  0 Multiplicity = 1

 SCF Done:  E(RHF) =  -935.355637804     A.U. after   13 cycles
 Normal termination of Gaussian 16 at Tue Apr  8 23:41:50 2025.
 Gaussian 16:  ES64L-G16RevC.01  3-Jul-2019

 ----------------------------------------------------------------------
 #t hf aug-cc-pvdz iop(5/13=1,5/36=2,99/5=2) pseudo=read geom=check gue
 ss=(read,tcheck) scf=(maxcycle=1)
 ----------------------------------------------------------------------
 -----
 title
 -----
 Structure from the checkpoint file:  "BDE49_nonexpt_1634_mol1.chk"
 Charge =  0 Multiplicity = 1

                         Standard orientation:
 ---------------------------------------------------------------------
 Center     Atomic      Atomic             Coordinates (Angstroms)
 Number     Number       Type             X           Y           Z
 ---------------------------------------------------------------------
      1         14           0        0.795220   -1.133038   -0.266278
      2         15           0       -1.026755    0.207732   -0.020962
      3          8           0       -0.898332    1.590775   -0.523106
      4          8           0       -1.328819    0.040767    1.553701
      5          6           0        2.302301   -0.282098    0.472387
      6          6           0        2.693077    1.034262   -0.225257
      7          1           0        1.868272    1.750079   -0.217279
      8          1           0        2.967081    0.861449   -1.269802
      9          1           0        3.551291    1.497965    0.268673
     10          1           0        3.132396   -0.997697    0.435952
     11          1           0        2.100317   -0.108207    1.535011
     12          8           0       -2.293015   -0.570519   -0.682206
     13          1           0       -2.570847   -0.131858   -1.496239
     14          1           0       -2.027009    0.628677    1.873768
     15          1           0        0.929508   -1.318428   -1.730562
     16          1           0        0.506304   -2.436598    0.372888
 ---------------------------------------------------------------------

 SCF Done:  E(RHF) =  -937.065129476     A.U. after    2 cycles

 The electronic state is 1-A.
 Alpha  occ. eigenvalues -- -105.28979 -76.23009 -21.11176 -21.10713 -21.01526
 Alpha  occ. eigenvalues --  -11.39955 -11.35473  -5.56771  -2.90805  -2.20569
 Alpha  occ. eigenvalues --   -2.19026  -2.18675  -1.95252  -1.87588  -1.78497
 Alpha  occ. eigenvalues --   -1.49285  -1.39272  -1.25233  -1.15462  -0.90198
 Alpha  occ. eigenvalues --   -0.75068  -0.67420  -0.61588  -0.59969  -0.57878
 Alpha  occ. eigenvalues --   -0.53126  -0.50946  -0.49404  -0.47501  -0.44781
 Alpha  occ. eigenvalues --   -0.41619  -0.39351  -0.33658  -0.33521  -0.29261
 Alpha  occ. eigenvalues --   -0.21368  -0.12936
 Alpha virt. eigenvalues --    0.03607   0.04843   0.05587   0.05729   0.06239
 Alpha virt. eigenvalues --    0.06585   0.07137   0.07409   0.08550   0.09347
 Alpha virt. eigenvalues --    0.09794   0.10967   0.11923   0.12357   0.13222

 Mulliken charges:
               1
     1  Si   4.918840
     2  P    6.735977
     3  O   -3.018695
     4  O   -2.775162
     5  C   -4.392624
     6  C   -3.329270
     7  H    1.404300
     8  H    1.283330
     9  H    1.163143
    10  H    1.353005
    11  H    1.543318
    12  O   -2.706436
    13  H    0.731939
    14  H    0.819302
    15  H   -1.919166
    16  H   -1.811802
 Sum of Mulliken charges =  -0.00000

 Dipole moment (field-independent basis, Debye):
    X=             -1.0107    Y=             -0.9892    Z=              1.4747  Tot=              2.0432

 Test job not archived.
 1\1\GINC-SE227\SP\RHF\Aug-CC-pVDZ\C2H9O3P1Si1\OHZDE\08-Apr-2025\0\\#t
 hf aug-cc-pvdz iop(5/13=1,5/36=2,99/5=2) pseudo=read geom=check guess=
 (read,tcheck) scf=(maxcycle=1)\\title\\0,1\Si,0,0.79522,-1.133038,-0.2
 66278\P,0,-1.026755,0.207732,-0.020962\O,0,-0.898332,1.590775,-0.52310
 6\O,0,-1.328819,0.040767,1.553701\C,0,2.302301,-0.282098,0.472387\C,0,
 2.693077,1.034262,-0.225257\H,0,1.868272,1.750079,-0.217279\H,0,2.9670
 81,0.861449,-1.269802\H,0,3.551291,1.497965,0.268673\H,0,3.132396,-0.9
 97697,0.435952\H,0,2.100317,-0.108207,1.535011\O,0,-2.293015,-0.570519

 Normal termination of Gaussian 16 at Tue Apr  8 23:41:56 2025.
