 Gaussian 16, Revision C.01,

 ----------------------------------------------------------------------
 #t hf aug-cc-pvdz symm=none int=(grid=ultrafine) guess=(read,tcheck) s
 table=(opt,rrhf)
 ----------------------------------------------------------------------
 -----
 title
 -----
 Symbolic Z-matrix:
 Charge =  0 Multiplicity = 1

 SCF Done:  E(RHF) =  -666.134184863     A.U. after   15 cycles
 Normal termination of Gaussian 16 at Tue Apr  8 23:40:22 2025.
 Gaussian 16:  ES64L-G16RevC.01  3-Jul-2019

 ----------------------------------------------------------------------
 #t hf aug-cc-pvdz iop(5/13=1,5/36=2,99/5=2) pseudo=read geom=check gue
 ss=(read,tcheck) scf=(maxcycle=1)
 ----------------------------------------------------------------------
 -----
 title
 -----
 Structure from the checkpoint file:  "BDE49_nonexpt_1586_mol1.chk"
 Charge =  0 Multiplicity = 1

                         Standard orientation:
 ---------------------------------------------------------------------
 Center     Atomic      Atomic             Coordinates (Angstroms)
 Number     Number       Type             X           Y           Z
 ---------------------------------------------------------------------
      1          6           0        0.141108   -0.029545   -0.208941
      2          6           0        0.929750   -1.183945   -0.324309
      3          6           0        2.306168   -1.130525   -0.128166
      4          6           0        2.923408    0.082674    0.175417
      5          6           0        2.153017    1.238120    0.275188
      6          6           0        0.773228    1.184095    0.081265
      7          7           0       -2.208897    1.390877   -0.007546
      8          1           0        2.898702   -2.034542   -0.218076
      9          1           0        3.996444    0.126071    0.324857
     10          1           0        2.626048    2.187506    0.502770
     11          1           0        0.175939    2.085605    0.147019
     12          1           0        0.469234   -2.134289   -0.577299
     13         15           0       -1.670832   -0.139655   -0.549591
     14          6           0       -2.157396   -1.273260    0.843156
     15          1           0       -1.832810   -0.891403    1.815940
     16          1           0       -1.714666   -2.260880    0.693881
     17          1           0       -3.244378   -1.386446    0.840577
     18          1           0       -2.259401    1.578981    0.986795
     19          1           0       -3.006046    1.762402   -0.501443
 ---------------------------------------------------------------------

 SCF Done:  E(RHF) =  -667.918537795     A.U. after    2 cycles

 The electronic state is 1-A.
 Alpha  occ. eigenvalues -- -105.18036 -15.73881 -11.50685 -11.42613 -11.42302
 Alpha  occ. eigenvalues --  -11.40328 -11.40083 -11.36777 -11.35624  -2.76827
 Alpha  occ. eigenvalues --   -1.55972  -1.50783  -1.46343  -1.32212  -1.17809
 Alpha  occ. eigenvalues --   -1.08587  -1.06924  -0.99281  -0.85763  -0.83704
 Alpha  occ. eigenvalues --   -0.71904  -0.67508  -0.64823  -0.61844  -0.57919
 Alpha  occ. eigenvalues --   -0.56538  -0.55988  -0.55603  -0.49839  -0.49185
 Alpha  occ. eigenvalues --   -0.44159  -0.40583  -0.33385  -0.32556  -0.26615
 Alpha  occ. eigenvalues --   -0.21119  -0.00959
 Alpha virt. eigenvalues --    0.04319   0.05063   0.05342   0.05724   0.06260
 Alpha virt. eigenvalues --    0.06353   0.07204   0.07287   0.07747   0.08246
 Alpha virt. eigenvalues --    0.10386   0.11140   0.11455   0.11912   0.12562

 Mulliken charges:
               1
     1  C    1.576063
     2  C   -3.608391
     3  C   -1.463421
     4  C   -2.932097
     5  C   -0.664482
     6  C   -3.004524
     7  N   -3.148104
     8  H    1.437240
     9  H    1.339311
    10  H    1.468386
    11  H    1.988719
    12  H    2.016564
    13  P    6.919978
    14  C   -6.050188
    15  H    1.023921
    16  H    1.144199
    17  H    1.001632
    18  H    0.363651
    19  H    0.591544
 Sum of Mulliken charges =   0.00000

 Dipole moment (field-independent basis, Debye):
    X=             -0.2622    Y=              1.2330    Z=             -1.0999  Tot=              1.6730

 Test job not archived.
 1\1\GINC-SE332\SP\RHF\Aug-CC-pVDZ\C7H10N1P1\OHZDE\08-Apr-2025\0\\#t hf
  aug-cc-pvdz iop(5/13=1,5/36=2,99/5=2) pseudo=read geom=check guess=(r
 ead,tcheck) scf=(maxcycle=1)\\title\\0,1\C,0,0.141108,-0.029545,-0.208
 941\C,0,0.92975,-1.183945,-0.324309\C,0,2.306168,-1.130525,-0.128166\C
 ,0,2.923408,0.082674,0.175417\C,0,2.153017,1.23812,0.275188\C,0,0.7732
 28,1.184095,0.081265\N,0,-2.208897,1.390877,-0.007546\H,0,2.898702,-2.
 034542,-0.218076\H,0,3.996444,0.12607,0.324857\H,0,2.626048,2.187506,0
 .50277\H,0,0.175939,2.085605,0.147019\H,0,0.469234,-2.134289,-0.577299

 Normal termination of Gaussian 16 at Tue Apr  8 23:40:30 2025.
