 Gaussian 16, Revision C.01,

 ----------------------------------------------------------------------
 #t hf aug-cc-pvdz symm=none int=(grid=ultrafine) guess=(read,tcheck) s
 table=opt
 ----------------------------------------------------------------------
 -----
 title
 -----
 Symbolic Z-matrix:
 Charge =  0 Multiplicity = 2

 SCF Done:  E(UHF) =  -535.898567685     A.U. after   17 cycles

 1\1\GINC-SE080\Stability\UHF\Aug-CC-pVDZ\C5H10P1\OHZDE\08-Apr-2025\0\\
 #t hf aug-cc-pvdz symm=none int=(grid=ultrafine) guess=(read,tcheck) s
 table=opt\\title\\0,2\C,0,-0.389839,-0.000051,-0.404275\C,0,0.409525,-
 1.203712,0.144217\C,0,0.409494,1.203768,0.143943\C,0,1.889853,0.778633
 ,-0.006984\H,0,0.162361,1.347955,1.201209\H,0,0.178322,2.136875,-0.374
 144\C,0,1.889807,-0.778657,-0.007302\H,0,2.506238,1.191635,0.794677\H,
 0,2.297818,1.158755,-0.947043\H,0,2.506657,-1.192073,0.793788\H,0,2.29
 7143,-1.158389,-0.947797\H,0,0.178187,-2.13702,-0.373435\H,0,0.162667,

 Normal termination of Gaussian 16 at Tue Apr  8 23:37:52 2025.
 Gaussian 16:  ES64L-G16RevC.01  3-Jul-2019

 ----------------------------------------------------------------------
 #t hf aug-cc-pvdz iop(5/13=1,5/36=2,99/5=2) pseudo=read geom=check gue
 ss=(read,tcheck) scf=(maxcycle=1)
 ----------------------------------------------------------------------
 -----
 title
 -----
 Structure from the checkpoint file:  "BDE49_nonexpt_1528_mol2.chk"
 Charge =  0 Multiplicity = 2

                         Standard orientation:
 ---------------------------------------------------------------------
 Center     Atomic      Atomic             Coordinates (Angstroms)
 Number     Number       Type             X           Y           Z
 ---------------------------------------------------------------------
      1          6           0       -0.389839   -0.000051   -0.404275
      2          6           0        0.409525   -1.203712    0.144217
      3          6           0        0.409494    1.203768    0.143943
      4          6           0        1.889853    0.778633   -0.006984
      5          1           0        0.162361    1.347955    1.201209
      6          1           0        0.178322    2.136875   -0.374144
      7          6           0        1.889807   -0.778657   -0.007302
      8          1           0        2.506238    1.191635    0.794677
      9          1           0        2.297818    1.158755   -0.947043
     10          1           0        2.506657   -1.192073    0.793788
     11          1           0        2.297143   -1.158389   -0.947797
     12          1           0        0.178187   -2.137020   -0.373435
     13          1           0        0.162667   -1.347446    1.201613
     14         15           0       -2.212001   -0.000008   -0.030362
     15          1           0       -0.309912   -0.000191   -1.499042
     16          1           0       -2.052503    0.000133    1.388014
 ---------------------------------------------------------------------

 SCF Done:  E(UHF) =  -537.071135859     A.U. after    2 cycles

 The electronic state is 2-A.
 Alpha  occ. eigenvalues -- -105.17401 -11.46489 -11.42621 -11.37889 -11.37468
 Alpha  occ. eigenvalues --  -11.34148  -2.74794  -1.48511  -1.45420  -1.42937
 Alpha  occ. eigenvalues --   -1.30518  -1.04308  -1.02356  -0.81921  -0.81550
 Alpha  occ. eigenvalues --   -0.70154  -0.66756  -0.60264  -0.58177  -0.54124
 Alpha  occ. eigenvalues --   -0.46669  -0.45558  -0.44239  -0.44142  -0.44035
 Alpha  occ. eigenvalues --   -0.21614  -0.06254   0.02023
 Alpha virt. eigenvalues --    0.04258   0.05576   0.05687   0.05898   0.06018
 Alpha virt. eigenvalues --    0.06256   0.06871   0.07806   0.07954   0.09050
 Alpha virt. eigenvalues --    0.11047   0.12467   0.13216   0.13507   0.14083

  Beta  occ. eigenvalues -- -105.16777 -11.46448 -11.42654 -11.37825 -11.37501
  Beta  occ. eigenvalues --  -11.34130  -2.72890  -1.46893  -1.41178  -1.30312
  Beta  occ. eigenvalues --   -1.21914  -1.04073  -1.02200  -0.81719  -0.81250
  Beta  occ. eigenvalues --   -0.67545  -0.66703  -0.59606  -0.58108  -0.52908
  Beta  occ. eigenvalues --   -0.46541  -0.45482  -0.44190  -0.44076  -0.43576
  Beta  occ. eigenvalues --   -0.22450  -0.04083
  Beta virt. eigenvalues --    0.04274   0.05512   0.05641   0.05696   0.05939
  Beta virt. eigenvalues --    0.06258   0.06420   0.06892   0.08148   0.08996
  Beta virt. eigenvalues --    0.10960   0.11163   0.12938   0.13515   0.13970

 Mulliken charges and spin densities:
               1          2
     1  C   -1.046503  -0.615458
     2  C   -3.023169  -0.082589
     3  C   -3.024142  -0.082631
     4  C   -2.745265  -0.064259
     5  H    1.387034   0.123116
     6  H    1.137689   0.195872
     7  C   -2.745988  -0.064226
     8  H    1.289042  -0.005787
     9  H    1.330995   0.009075
    10  H    1.289027  -0.005814
    11  H    1.330961   0.009060
    12  H    1.137710   0.195901
    13  H    1.387283   0.122997
    14  P    2.311333   1.500770
    15  H    1.430359  -0.037751
    16  H   -1.446365  -0.198275
 Sum of Mulliken charges =  -0.00000   1.00000

 Dipole moment (field-independent basis, Debye):
    X=             -1.6612    Y=             -0.0002    Z=             -2.2507  Tot=              2.7974
                          Isotropic Fermi Contact Couplings
        Atom                 a.u.       MegaHertz       Gauss      10(-4) cm-1
     1  C(13)             -0.00698      -7.84863      -2.80059      -2.61802
     2  C(13)              0.01975      22.19766       7.92068       7.40434
     3  C(13)              0.01975      22.19889       7.92112       7.40475
     4  C(13)              0.00335       3.76186       1.34233       1.25482
     5  H(1)              -0.00018      -0.82211      -0.29335      -0.27423
     6  H(1)              -0.00011      -0.50869      -0.18151      -0.16968
     7  C(13)              0.00334       3.75928       1.34140       1.25396
     8  H(1)               0.00019       0.83632       0.29842       0.27896

 Normal termination of Gaussian 16 at Tue Apr  8 23:37:58 2025.
