 Gaussian 16, Revision C.01,

 ----------------------------------------------------------------------
 #t hf aug-cc-pvdz symm=none int=(grid=ultrafine) guess=(read,tcheck) s
 table=(opt,rrhf)
 ----------------------------------------------------------------------
 -----
 title
 -----
 Symbolic Z-matrix:
 Charge =  0 Multiplicity = 1

 SCF Done:  E(RHF) =  -518.624875336     A.U. after   16 cycles
 Normal termination of Gaussian 16 at Wed Apr  9 00:42:01 2025.
 Gaussian 16:  ES64L-G16RevC.01  3-Jul-2019

 ----------------------------------------------------------------------
 #t hf aug-cc-pvdz iop(5/13=1,5/36=2,99/5=2) pseudo=read geom=check gue
 ss=(read,tcheck) scf=(maxcycle=1)
 ----------------------------------------------------------------------
 -----
 title
 -----
 Structure from the checkpoint file:  "BDE49_nonexpt_637_mol1.chk"
 Charge =  0 Multiplicity = 1

                         Standard orientation:
 ---------------------------------------------------------------------
 Center     Atomic      Atomic             Coordinates (Angstroms)
 Number     Number       Type             X           Y           Z
 ---------------------------------------------------------------------
      1          5           0       -2.212190   -0.509950    0.000006
      2          8           0       -2.392478   -1.866532    0.000004
      3          8           0       -3.325459    0.278992   -0.000002
      4          8           0        2.932298   -1.877237    0.000022
      5          6           0       -0.808086    0.195018    0.000001
      6          6           0        0.388794   -0.523417   -0.000007
      7          6           0        1.629875    0.122771   -0.000011
      8          6           0        1.681714    1.519160   -0.000006
      9          6           0        0.501862    2.258186    0.000001
     10          6           0       -0.724903    1.600850    0.000005
     11          6           0        2.881276   -0.668371   -0.000021
     12          1           0        0.408283   -1.609707   -0.000012
     13          1           0        2.645041    2.020342   -0.000009
     14          1           0        0.538167    3.341576    0.000005
     15          1           0       -1.643985    2.175532    0.000011
     16          1           0        3.812150   -0.060709    0.000023
     17          1           0       -1.581853   -2.381379    0.000006
     18          1           0       -4.134928   -0.242872   -0.000002
 ---------------------------------------------------------------------

 SCF Done:  E(RHF) =  -520.902656319     A.U. after    2 cycles

 The electronic state is 1-A.
 Alpha  occ. eigenvalues --  -21.06720 -21.06371 -21.05902 -11.52717 -11.49222
 Alpha  occ. eigenvalues --  -11.45811 -11.44928 -11.43476 -11.42430 -11.37750
 Alpha  occ. eigenvalues --   -7.66993  -1.82662  -1.71169  -1.66167  -1.35854
 Alpha  occ. eigenvalues --   -1.13742  -1.11557  -0.93821  -0.90183  -0.82359
 Alpha  occ. eigenvalues --   -0.76994  -0.72481  -0.66913  -0.64067  -0.61569
 Alpha  occ. eigenvalues --   -0.60834  -0.56063  -0.54439  -0.52782  -0.50114
 Alpha  occ. eigenvalues --   -0.49478  -0.46455  -0.45169  -0.42372  -0.37558
 Alpha  occ. eigenvalues --   -0.37059  -0.34846  -0.32881  -0.29988
 Alpha virt. eigenvalues --    0.02892   0.04419   0.04802   0.05216   0.05473
 Alpha virt. eigenvalues --    0.06020   0.06735   0.08030   0.08339   0.08837
 Alpha virt. eigenvalues --    0.08961   0.09287   0.11026   0.11611   0.11990

 Mulliken charges:
               1
     1  B    4.562331
     2  O   -4.827590
     3  O   -4.553749
     4  O   -3.216072
     5  C   -0.192543
     6  C   -0.091244
     7  C    3.540993
     8  C   -2.108275
     9  C   -2.124821
    10  C   -1.719851
    11  C   -0.674534
    12  H    1.966336
    13  H    1.792312
    14  H    1.531826
    15  H    2.065049
    16  H    1.336046
    17  H    1.585711
    18  H    1.128076
 Sum of Mulliken charges =   0.00000

 Dipole moment (field-independent basis, Debye):
    X=             -0.4979    Y=              1.0081    Z=              0.0000  Tot=              1.1244

 Test job not archived.
 1\1\GINC-SE083\SP\RHF\Aug-CC-pVDZ\C7H7B1O3\OHZDE\09-Apr-2025\0\\#t hf
 aug-cc-pvdz iop(5/13=1,5/36=2,99/5=2) pseudo=read geom=check guess=(re
 ad,tcheck) scf=(maxcycle=1)\\title\\0,1\B,0,-2.21219,-0.50995,0.000006
 \O,0,-2.392478,-1.866532,0.000004\O,0,-3.325459,0.278992,-0.000002\O,0
 ,2.932298,-1.877237,0.000022\C,0,-0.808086,0.195018,0.000001\C,0,0.388
 794,-0.523417,-0.000007\C,0,1.629875,0.122771,-0.000011\C,0,1.681714,1
 .51916,-0.000006\C,0,0.501862,2.258186,0.000001\C,0,-0.724903,1.60085,
 0.000005\C,0,2.881276,-0.668371,-0.000021\H,0,0.408283,-1.609707,-0.00

 Normal termination of Gaussian 16 at Wed Apr  9 00:42:13 2025.
