 Gaussian 16, Revision C.01,

 ----------------------------------------------------------------------
 #t hf aug-cc-pvdz symm=none int=(grid=ultrafine) guess=(read,tcheck) s
 table=(opt,rrhf)
 ----------------------------------------------------------------------
 -----
 title
 -----
 Symbolic Z-matrix:
 Charge =  0 Multiplicity = 1

 SCF Done:  E(RHF) =  -1375.21853690     A.U. after   14 cycles
 Normal termination of Gaussian 16 at Tue Apr  8 23:44:40 2025.
 Gaussian 16:  ES64L-G16RevC.01  3-Jul-2019

 ----------------------------------------------------------------------
 #t hf aug-cc-pvdz iop(5/13=1,5/36=2,99/5=2) pseudo=read geom=check gue
 ss=(read,tcheck) scf=(maxcycle=1)
 ----------------------------------------------------------------------
 -----
 title
 -----
 Structure from the checkpoint file:  "BDE49_nonexpt_1728_mol1.chk"
 Charge =  0 Multiplicity = 1

                         Standard orientation:
 ---------------------------------------------------------------------
 Center     Atomic      Atomic             Coordinates (Angstroms)
 Number     Number       Type             X           Y           Z
 ---------------------------------------------------------------------
      1         16           0       -0.253004    1.349456   -0.018735
      2         15           0       -1.794423   -0.118667   -0.043494
      3          8           0       -3.000847    0.618786   -0.404249
      4          8           0       -1.401793   -1.297119   -1.018889
      5          8           0        1.039220    0.514248    0.790657
      6          6           0        1.975534   -0.095961    0.023791
      7          9           0        1.464796   -1.172947   -0.643762
      8          9           0        2.927721   -0.541537    0.834210
      9          9           0        2.518893    0.704635   -0.895777
     10          1           0       -0.537825   -1.699923   -0.853603
     11          8           0       -1.712345   -0.856123    1.369746
     12          1           0       -1.947548   -0.285288    2.112866
 ---------------------------------------------------------------------

 SCF Done:  E(RHF) =  -1378.03408147     A.U. after    2 cycles

 The electronic state is 1-A.
 Alpha  occ. eigenvalues -- -105.35062 -75.78780 -29.34364 -29.34343 -29.34278
 Alpha  occ. eigenvalues --  -21.15279 -21.14853 -21.14591 -21.05613 -13.24973
 Alpha  occ. eigenvalues --  -13.17746 -13.14236 -11.64183  -8.12419  -2.97689
 Alpha  occ. eigenvalues --   -2.03755  -1.94499  -1.89642  -1.81380  -1.56596
 Alpha  occ. eigenvalues --   -1.43228  -1.36486  -1.28093  -1.07393  -0.94879
 Alpha  occ. eigenvalues --   -0.94588  -0.75327  -0.71550  -0.64444  -0.56718
 Alpha  occ. eigenvalues --   -0.52873  -0.51707  -0.50306  -0.47340  -0.46695
 Alpha  occ. eigenvalues --   -0.46132  -0.45648  -0.39246  -0.38593  -0.37506
 Alpha  occ. eigenvalues --   -0.36961  -0.35430  -0.31446  -0.29771  -0.28117
 Alpha  occ. eigenvalues --   -0.27867  -0.24912  -0.23205  -0.17203
 Alpha virt. eigenvalues --    0.03675   0.06359   0.07498   0.09088   0.10025
 Alpha virt. eigenvalues --    0.11327   0.11369   0.11667   0.12557   0.13096
 Alpha virt. eigenvalues --    0.13603   0.14680   0.17376   0.17953   0.19051

 Mulliken charges:
               1
     1  S   -1.141183
     2  P    8.013721
     3  O   -2.763036
     4  O   -2.920292
     5  O   -2.599202
     6  C    0.605656
     7  F    0.592919
     8  F    0.550269
     9  F    0.457244
    10  H    1.025614
    11  O   -2.770119
    12  H    0.948409
 Sum of Mulliken charges =  -0.00000

 Dipole moment (field-independent basis, Debye):
    X=              3.0341    Y=             -2.8734    Z=             -0.0270  Tot=              4.1789

 Test job not archived.
 1\1\GINC-SE458\SP\RHF\Aug-CC-pVDZ\C1H2F3O4P1S1\OHZDE\08-Apr-2025\0\\#t
  hf aug-cc-pvdz iop(5/13=1,5/36=2,99/5=2) pseudo=read geom=check guess
 =(read,tcheck) scf=(maxcycle=1)\\title\\0,1\S,0,-0.253004,1.349456,-0.
 018735\P,0,-1.794423,-0.118667,-0.043494\O,0,-3.000847,0.618786,-0.404
 249\O,0,-1.401793,-1.297119,-1.018889\O,0,1.03922,0.514248,0.790657\C,
 0,1.975534,-0.095961,0.023791\F,0,1.464796,-1.172947,-0.643762\F,0,2.9
 27721,-0.541537,0.83421\F,0,2.518893,0.704635,-0.895777\H,0,-0.537825,
 -1.699923,-0.853603\O,0,-1.712345,-0.856123,1.369746\H,0,-1.947548,-0.

 Normal termination of Gaussian 16 at Tue Apr  8 23:44:48 2025.
