 Gaussian 16, Revision C.01,

 ----------------------------------------------------------------------
 #t hf aug-cc-pvdz symm=none int=(grid=ultrafine) guess=(read,tcheck) s
 table=(opt,rrhf)
 ----------------------------------------------------------------------
 -----
 title
 -----
 Symbolic Z-matrix:
 Charge =  0 Multiplicity = 1

 SCF Done:  E(RHF) =  -611.877908710     A.U. after   13 cycles
 Normal termination of Gaussian 16 at Tue Apr  8 22:50:31 2025.
 Gaussian 16:  ES64L-G16RevC.01  3-Jul-2019

 ----------------------------------------------------------------------
 #t hf aug-cc-pvdz iop(5/13=1,5/36=2,99/5=2) pseudo=read geom=check gue
 ss=(read,tcheck) scf=(maxcycle=1)
 ----------------------------------------------------------------------
 -----
 title
 -----
 Structure from the checkpoint file:  "BDE49_expt_1710_mol1.chk"
 Charge =  0 Multiplicity = 1

                         Standard orientation:
 ---------------------------------------------------------------------
 Center     Atomic      Atomic             Coordinates (Angstroms)
 Number     Number       Type             X           Y           Z
 ---------------------------------------------------------------------
      1          6           0       -1.318312   -1.009406    0.000114
      2          6           0       -0.495329    0.244330    0.000372
      3          1           0       -1.074442   -1.606560    0.880616
      4          1           0       -1.074131   -1.606435   -0.880388
      5          1           0       -2.374739   -0.742550   -0.000057
      6         17           0        1.309547   -0.139764   -0.000173
      7          8           0       -0.857142    1.365249   -0.000019
 ---------------------------------------------------------------------

 SCF Done:  E(RHF) =  -612.797198169     A.U. after    2 cycles

 The electronic state is 1-A.
 Alpha  occ. eigenvalues --  -99.89603 -21.10916 -11.55759 -11.42188 -10.46872
 Alpha  occ. eigenvalues --   -9.66690  -9.66038  -9.65952  -1.76787  -1.31631
 Alpha  occ. eigenvalues --   -1.13452  -0.81346  -0.67455  -0.64047  -0.61668
 Alpha  occ. eigenvalues --   -0.54721  -0.54351  -0.50275  -0.45168  -0.35332
 Alpha virt. eigenvalues --    0.02757   0.05738   0.06054   0.08369   0.08599
 Alpha virt. eigenvalues --    0.11684   0.12278   0.12512   0.12888   0.13379
 Alpha virt. eigenvalues --    0.14857   0.14902   0.18178   0.18393   0.18807

 Mulliken charges:
               1
     1  C   -3.194211
     2  C    1.894937
     3  H    1.315558
     4  H    1.315491
     5  H    1.245877
     6  Cl  -0.067189
     7  O   -2.510464
 Sum of Mulliken charges =   0.00000

 Dipole moment (field-independent basis, Debye):
    X=             -2.8868    Y=             -0.5726    Z=              0.0001  Tot=              2.9431

 Test job not archived.
 1\1\GINC-SE435\SP\RHF\Aug-CC-pVDZ\C2H3Cl1O1\OHZDE\08-Apr-2025\0\\#t hf
  aug-cc-pvdz iop(5/13=1,5/36=2,99/5=2) pseudo=read geom=check guess=(r
 ead,tcheck) scf=(maxcycle=1)\\title\\0,1\C,0,-1.318312,-1.009406,0.000
 114\C,0,-0.495329,0.24433,0.000372\H,0,-1.074442,-1.60656,0.880616\H,0
 ,-1.074131,-1.606435,-0.880388\H,0,-2.374739,-0.74255,-0.000057\Cl,0,1
 .309547,-0.139764,-0.000173\O,0,-0.857142,1.365249,-0.000019\\Version=
 ES64L-G16RevC.01\State=1-A\HF=-612.7971982\RMSD=1.350e-01\Dipole=-1.13
 5769,-0.2252648,0.0000245\Quadrupole=0.1485373,-0.1313167,-0.0172206,0

 Normal termination of Gaussian 16 at Tue Apr  8 22:50:33 2025.
