 Gaussian 16, Revision C.01,

 ----------------------------------------------------------------------
 #t hf aug-cc-pvdz symm=none int=(grid=ultrafine) guess=(read,tcheck) s
 table=(opt,rrhf)
 ----------------------------------------------------------------------
 -----
 title
 -----
 Symbolic Z-matrix:
 Charge =  0 Multiplicity = 1

 SCF Done:  E(RHF) =  -567.772502621     A.U. after   16 cycles
 Normal termination of Gaussian 16 at Wed Apr  9 00:35:58 2025.
 Gaussian 16:  ES64L-G16RevC.01  3-Jul-2019

 ----------------------------------------------------------------------
 #t hf aug-cc-pvdz iop(5/13=1,5/36=2,99/5=2) pseudo=read geom=check gue
 ss=(read,tcheck) scf=(maxcycle=1)
 ----------------------------------------------------------------------
 -----
 title
 -----
 Structure from the checkpoint file:  "BDE49_nonexpt_432_mol1.chk"
 Charge =  0 Multiplicity = 1

                         Standard orientation:
 ---------------------------------------------------------------------
 Center     Atomic      Atomic             Coordinates (Angstroms)
 Number     Number       Type             X           Y           Z
 ---------------------------------------------------------------------
      1          9           0       -3.388233    0.032791   -0.000019
      2          9           0       -2.227806   -1.905266   -0.000018
      3          5           0       -2.203685   -0.573035    0.000020
      4          6           0       -0.879500    0.215993    0.000012
      5          6           0        0.346980   -0.474615    0.000009
      6          6           0        1.550024    0.229726    0.000002
      7          6           0        1.529119    1.632056   -0.000002
      8          6           0       -0.883968    1.615920    0.000007
      9          1           0       -1.825920    2.151230    0.000009
     10          6           0        0.321964    2.315874    0.000000
     11          1           0        0.323412    3.399993   -0.000003
     12          1           0        2.476744    2.157467   -0.000007
     13          1           0        0.336609   -1.556328    0.000013
     14          8           0        2.786846   -0.340101    0.000000
     15          6           0        2.878947   -1.759091    0.000005
     16          1           0        2.416168   -2.191332   -0.893936
     17          1           0        2.416174   -2.191325    0.893952
     18          1           0        3.943430   -1.986621    0.000002
 ---------------------------------------------------------------------

 SCF Done:  E(RHF) =  -570.149574733     A.U. after    2 cycles

 The electronic state is 1-A.
 Alpha  occ. eigenvalues --  -29.25310 -29.25146 -21.08132 -11.53900 -11.46801
 Alpha  occ. eigenvalues --  -11.43906 -11.42833 -11.42029 -11.41624 -11.37129
 Alpha  occ. eigenvalues --   -7.71957  -1.79540  -1.34682  -1.17730  -1.09739
 Alpha  occ. eigenvalues --   -1.06332  -0.99571  -0.87662  -0.84830  -0.73658
 Alpha  occ. eigenvalues --   -0.72090  -0.66669  -0.63946  -0.63056  -0.60407
 Alpha  occ. eigenvalues --   -0.59639  -0.54566  -0.54542  -0.49849  -0.49239
 Alpha  occ. eigenvalues --   -0.46909  -0.44355  -0.43795  -0.41278  -0.40228
 Alpha  occ. eigenvalues --   -0.34205  -0.33496  -0.32354  -0.27062  -0.26251
 Alpha virt. eigenvalues --    0.02952   0.04715   0.04781   0.04929   0.05249
 Alpha virt. eigenvalues --    0.05805   0.06527   0.06591   0.08299   0.09123
 Alpha virt. eigenvalues --    0.09387   0.09820   0.10564   0.12063   0.12250

 Mulliken charges:
               1
     1  F   -0.577256
     2  F   -0.811334
     3  B    0.290987
     4  C   -1.018296
     5  C   -3.465894
     6  C    7.122038
     7  C   -4.362354
     8  C   -1.349402
     9  H    2.079936
    10  C    0.972007
    11  H    1.522918
    12  H    1.818836
    13  H    2.088052
    14  O   -4.787793
    15  C   -3.752590
    16  H    1.414606
    17  H    1.414606
    18  H    1.400933
 Sum of Mulliken charges =  -0.00000

 Dipole moment (field-independent basis, Debye):
    X=             -0.6691    Y=             -1.5439    Z=             -0.0001  Tot=              1.6826

 Test job not archived.
 1\1\GINC-SE116\SP\RHF\Aug-CC-pVDZ\C7H7B1F2O1\OHZDE\09-Apr-2025\0\\#t h
 f aug-cc-pvdz iop(5/13=1,5/36=2,99/5=2) pseudo=read geom=check guess=(
 read,tcheck) scf=(maxcycle=1)\\title\\0,1\F,0,-3.388233,0.032791,-0.00
 0019\F,0,-2.227806,-1.905266,-0.000018\B,0,-2.203685,-0.573035,0.00002
 \C,0,-0.8795,0.215993,0.000012\C,0,0.34698,-0.474615,0.000009\C,0,1.55
 0024,0.229726,0.000002\C,0,1.529119,1.632056,-0.000002\C,0,-0.883968,1
 .61592,0.000007\H,0,-1.82592,2.15123,0.000009\C,0,0.321964,2.315874,0.
 \H,0,0.323412,3.399993,-0.000003\H,0,2.476744,2.157467,-0.000007\H,0,0

 Normal termination of Gaussian 16 at Wed Apr  9 00:36:09 2025.
