 Gaussian 16, Revision C.01,

 ----------------------------------------------------------------------
 #t hf aug-cc-pvdz symm=none int=(grid=ultrafine) guess=(read,tcheck) s
 table=(opt,rrhf)
 ----------------------------------------------------------------------
 -----
 title
 -----
 Symbolic Z-matrix:
 Charge =  0 Multiplicity = 1

 SCF Done:  E(RHF) =  -490.420755183     A.U. after   14 cycles
 Normal termination of Gaussian 16 at Tue Apr  8 23:33:03 2025.
 Gaussian 16:  ES64L-G16RevC.01  3-Jul-2019

 ----------------------------------------------------------------------
 #t hf aug-cc-pvdz iop(5/13=1,5/36=2,99/5=2) pseudo=read geom=check gue
 ss=(read,tcheck) scf=(maxcycle=1)
 ----------------------------------------------------------------------
 -----
 title
 -----
 Structure from the checkpoint file:  "BDE49_nonexpt_1410_mol1.chk"
 Charge =  0 Multiplicity = 1

                         Standard orientation:
 ---------------------------------------------------------------------
 Center     Atomic      Atomic             Coordinates (Angstroms)
 Number     Number       Type             X           Y           Z
 ---------------------------------------------------------------------
      1          6           0        0.521877    0.124432    0.022041
      2          7           0        1.150995    1.232909    0.023183
      3         15           0       -1.339615   -0.055004   -0.124640
      4          7           0        1.212837   -1.067534   -0.068171
      5          1           0        2.214640   -0.969760    0.038337
      6          1           0        0.815194   -1.879960    0.376018
      7          1           0        0.520732    2.030889    0.001384
      8          1           0       -1.640428    0.897818    0.879303
      9          1           0       -1.494005   -1.158136    0.757230
 ---------------------------------------------------------------------

 SCF Done:  E(RHF) =  -491.300040066     A.U. after    2 cycles

 The electronic state is 1-A.
 Alpha  occ. eigenvalues -- -105.19831 -15.76982 -15.71936 -11.44555  -2.77014
 Alpha  occ. eigenvalues --   -1.51354  -1.46499  -1.44639  -1.38780  -1.23524
 Alpha  occ. eigenvalues --   -0.83458  -0.76463  -0.66680  -0.58718  -0.51429
 Alpha  occ. eigenvalues --   -0.47082  -0.33962  -0.27161  -0.22898  -0.04187
 Alpha virt. eigenvalues --    0.03820   0.05669   0.06263   0.07009   0.08916
 Alpha virt. eigenvalues --    0.09243   0.10161   0.11885   0.13696   0.14551
 Alpha virt. eigenvalues --    0.15810   0.16838   0.17485   0.18317   0.19824

 Mulliken charges:
               1
     1  C    2.241824
     2  N   -2.786860
     3  P    2.400332
     4  N   -2.787915
     5  H    0.722619
     6  H    0.651030
     7  H    0.787330
     8  H   -0.668717
     9  H   -0.559643
 Sum of Mulliken charges =   0.00000

 Dipole moment (field-independent basis, Debye):
    X=             -1.9666    Y=             -1.5168    Z=             -2.7138  Tot=              3.6788

 Test job not archived.
 1\1\GINC-SE060\SP\RHF\Aug-CC-pVDZ\C1H5N2P1\OHZDE\08-Apr-2025\0\\#t hf
 aug-cc-pvdz iop(5/13=1,5/36=2,99/5=2) pseudo=read geom=check guess=(re
 ad,tcheck) scf=(maxcycle=1)\\title\\0,1\C,0,0.521877,0.124432,0.022041
 \N,0,1.150995,1.232909,0.023183\P,0,-1.339615,-0.055005,-0.12464\N,0,1
 .212837,-1.067534,-0.068171\H,0,2.21464,-0.96976,0.038337\H,0,0.815194
 ,-1.87996,0.376018\H,0,0.520731,2.030889,0.001384\H,0,-1.640428,0.8978
 17,0.879303\H,0,-1.494005,-1.158137,0.75723\\Version=ES64L-G16RevC.01\
 State=1-A\HF=-491.3000401\RMSD=3.336e-01\Dipole=-0.7737381,-0.5967688,

 Normal termination of Gaussian 16 at Tue Apr  8 23:33:06 2025.
