 Gaussian 16, Revision C.01,

 ----------------------------------------------------------------------
 #t hf aug-cc-pvdz symm=none int=(grid=ultrafine) guess=(read,tcheck) s
 table=(opt,rrhf)
 ----------------------------------------------------------------------
 -----
 title
 -----
 Symbolic Z-matrix:
 Charge =  0 Multiplicity = 1

 SCF Done:  E(RHF) =  -945.431788305     A.U. after   12 cycles
 Normal termination of Gaussian 16 at Tue Apr  8 23:46:17 2025.
 Gaussian 16:  ES64L-G16RevC.01  3-Jul-2019

 ----------------------------------------------------------------------
 #t hf aug-cc-pvdz iop(5/13=1,5/36=2,99/5=2) pseudo=read geom=check gue
 ss=(read,tcheck) scf=(maxcycle=1)
 ----------------------------------------------------------------------
 -----
 title
 -----
 Structure from the checkpoint file:  "BDE49_nonexpt_1732_mol1.chk"
 Charge =  0 Multiplicity = 1

                         Standard orientation:
 ---------------------------------------------------------------------
 Center     Atomic      Atomic             Coordinates (Angstroms)
 Number     Number       Type             X           Y           Z
 ---------------------------------------------------------------------
      1         14           0       -2.179007    0.811406    0.227036
      2          6           0       -0.427271    1.017505   -0.399098
      3         17           0       -2.864700   -1.129985   -0.151217
      4          6           0        0.629956    0.120117    0.269414
      5          1           0       -0.170451    2.076423   -0.253022
      6          1           0       -0.432522    0.856238   -1.483873
      7          6           0        2.047650    0.353147   -0.268472
      8          1           0        0.359288   -0.931823    0.125873
      9          1           0        0.624562    0.290478    1.352987
     10          6           0        3.105824   -0.538060    0.391648
     11          1           0        2.320401    1.406918   -0.125888
     12          1           0        2.053816    0.181416   -1.352529
     13          6           0        4.518151   -0.301526   -0.150904
     14          1           0        2.830830   -1.589926    0.248783
     15          1           0        3.097223   -0.366444    1.474837
     16          1           0        4.567173   -0.499485   -1.226184
     17          1           0        5.247919   -0.951392    0.339385
     18          1           0        4.835453    0.733717    0.008930
     19          1           0       -3.108503    1.730132   -0.462179
     20          1           0       -2.265063    1.006711    1.689540
 ---------------------------------------------------------------------

 SCF Done:  E(RHF) =  -946.870861980     A.U. after    2 cycles

 The electronic state is 1-A.
 Alpha  occ. eigenvalues --  -99.87481 -76.25105 -11.42799 -11.41377 -11.38348
 Alpha  occ. eigenvalues --  -11.36535 -11.34427 -10.44865  -9.64783  -9.64212
 Alpha  occ. eigenvalues --   -9.64120  -5.58688  -2.22524  -2.20914  -2.20650
 Alpha  occ. eigenvalues --   -1.28293  -1.25696  -1.12882  -0.99458  -0.88127
 Alpha  occ. eigenvalues --   -0.82712  -0.75530  -0.66408  -0.60946  -0.58994
 Alpha  occ. eigenvalues --   -0.56578  -0.55240  -0.53800  -0.53573  -0.52783
 Alpha  occ. eigenvalues --   -0.49593  -0.48030  -0.47423  -0.45782  -0.45522
 Alpha  occ. eigenvalues --   -0.44481  -0.37547
 Alpha virt. eigenvalues --    0.03920   0.04686   0.05068   0.05323   0.05508
 Alpha virt. eigenvalues --    0.05593   0.05873   0.06393   0.07606   0.07915
 Alpha virt. eigenvalues --    0.08324   0.08966   0.09032   0.10654   0.11039

 Mulliken charges:
               1
     1  Si   5.327105
     2  C   -4.582307
     3  Cl  -0.882037
     4  C   -2.633734
     5  H    1.550916
     6  H    1.469035
     7  C   -1.999634
     8  H    1.521674
     9  H    1.641255
    10  C   -2.862544
    11  H    1.511012
    12  H    1.537355
    13  C   -4.360452
    14  H    1.450925
    15  H    1.429791
    16  H    1.325294
    17  H    1.077014
    18  H    1.320512
    19  H   -1.915044
    20  H   -1.926135
 Sum of Mulliken charges =  -0.00000

 Dipole moment (field-independent basis, Debye):
    X=              1.8183    Y=              1.3994    Z=              0.0015  Tot=              2.2945

 Test job not archived.
 1\1\GINC-SE092\SP\RHF\Aug-CC-pVDZ\C5H13Cl1Si1\OHZDE\08-Apr-2025\0\\#t
 hf aug-cc-pvdz iop(5/13=1,5/36=2,99/5=2) pseudo=read geom=check guess=
 (read,tcheck) scf=(maxcycle=1)\\title\\0,1\Si,0,-2.179007,0.811406,0.2
 27036\C,0,-0.427271,1.017505,-0.399098\Cl,0,-2.8647,-1.129985,-0.15121
 7\C,0,0.629956,0.120117,0.269414\H,0,-0.170451,2.076423,-0.253022\H,0,
 -0.432522,0.856238,-1.483873\C,0,2.04765,0.353147,-0.268472\H,0,0.3592
 88,-0.931823,0.125873\H,0,0.624562,0.290478,1.352987\C,0,3.105824,-0.5
 3806,0.391648\H,0,2.320401,1.406918,-0.125888\H,0,2.053816,0.181416,-1

 Normal termination of Gaussian 16 at Tue Apr  8 23:46:26 2025.
