 Gaussian 16, Revision C.01,

 ----------------------------------------------------------------------
 #t hf aug-cc-pvdz symm=none int=(grid=ultrafine) guess=(read,tcheck) s
 table=(opt,rrhf)
 ----------------------------------------------------------------------
 -----
 title
 -----
 Symbolic Z-matrix:
 Charge =  0 Multiplicity = 1

 SCF Done:  E(RHF) =  -562.808745638     A.U. after   12 cycles

 1\1\GINC-SE419\Stability\RHF\Aug-CC-pVDZ\F2O1Si1\OHZDE\08-Apr-2025\0\\
 #t hf aug-cc-pvdz symm=none int=(grid=ultrafine) guess=(read,tcheck) s
 table=(opt,rrhf)\\title\\0,1\Si,0,0.,0.,0.133438\O,0,0.,0.,1.637552\F,
 0,0.,1.244535,-0.831586\F,0,0.,-1.244535,-0.831586\\Version=ES64L-G16R
 evC.01\HF=-562.8087456\RMSD=9.960e-09\Dipole=0.,0.,-1.0412562\Quadrupo
 le=4.5411308,0.1537263,-4.6948571,0.,0.,0.\PG=Unknown\\@
 The archive entry for this job was punched.

 Normal termination of Gaussian 16 at Tue Apr  8 23:56:18 2025.
 Gaussian 16:  ES64L-G16RevC.01  3-Jul-2019

 ----------------------------------------------------------------------
 #t hf aug-cc-pvdz iop(5/13=1,5/36=2,99/5=2) pseudo=read geom=check gue
 ss=(read,tcheck) scf=(maxcycle=1)
 ----------------------------------------------------------------------
 -----
 title
 -----
 Structure from the checkpoint file:  "BDE49_nonexpt_1989_mol1.chk"
 Charge =  0 Multiplicity = 1

                         Standard orientation:
 ---------------------------------------------------------------------
 Center     Atomic      Atomic             Coordinates (Angstroms)
 Number     Number       Type             X           Y           Z
 ---------------------------------------------------------------------
      1         14           0        0.000000   -0.000000    0.133438
      2          8           0        0.000000   -0.000000    1.637552
      3          9           0        0.000000    1.244535   -0.831586
      4          9           0       -0.000000   -1.244535   -0.831586
 ---------------------------------------------------------------------

 SCF Done:  E(RHF) =  -563.944861918     A.U. after    2 cycles

 The electronic state is 1-A1.
 Alpha  occ. eigenvalues --  -76.34436 -29.34950 -29.34931 -21.06334  -5.71596
 Alpha  occ. eigenvalues --   -2.41138  -2.35292  -2.26501  -1.56779  -0.95549
 Alpha  occ. eigenvalues --   -0.74875  -0.50866  -0.49302  -0.46004  -0.43754
 Alpha  occ. eigenvalues --   -0.39992  -0.37472  -0.35087  -0.34474  -0.32834
 Alpha virt. eigenvalues --    0.05351   0.06581   0.07851   0.08424   0.14375
 Alpha virt. eigenvalues --    0.18736   0.20865   0.22301   0.24014   0.24829
 Alpha virt. eigenvalues --    0.25123   0.27118   0.27638   0.27752   0.27781

 Mulliken charges:
               1
     1  Si   4.070098
     2  O   -2.063703
     3  F   -1.003198
     4  F   -1.003198
 Sum of Mulliken charges =  -0.00000

 Dipole moment (field-independent basis, Debye):
    X=              0.0000    Y=              0.0000    Z=             -5.1650  Tot=              5.1650

 Test job not archived.
 1\1\GINC-SE419\SP\RHF\Aug-CC-pVDZ\F2O1Si1\OHZDE\08-Apr-2025\0\\#t hf a
 ug-cc-pvdz iop(5/13=1,5/36=2,99/5=2) pseudo=read geom=check guess=(rea
 d,tcheck) scf=(maxcycle=1)\\title\\0,1\Si,0,0.,0.,0.133438\O,0,0.,0.,1
 .637552\F,0,0.,1.244535,-0.831586\F,0,0.,-1.244535,-0.831586\\Version=
 ES64L-G16RevC.01\State=1-A1\HF=-563.9448619\RMSD=5.950e-02\Dipole=0.,0
 .,-2.0320627\Quadrupole=1.4734364,2.6573032,-4.1307395,0.,0.,0.\PG=C02
 V [C2(Si1O1),SGV(F2)]\\@

 Normal termination of Gaussian 16 at Tue Apr  8 23:56:19 2025.
