 Gaussian 16, Revision C.01,

 ----------------------------------------------------------------------
 #t hf aug-cc-pvdz symm=none int=(grid=ultrafine) guess=(read,tcheck) s
 table=(opt,rrhf)
 ----------------------------------------------------------------------
 -----
 title
 -----
 Symbolic Z-matrix:
 Charge =  0 Multiplicity = 1

 SCF Done:  E(RHF) =  -445.805360117     A.U. after   13 cycles
 Normal termination of Gaussian 16 at Wed Apr  9 00:35:52 2025.
 Gaussian 16:  ES64L-G16RevC.01  3-Jul-2019

 ----------------------------------------------------------------------
 #t hf aug-cc-pvdz iop(5/13=1,5/36=2,99/5=2) pseudo=read geom=check gue
 ss=(read,tcheck) scf=(maxcycle=1)
 ----------------------------------------------------------------------
 -----
 title
 -----
 Structure from the checkpoint file:  "BDE49_nonexpt_461_mol1.chk"
 Charge =  0 Multiplicity = 1

                         Standard orientation:
 ---------------------------------------------------------------------
 Center     Atomic      Atomic             Coordinates (Angstroms)
 Number     Number       Type             X           Y           Z
 ---------------------------------------------------------------------
      1          1           0       -1.037152    2.451638    0.287024
      2          1           0        1.037151    2.451638    0.287024
      3          5           0       -0.000000    1.871659    0.216604
      4         15           0        0.000000    0.138469   -0.335323
      5          6           0       -1.480388   -0.843535    0.156986
      6          6           0        1.480388   -0.843535    0.156986
      7          1           0       -2.367039   -0.224320    0.010647
      8          1           0       -1.434854   -1.151535    1.203927
      9          1           0       -1.574633   -1.732238   -0.470103
     10          1           0        2.367039   -0.224319    0.010647
     11          1           0        1.574633   -1.732238   -0.470103
     12          1           0        1.434854   -1.151535    1.203927
 ---------------------------------------------------------------------

 SCF Done:  E(RHF) =  -446.553170124     A.U. after    2 cycles

 The electronic state is 1-A.
 Alpha  occ. eigenvalues -- -105.14406 -11.37834 -11.37730  -7.60102  -2.73939
 Alpha  occ. eigenvalues --   -1.53986  -1.47609  -1.39600  -1.05588  -0.96859
 Alpha  occ. eigenvalues --   -0.79928  -0.60470  -0.57386  -0.56870  -0.56395
 Alpha  occ. eigenvalues --   -0.55871  -0.48249  -0.19972  -0.12035  -0.04004
 Alpha virt. eigenvalues --    0.02775   0.04080   0.05061   0.05935   0.06849
 Alpha virt. eigenvalues --    0.07396   0.07700   0.08252   0.08585   0.08881
 Alpha virt. eigenvalues --    0.10789   0.12490   0.13528   0.13981   0.14471

 Mulliken charges:
               1
     1  H   -2.646619
     2  H   -2.646619
     3  B    4.863554
     4  P    5.551516
     5  C   -6.194202
     6  C   -6.194201
     7  H    1.282043
     8  H    1.185069
     9  H    1.166175
    10  H    1.282042
    11  H    1.166175
    12  H    1.185069
 Sum of Mulliken charges =   0.00000

 Dipole moment (field-independent basis, Debye):
    X=              0.0000    Y=             -7.6089    Z=             -4.0576  Tot=              8.6232

 Test job not archived.
 1\1\GINC-SE109\SP\RHF\Aug-CC-pVDZ\C2H8B1P1\OHZDE\09-Apr-2025\0\\#t hf
 aug-cc-pvdz iop(5/13=1,5/36=2,99/5=2) pseudo=read geom=check guess=(re
 ad,tcheck) scf=(maxcycle=1)\\title\\0,1\H,0,-1.037152,2.451638,0.28702
 4\H,0,1.037151,2.451638,0.287024\B,0,0.,1.871659,0.216604\P,0,0.,0.138
 469,-0.335323\C,0,-1.480388,-0.843535,0.156986\C,0,1.480388,-0.843535,
 0.156986\H,0,-2.367039,-0.22432,0.010647\H,0,-1.434854,-1.151535,1.203
 927\H,0,-1.574633,-1.732238,-0.470103\H,0,2.367039,-0.224319,0.010647\
 H,0,1.574633,-1.732238,-0.470103\H,0,1.434854,-1.151535,1.203927\\Vers

 Normal termination of Gaussian 16 at Wed Apr  9 00:35:55 2025.
