 Gaussian 16, Revision C.01,

 ----------------------------------------------------------------------
 #t hf aug-cc-pvdz symm=none int=(grid=ultrafine) guess=(read,tcheck) s
 table=(opt,rrhf)
 ----------------------------------------------------------------------
 -----
 title
 -----
 Symbolic Z-matrix:
 Charge =  0 Multiplicity = 1

 SCF Done:  E(RHF) =  -626.895686367     A.U. after   11 cycles
 Normal termination of Gaussian 16 at Tue Apr  8 23:49:54 2025.
 Gaussian 16:  ES64L-G16RevC.01  3-Jul-2019

 ----------------------------------------------------------------------
 #t hf aug-cc-pvdz iop(5/13=1,5/36=2,99/5=2) pseudo=read geom=check gue
 ss=(read,tcheck) scf=(maxcycle=1)
 ----------------------------------------------------------------------
 -----
 title
 -----
 Structure from the checkpoint file:  "BDE49_nonexpt_1839_mol1.chk"
 Charge =  0 Multiplicity = 1

                         Standard orientation:
 ---------------------------------------------------------------------
 Center     Atomic      Atomic             Coordinates (Angstroms)
 Number     Number       Type             X           Y           Z
 ---------------------------------------------------------------------
      1         14           0       -1.518104   -0.000002    0.000011
      2          6           0        0.407256   -0.000000    0.000004
      3          9           0        0.914557   -0.755161   -1.006829
      4          1           0       -1.961178    0.552419   -1.294017
      5          9           0        0.914603   -0.494356    1.157390
      6          1           0       -1.961203    0.844443    1.125426
      7          9           0        0.914565    1.249521   -0.150583
      8          1           0       -1.961216   -1.396863    0.168601
 ---------------------------------------------------------------------

 SCF Done:  E(RHF) =  -628.241089555     A.U. after    2 cycles

 The electronic state is 1-A.
 Alpha  occ. eigenvalues --  -76.25270 -29.30560 -29.30560 -29.30490 -11.54865
 Alpha  occ. eigenvalues --   -5.58918  -2.22710  -2.21170  -2.21170  -1.37592
 Alpha  occ. eigenvalues --   -0.86322  -0.86322  -0.84754  -0.65047  -0.50701
 Alpha  occ. eigenvalues --   -0.50701  -0.47959  -0.43124  -0.43124  -0.36206
 Alpha  occ. eigenvalues --   -0.36206  -0.25657  -0.25657  -0.24589  -0.21189
 Alpha virt. eigenvalues --    0.03811   0.06025   0.06025   0.06645   0.09116
 Alpha virt. eigenvalues --    0.09116   0.09754   0.14547   0.14547   0.15749
 Alpha virt. eigenvalues --    0.17119   0.17798   0.17799   0.23143   0.23530

 Mulliken charges:
               1
     1  Si   5.636854
     2  C   -1.689818
     3  F    0.283610
     4  H   -1.599294
     5  F    0.283609
     6  H   -1.599282
     7  F    0.283601
     8  H   -1.599280
 Sum of Mulliken charges =   0.00000

 Dipole moment (field-independent basis, Debye):
    X=              1.3963    Y=             -0.0000    Z=             -0.0000  Tot=              1.3963

 Test job not archived.
 1\1\GINC-SE226\SP\RHF\Aug-CC-pVDZ\C1H3F3Si1\OHZDE\08-Apr-2025\0\\#t hf
  aug-cc-pvdz iop(5/13=1,5/36=2,99/5=2) pseudo=read geom=check guess=(r
 ead,tcheck) scf=(maxcycle=1)\\title\\0,1\Si,0,1.518104,-0.000002,-0.00
 0012\C,0,-0.407256,0.,-0.000004\F,0,-0.914557,-0.776535,0.990437\H,0,1
 .961178,0.5246,1.305542\F,0,-0.914603,-0.469473,-1.167705\H,0,1.961203
 ,0.868335,-1.107097\F,0,-0.914565,1.246012,0.177289\H,0,1.961216,-1.39
 2935,-0.198457\\Version=ES64L-G16RevC.01\State=1-A\HF=-628.2410896\RMS
 D=7.140e-02\Dipole=-0.5493476,-0.0000033,0.0000013\Quadrupole=0.689500

 Normal termination of Gaussian 16 at Tue Apr  8 23:49:56 2025.
