 Gaussian 16, Revision C.01,

 ----------------------------------------------------------------------
 #t hf aug-cc-pvdz symm=none int=(grid=ultrafine) guess=(read,tcheck) s
 table=opt
 ----------------------------------------------------------------------
 -----
 title
 -----
 Symbolic Z-matrix:
 Charge =  0 Multiplicity = 2

 SCF Done:  E(UHF) =  -1008.79652674     A.U. after   22 cycles
 Normal termination of Gaussian 16 at Wed Apr  9 00:25:47 2025.
 Gaussian 16:  ES64L-G16RevC.01  3-Jul-2019

 ----------------------------------------------------------------------
 #t hf aug-cc-pvdz iop(5/13=1,5/36=2,99/5=2) pseudo=read geom=check gue
 ss=(read,tcheck) scf=(maxcycle=1)
 ----------------------------------------------------------------------
 -----
 title
 -----
 Structure from the checkpoint file:  "BDE49_nonexpt_2723_mol3.chk"
 Charge =  0 Multiplicity = 2

                         Standard orientation:
 ---------------------------------------------------------------------
 Center     Atomic      Atomic             Coordinates (Angstroms)
 Number     Number       Type             X           Y           Z
 ---------------------------------------------------------------------
      1         16           0       -1.063618   -1.218627    0.000044
      2          6           0       -0.824347    0.525173   -0.000743
      3          8           0       -1.787362    1.252320    0.000296
      4          6           0        0.591275    1.085362    0.000006
      5         17           0        1.838103   -0.210382    0.000048
      6          1           0        0.733399    1.696087    0.890650
      7          1           0        0.734066    1.696684   -0.890119
 ---------------------------------------------------------------------

 SCF Done:  E(UHF) =  -1009.88630987     A.U. after    2 cycles

 The electronic state is 2-A.
 Alpha  occ. eigenvalues --  -99.91221 -75.74365 -21.08648 -13.17277 -13.10231
 Alpha  occ. eigenvalues --  -13.05180 -11.53438 -11.47112 -10.48510  -9.68385
 Alpha  occ. eigenvalues --   -9.67763  -9.67547  -8.08248  -1.74798  -1.36858
 Alpha  occ. eigenvalues --   -1.18848  -1.07428  -0.79153  -0.69052  -0.65121
 Alpha  occ. eigenvalues --   -0.63167  -0.52628  -0.52603  -0.50680  -0.48100
 Alpha  occ. eigenvalues --   -0.34113  -0.28004  -0.27954
 Alpha virt. eigenvalues --    0.02461   0.05777   0.05811   0.06927   0.09023
 Alpha virt. eigenvalues --    0.10456   0.11316   0.12791   0.13750   0.13934
 Alpha virt. eigenvalues --    0.14649   0.15000   0.15310   0.17095   0.17980

  Beta  occ. eigenvalues --  -99.91178 -75.73322 -21.08542 -13.16710 -13.04496
  Beta  occ. eigenvalues --  -13.04009 -11.53532 -11.47115 -10.48460  -9.68355
  Beta  occ. eigenvalues --   -9.67610  -9.67521  -8.07075  -1.74553  -1.36494
  Beta  occ. eigenvalues --   -1.13533  -1.04666  -0.77490  -0.69056  -0.64841
  Beta  occ. eigenvalues --   -0.61468  -0.52570  -0.52016  -0.50138  -0.48028
  Beta  occ. eigenvalues --   -0.29636  -0.26457
  Beta virt. eigenvalues --    0.02284   0.03271   0.05772   0.06096   0.07268
  Beta virt. eigenvalues --    0.09109   0.10617   0.11219   0.13617   0.14003
  Beta virt. eigenvalues --    0.14245   0.14847   0.15184   0.16243   0.17439

 Mulliken charges and spin densities:
               1          2
     1  S    0.983428   1.098926
     2  C    2.387761  -0.070966
     3  O   -2.811368  -0.022522
     4  C   -3.912517   0.010611
     5  Cl   0.210759  -0.024369
     6  H    1.570688   0.004167
     7  H    1.571250   0.004153
 Sum of Mulliken charges =  -0.00000   1.00000

 Dipole moment (field-independent basis, Debye):
    X=             -0.5331    Y=             -0.4831    Z=              0.0022  Tot=              0.7195
                          Isotropic Fermi Contact Couplings
        Atom                 a.u.       MegaHertz       Gauss      10(-4) cm-1
     1  S(33)              0.34867     119.75799      42.73263      39.94697
     2  C(13)             -0.01160     -13.03826      -4.65238      -4.34910
     3  O(17)              0.02062     -12.49837      -4.45973      -4.16901
     4  C(13)              0.00094       1.05258       0.37559       0.35110
     5  Cl(35)             0.06504      28.51934      10.17641       9.51303
     6  H(1)              -0.00006      -0.25703      -0.09171      -0.08574
     7  H(1)              -0.00006      -0.25524      -0.09108      -0.08514
 --------------------------------------------------------

 1\1\GINC-SE249\SP\UHF\Aug-CC-pVDZ\C2H2Cl1O1S1(2)\OHZDE\09-Apr-2025\0\\
 #t hf aug-cc-pvdz iop(5/13=1,5/36=2,99/5=2) pseudo=read geom=check gue
 ss=(read,tcheck) scf=(maxcycle=1)\\title\\0,2\S,0,1.063618,-1.218627,-
 0.000044\C,0,0.824347,0.525173,0.000743\O,0,1.787362,1.252321,-0.00029
 6\C,0,-0.591275,1.085362,-0.000006\Cl,0,-1.838103,-0.210383,-0.000048\
 H,0,-0.7334,1.696087,-0.89065\H,0,-0.734067,1.696684,0.890119\\Version
 =ES64L-G16RevC.01\State=2-A\HF=-1009.8863099\S2=0.761461\S2-1=0.\S2A=0
 .750054\RMSD=1.506e-01\Dipole=0.2097409,-0.1900716,-0.000874\Quadrupol

 Normal termination of Gaussian 16 at Wed Apr  9 00:25:51 2025.
