 Gaussian 16, Revision C.01,

 ----------------------------------------------------------------------
 #t hf aug-cc-pvdz symm=none int=(grid=ultrafine) guess=(read,tcheck) s
 table=(opt,rrhf)
 ----------------------------------------------------------------------
 -----
 title
 -----
 Symbolic Z-matrix:
 Charge =  0 Multiplicity = 1

 SCF Done:  E(RHF) =  -1732.58463120     A.U. after   14 cycles
 Normal termination of Gaussian 16 at Wed Apr  9 00:49:53 2025.
 Gaussian 16:  ES64L-G16RevC.01  3-Jul-2019

 ----------------------------------------------------------------------
 #t hf aug-cc-pvdz iop(5/13=1,5/36=2,99/5=2) pseudo=read geom=check gue
 ss=(read,tcheck) scf=(maxcycle=1)
 ----------------------------------------------------------------------
 -----
 title
 -----
 Structure from the checkpoint file:  "BDE49_nonexpt_862_mol1.chk"
 Charge =  0 Multiplicity = 1

                         Standard orientation:
 ---------------------------------------------------------------------
 Center     Atomic      Atomic             Coordinates (Angstroms)
 Number     Number       Type             X           Y           Z
 ---------------------------------------------------------------------
      1         16           0       -0.188517   -1.198744   -0.317625
      2          5           0       -1.555099   -0.007203   -0.060609
      3         16           0       -1.514222    1.769763   -0.374250
      4         16           0       -3.122808   -0.701214    0.556370
      5         16           0        1.467209   -0.107897   -1.048713
      6          6           0        2.544287    0.046833    0.381867
      7          6           0        3.800483   -0.375938    0.225844
      8          6           0        2.016784    0.731072    1.609197
      9          1           0        2.779939    0.756178    2.389726
     10          1           0        1.142358    0.206440    2.002961
     11          1           0        1.706421    1.755843    1.387004
     12          1           0        4.125355   -0.891022   -0.669370
     13          1           0        4.541752   -0.198147    0.998408
     14          1           0       -2.717288   -1.980325    0.661680
     15          1           0       -0.238946    1.784720   -0.821332
 ---------------------------------------------------------------------

 SCF Done:  E(RHF) =  -1734.18579534     A.U. after    2 cycles

 The electronic state is 1-A.
 Alpha  occ. eigenvalues --  -75.72506 -75.71673 -75.70175 -75.69759 -13.18450
 Alpha  occ. eigenvalues --  -13.17725 -13.17063 -13.15512 -13.13502 -13.12138
 Alpha  occ. eigenvalues --  -13.11160 -13.09380 -13.08235 -13.07272 -13.05494
 Alpha  occ. eigenvalues --  -13.03964 -11.45185 -11.40883 -11.38820  -8.06374
 Alpha  occ. eigenvalues --   -8.05581  -8.04201  -8.03566  -7.68631  -1.30888
 Alpha  occ. eigenvalues --   -1.23468  -1.13969  -1.10516  -1.02588  -0.99713
 Alpha  occ. eigenvalues --   -0.76749  -0.66957  -0.63741  -0.60048  -0.59082
 Alpha  occ. eigenvalues --   -0.55037  -0.52018  -0.49260  -0.45269  -0.42813
 Alpha  occ. eigenvalues --   -0.40172  -0.37568  -0.33971  -0.31398  -0.26328
 Alpha  occ. eigenvalues --   -0.25398  -0.24472
 Alpha virt. eigenvalues --    0.01304   0.02029   0.02518   0.02923   0.05499
 Alpha virt. eigenvalues --    0.05931   0.06837   0.07954   0.08452   0.09309
 Alpha virt. eigenvalues --    0.09679   0.10390   0.10815   0.11104   0.11712

 Mulliken charges:
               1
     1  S   -1.596861
     2  B    4.989143
     3  S   -2.433542
     4  S   -2.591126
     5  S   -0.447114
     6  C    1.119358
     7  C   -3.734980
     8  C   -4.661775
     9  H    1.294555
    10  H    1.535066
    11  H    1.336560
    12  H    1.682686
    13  H    1.520324
    14  H    0.902511
    15  H    1.085194
 Sum of Mulliken charges =  -0.00000

 Dipole moment (field-independent basis, Debye):
    X=             -0.8190    Y=              0.9827    Z=              0.0278  Tot=              1.2796

 Test job not archived.
 1\1\GINC-SE125\SP\RHF\Aug-CC-pVDZ\C3H7B1S4\OHZDE\09-Apr-2025\0\\#t hf
 aug-cc-pvdz iop(5/13=1,5/36=2,99/5=2) pseudo=read geom=check guess=(re
 ad,tcheck) scf=(maxcycle=1)\\title\\0,1\S,0,-0.188517,-1.198744,-0.317
 625\B,0,-1.555099,-0.007203,-0.060609\S,0,-1.514222,1.769763,-0.37425\
 S,0,-3.122808,-0.701214,0.55637\S,0,1.467209,-0.107897,-1.048713\C,0,2
 .544287,0.046833,0.381867\C,0,3.800483,-0.375938,0.225844\C,0,2.016784
 ,0.731072,1.609197\H,0,2.779939,0.756178,2.389726\H,0,1.142358,0.20644
 ,2.002961\H,0,1.706421,1.755843,1.387004\H,0,4.125355,-0.891022,-0.669

 Normal termination of Gaussian 16 at Wed Apr  9 00:50:01 2025.
