 Gaussian 16, Revision C.01,

 ----------------------------------------------------------------------
 #t hf aug-cc-pvdz symm=none int=(grid=ultrafine) guess=(read,tcheck) s
 table=(opt,rrhf)
 ----------------------------------------------------------------------
 -----
 title
 -----
 Symbolic Z-matrix:
 Charge =  0 Multiplicity = 1

 SCF Done:  E(RHF) =  -1030.29438401     A.U. after   15 cycles
 Normal termination of Gaussian 16 at Tue Apr  8 23:21:07 2025.
 Gaussian 16:  ES64L-G16RevC.01  3-Jul-2019

 ----------------------------------------------------------------------
 #t hf aug-cc-pvdz iop(5/13=1,5/36=2,99/5=2) pseudo=read geom=check gue
 ss=(read,tcheck) scf=(maxcycle=1)
 ----------------------------------------------------------------------
 -----
 title
 -----
 Structure from the checkpoint file:  "BDE49_nonexpt_114_mol1.chk"
 Charge =  0 Multiplicity = 1

                         Standard orientation:
 ---------------------------------------------------------------------
 Center     Atomic      Atomic             Coordinates (Angstroms)
 Number     Number       Type             X           Y           Z
 ---------------------------------------------------------------------
      1          5           0       -0.653143    1.563366    0.538431
      2          5           0        0.653143    1.563366   -0.538433
      3          7           0        1.768859    0.728435   -0.337661
      4          6           0        2.693107    0.002600   -0.127188
      5         16           0        3.915890   -0.951498    0.143746
      6          7           0       -1.768858    0.728433    0.337661
      7          6           0       -2.693106    0.002598    0.127187
      8         16           0       -3.915893   -0.951495   -0.143747
      9          1           0        0.680251    2.292501   -1.487465
     10          1           0       -0.680223    2.292455    1.487500
 ---------------------------------------------------------------------

 SCF Done:  E(RHF) =  -1031.75958217     A.U. after    2 cycles

 The electronic state is 1-A.
 Alpha  occ. eigenvalues --  -75.70705 -75.70705 -15.78102 -15.78101 -13.24544
 Alpha  occ. eigenvalues --  -13.24364 -13.02369 -13.02356 -13.01949 -13.01826
 Alpha  occ. eigenvalues --  -11.56019 -11.55947  -8.04984  -8.04981  -7.66717
 Alpha  occ. eigenvalues --   -7.66316  -1.44294  -1.43272  -1.18762  -1.17436
 Alpha  occ. eigenvalues --   -1.00237  -0.90980  -0.65536  -0.62901  -0.60890
 Alpha  occ. eigenvalues --   -0.57013  -0.56953  -0.56414  -0.55423  -0.52880
 Alpha  occ. eigenvalues --   -0.43122  -0.29919  -0.29833  -0.27827  -0.25193
 Alpha virt. eigenvalues --    0.01667   0.01731   0.02345   0.03567   0.05277
 Alpha virt. eigenvalues --    0.05303   0.07232   0.07273   0.08068   0.08774
 Alpha virt. eigenvalues --    0.09193   0.09825   0.11217   0.11757   0.11897

 Mulliken charges:
               1
     1  B    4.042498
     2  B    4.042469
     3  N   -5.107591
     4  C    2.459713
     5  S    1.767072
     6  N   -5.107589
     7  C    2.459717
     8  S    1.767071
     9  H   -3.161676
    10  H   -3.161684
 Sum of Mulliken charges =   0.00000

 Dipole moment (field-independent basis, Debye):
    X=             -0.0000    Y=             -3.5308    Z=             -0.0000  Tot=              3.5308

 Test job not archived.
 1\1\GINC-SE074\SP\RHF\Aug-CC-pVDZ\C2H2B2N2S2\OHZDE\08-Apr-2025\0\\#t h
 f aug-cc-pvdz iop(5/13=1,5/36=2,99/5=2) pseudo=read geom=check guess=(
 read,tcheck) scf=(maxcycle=1)\\title\\0,1\B,0,0.653143,1.563366,-0.538
 431\B,0,-0.653143,1.563366,0.538433\N,0,-1.768859,0.728435,0.337661\C,
 0,-2.693107,0.0026,0.127188\S,0,-3.91589,-0.951498,-0.143746\N,0,1.768
 858,0.728433,-0.337661\C,0,2.693106,0.002598,-0.127187\S,0,3.915893,-0
 .951495,0.143747\H,0,-0.680251,2.292501,1.487465\H,0,0.680223,2.292455
 ,-1.4875\\Version=ES64L-G16RevC.01\State=1-A\HF=-1031.7595822\RMSD=3.4

 Normal termination of Gaussian 16 at Tue Apr  8 23:21:11 2025.
