 Gaussian 16, Revision C.01,

 ----------------------------------------------------------------------
 #t hf aug-cc-pvdz symm=none int=(grid=ultrafine) guess=(read,tcheck) s
 table=(opt,rrhf)
 ----------------------------------------------------------------------
 -----
 title
 -----
 Symbolic Z-matrix:
 Charge =  0 Multiplicity = 1

 SCF Done:  E(RHF) =  -1300.04870475     A.U. after   16 cycles

 1\1\GINC-SE232\Stability\RHF\Aug-CC-pVDZ\C2N6O12\OHZDE\08-Apr-2025\0\\
 #t hf aug-cc-pvdz symm=none int=(grid=ultrafine) guess=(read,tcheck) s
 table=(opt,rrhf)\\title\\0,1\C,0,0.768495,0.047496,0.034522\N,0,1.4257
 52,-0.392057,-1.363158\O,0,1.90923,-1.485014,-1.415904\O,0,1.359879,0.
 461067,-2.216457\C,0,-0.768432,-0.04743,0.034787\N,0,1.243295,1.552155
 ,0.211776\N,0,-1.426353,0.390511,-1.363089\N,0,-1.242938,-1.551934,0.2
 13826\O,0,-2.27267,-1.732314,0.802225\O,0,-0.516793,-2.356784,-0.31745
 6\N,0,-1.4175,0.797106,1.163898\N,0,1.417796,-0.795763,1.164438\O,0,-2

 Normal termination of Gaussian 16 at Tue Apr  8 22:54:46 2025.
 Gaussian 16:  ES64L-G16RevC.01  3-Jul-2019

 ----------------------------------------------------------------------
 #t hf aug-cc-pvdz iop(5/13=1,5/36=2,99/5=2) pseudo=read geom=check gue
 ss=(read,tcheck) scf=(maxcycle=1)
 ----------------------------------------------------------------------
 -----
 title
 -----
 Structure from the checkpoint file:  "BDE49_expt_1221_mol1.chk"
 Charge =  0 Multiplicity = 1

                         Standard orientation:
 ---------------------------------------------------------------------
 Center     Atomic      Atomic             Coordinates (Angstroms)
 Number     Number       Type             X           Y           Z
 ---------------------------------------------------------------------
      1          6           0       -0.768495    0.047496   -0.034522
      2          7           0       -1.425752   -0.392057    1.363158
      3          8           0       -1.909230   -1.485014    1.415904
      4          8           0       -1.359879    0.461067    2.216457
      5          6           0        0.768432   -0.047430   -0.034787
      6          7           0       -1.243295    1.552155   -0.211776
      7          7           0        1.426353    0.390511    1.363089
      8          7           0        1.242938   -1.551934   -0.213826
      9          8           0        2.272670   -1.732314   -0.802225
     10          8           0        0.516793   -2.356784    0.317456
     11          7           0        1.417500    0.797106   -1.163898
     12          7           0       -1.417796   -0.795763   -1.164438
     13          8           0        2.612918    0.912311   -1.103839
     14          8           0        0.658390    1.229643   -2.007381
     15          8           0       -0.517112    2.356573    0.320083
     16          8           0       -2.273275    1.732959   -0.799618
     17          8           0       -2.613185   -0.911165   -1.104198
     18          8           0       -0.658864   -1.227206   -2.008649
     19          8           0        1.908913    1.483820    1.417077
     20          8           0        1.361953   -0.463955    2.215145
 ---------------------------------------------------------------------

 SCF Done:  E(RHF) =  -1305.49274113     A.U. after    2 cycles

 The electronic state is 1-A.
 Alpha  occ. eigenvalues --  -21.19330 -21.19284 -21.19088 -21.19077 -21.18914
 Alpha  occ. eigenvalues --  -21.18876 -21.18288 -21.18212 -21.18186 -21.18174
 Alpha  occ. eigenvalues --  -21.17807 -21.17794 -16.10622 -16.10513 -16.10464
 Alpha  occ. eigenvalues --  -16.10433 -16.09873 -16.09856 -11.79241 -11.68676
 Alpha  occ. eigenvalues --   -2.12092  -2.10328  -2.08677  -2.08564  -2.07712
 Alpha  occ. eigenvalues --   -2.07626  -1.80314  -1.79857  -1.79793  -1.79112
 Alpha  occ. eigenvalues --   -1.78496  -1.78325  -1.44934  -1.32223  -1.10905
 Alpha  occ. eigenvalues --   -1.10160  -1.05733  -1.05706  -0.95739  -0.86069
 Alpha  occ. eigenvalues --   -0.84582  -0.83646  -0.83379  -0.80104  -0.78934
 Alpha  occ. eigenvalues --   -0.76017  -0.75832  -0.74918  -0.72329  -0.71278
 Alpha  occ. eigenvalues --   -0.70515  -0.69424  -0.69123  -0.68445  -0.68092
 Alpha  occ. eigenvalues --   -0.68032  -0.67271  -0.51185  -0.50051  -0.45357
 Alpha  occ. eigenvalues --   -0.45282  -0.44166  -0.43904  -0.42085  -0.42072
 Alpha  occ. eigenvalues --   -0.41195  -0.40577  -0.40044  -0.39071  -0.38043
 Alpha  occ. eigenvalues --   -0.37564  -0.37270  -0.35274  -0.34754  -0.33835
 Alpha virt. eigenvalues --    0.04843   0.04898   0.05791   0.05822   0.07513
 Alpha virt. eigenvalues --    0.09186   0.09231   0.10989   0.11525   0.11995
 Alpha virt. eigenvalues --    0.12192   0.12630   0.12906   0.13041   0.13347

 Mulliken charges:
               1
     1  C    3.874331
     2  N    5.116819
     3  O   -3.237767
     4  O   -3.288914
     5  C    3.875355
     6  N    5.414493
     7  N    5.117593
     8  N    5.415406
     9  O   -3.081595
    10  O   -3.456088
    11  N    5.139528
    12  N    5.139802
    13  O   -3.349010
    14  O   -3.133219
    15  O   -3.455641
    16  O   -3.081660
    17  O   -3.348910
    18  O   -3.133344
    19  O   -3.238099
    20  O   -3.289079
 Sum of Mulliken charges =  -0.00000

 Dipole moment (field-independent basis, Debye):
    X=             -0.0006    Y=              0.0001    Z=              0.4214  Tot=              0.4214

 Test job not archived.
 1\1\GINC-SE232\SP\RHF\Aug-CC-pVDZ\C2N6O12\OHZDE\08-Apr-2025\0\\#t hf a
 ug-cc-pvdz iop(5/13=1,5/36=2,99/5=2) pseudo=read geom=check guess=(rea
 d,tcheck) scf=(maxcycle=1)\\title\\0,1\C,0,0.768495,0.047496,0.034522\
 N,0,1.425752,-0.392057,-1.363158\O,0,1.90923,-1.485014,-1.415904\O,0,1
 .359879,0.461067,-2.216457\C,0,-0.768432,-0.04743,0.034787\N,0,1.24329
 5,1.552155,0.211776\N,0,-1.426353,0.390511,-1.363089\N,0,-1.242938,-1.
 551934,0.213826\O,0,-2.27267,-1.732314,0.802225\O,0,-0.516793,-2.35678
 4,-0.317456\N,0,-1.4175,0.797106,1.163898\N,0,1.417796,-0.795763,1.164

 Normal termination of Gaussian 16 at Tue Apr  8 22:55:16 2025.
