 Gaussian 16, Revision C.01,

 ----------------------------------------------------------------------
 #t hf aug-cc-pvdz symm=none int=(grid=ultrafine) guess=(read,tcheck) s
 table=(opt,rrhf)
 ----------------------------------------------------------------------
 -----
 title
 -----
 Symbolic Z-matrix:
 Charge =  0 Multiplicity = 1

 SCF Done:  E(RHF) =  -333.164970528     A.U. after   13 cycles
 Normal termination of Gaussian 16 at Wed Apr  9 00:33:45 2025.
 Gaussian 16:  ES64L-G16RevC.01  3-Jul-2019

 ----------------------------------------------------------------------
 #t hf aug-cc-pvdz iop(5/13=1,5/36=2,99/5=2) pseudo=read geom=check gue
 ss=(read,tcheck) scf=(maxcycle=1)
 ----------------------------------------------------------------------
 -----
 title
 -----
 Structure from the checkpoint file:  "BDE49_nonexpt_424_mol1.chk"
 Charge =  0 Multiplicity = 1

                         Standard orientation:
 ---------------------------------------------------------------------
 Center     Atomic      Atomic             Coordinates (Angstroms)
 Number     Number       Type             X           Y           Z
 ---------------------------------------------------------------------
      1          9           0        1.118897    1.141295   -0.059868
      2          5           0        0.461180   -0.000002    0.040041
      3          9           0        1.118935   -1.141279   -0.059884
      4          7           0       -0.928852   -0.000021    0.442008
      5          7           0       -1.884042    0.000022   -0.347511
      6          1           0       -2.756129   -0.000142    0.216084
 ---------------------------------------------------------------------

 SCF Done:  E(RHF) =  -334.399958906     A.U. after    2 cycles

 The electronic state is 1-A.
 Alpha  occ. eigenvalues --  -29.27411 -29.27332 -15.84146 -15.78804  -7.73405
 Alpha  occ. eigenvalues --   -1.56057  -1.21225  -0.93063  -0.78793  -0.69215
 Alpha  occ. eigenvalues --   -0.64979  -0.54164  -0.51322  -0.47406  -0.46765
 Alpha  occ. eigenvalues --   -0.38347  -0.35511  -0.33883  -0.26608
 Alpha virt. eigenvalues --    0.02813   0.04017   0.04398   0.05718   0.07057
 Alpha virt. eigenvalues --    0.08015   0.11245   0.14771   0.18312   0.18803
 Alpha virt. eigenvalues --    0.18996   0.19392   0.19914   0.22137   0.24240

 Mulliken charges:
               1
     1  F   -0.594778
     2  B    2.193030
     3  F   -0.594837
     4  N   -0.566412
     5  N   -1.173995
     6  H    0.736991
 Sum of Mulliken charges =  -0.00000

 Dipole moment (field-independent basis, Debye):
    X=              1.9551    Y=              0.0001    Z=             -0.3018  Tot=              1.9783

 Test job not archived.
 1\1\GINC-SE435\SP\RHF\Aug-CC-pVDZ\B1F2H1N2\OHZDE\09-Apr-2025\0\\#t hf
 aug-cc-pvdz iop(5/13=1,5/36=2,99/5=2) pseudo=read geom=check guess=(re
 ad,tcheck) scf=(maxcycle=1)\\title\\0,1\F,0,1.118897,1.141295,-0.05986
 8\B,0,0.46118,-0.000002,0.040041\F,0,1.118935,-1.141279,-0.059884\N,0,
 -0.928852,-0.000021,0.442008\N,0,-1.884042,0.000022,-0.347511\H,0,-2.7
 56129,-0.000142,0.216084\\Version=ES64L-G16RevC.01\State=1-A\HF=-334.3
 999589\RMSD=2.879e-01\Dipole=0.7692033,0.0000296,-0.1187378\Quadrupole
 =1.7054307,2.6638453,-4.3692761,0.0003303,-0.9751493,0.0002142\PG=C01

 Normal termination of Gaussian 16 at Wed Apr  9 00:33:47 2025.
