 Gaussian 16, Revision C.01,

 ----------------------------------------------------------------------
 #t hf aug-cc-pvdz symm=none int=(grid=ultrafine) guess=(read,tcheck) s
 table=(opt,rrhf)
 ----------------------------------------------------------------------
 -----
 title
 -----
 Symbolic Z-matrix:
 Charge =  0 Multiplicity = 1

 SCF Done:  E(RHF) =  -880.692850676     A.U. after   15 cycles

 1\1\GINC-SE071\Stability\RHF\Aug-CC-pVDZ\H6O4Si2\OHZDE\09-Apr-2025\0\\
 #t hf aug-cc-pvdz symm=none int=(grid=ultrafine) guess=(read,tcheck) s
 table=(opt,rrhf)\\title\\0,1\Si,0,-1.271965,-0.907971,-0.238177\Si,0,1
 .014704,-1.031648,0.378262\O,0,-1.655693,0.717329,-0.477779\H,0,-2.137
 684,-1.547566,0.779938\H,0,-1.532071,-1.504172,-1.569181\O,0,-1.292146
 ,1.37361,0.786235\H,0,-0.405295,1.703744,0.549759\O,0,1.913663,0.13906
 ,-0.470321\H,0,1.689142,-2.260627,-0.095636\H,0,1.22216,-0.873359,1.83
 6406\O,0,1.438386,1.487163,-0.144194\H,0,1.531725,1.899337,-1.014018\\

 Normal termination of Gaussian 16 at Wed Apr  9 00:10:59 2025.
 Gaussian 16:  ES64L-G16RevC.01  3-Jul-2019

 ----------------------------------------------------------------------
 #t hf aug-cc-pvdz iop(5/13=1,5/36=2,99/5=2) pseudo=read geom=check gue
 ss=(read,tcheck) scf=(maxcycle=1)
 ----------------------------------------------------------------------
 -----
 title
 -----
 Structure from the checkpoint file:  "BDE49_nonexpt_2360_mol1.chk"
 Charge =  0 Multiplicity = 1

                         Standard orientation:
 ---------------------------------------------------------------------
 Center     Atomic      Atomic             Coordinates (Angstroms)
 Number     Number       Type             X           Y           Z
 ---------------------------------------------------------------------
      1         14           0       -1.271965   -0.907971   -0.238177
      2         14           0        1.014704   -1.031647    0.378262
      3          8           0       -1.655693    0.717329   -0.477779
      4          1           0       -2.137683   -1.547567    0.779938
      5          1           0       -1.532070   -1.504172   -1.569181
      6          8           0       -1.292147    1.373610    0.786235
      7          1           0       -0.405296    1.703744    0.549759
      8          8           0        1.913663    0.139061   -0.470321
      9          1           0        1.689143   -2.260626   -0.095636
     10          1           0        1.222160   -0.873358    1.836406
     11          8           0        1.438385    1.487164   -0.144194
     12          1           0        1.531724    1.899338   -1.014018
 ---------------------------------------------------------------------

 SCF Done:  E(RHF) =  -882.218407237     A.U. after    2 cycles

 The electronic state is 1-A.
 Alpha  occ. eigenvalues --  -76.25462 -76.25009 -21.14841 -21.12190 -21.10559
 Alpha  occ. eigenvalues --  -21.08972  -5.59004  -5.58599  -2.24686  -2.24440
 Alpha  occ. eigenvalues --   -2.20929  -2.20297  -2.20206  -2.19107  -1.92225
 Alpha  occ. eigenvalues --   -1.90148  -1.42671  -1.40125  -0.79396  -0.70808
 Alpha  occ. eigenvalues --   -0.65949  -0.62270  -0.54607  -0.52435  -0.50703
 Alpha  occ. eigenvalues --   -0.49584  -0.48899  -0.46801  -0.39628  -0.37901
 Alpha  occ. eigenvalues --   -0.34403  -0.31085  -0.30021
 Alpha virt. eigenvalues --    0.03781   0.04819   0.05111   0.06174   0.06997
 Alpha virt. eigenvalues --    0.07589   0.07790   0.07880   0.08562   0.09874
 Alpha virt. eigenvalues --    0.10258   0.10989   0.12466   0.13223   0.15083

 Mulliken charges:
               1
     1  Si   4.922622
     2  Si   4.815827
     3  O   -1.394993
     4  H   -1.736147
     5  H   -1.762260
     6  O   -1.426666
     7  H    1.455492
     8  O   -1.438317
     9  H   -1.689933
    10  H   -1.641981
    11  O   -1.097876
    12  H    0.994231
 Sum of Mulliken charges =  -0.00000

 Dipole moment (field-independent basis, Debye):
    X=              0.8421    Y=              1.0457    Z=             -0.5546  Tot=              1.4526

 Test job not archived.
 1\1\GINC-SE071\SP\RHF\Aug-CC-pVDZ\H6O4Si2\OHZDE\09-Apr-2025\0\\#t hf a
 ug-cc-pvdz iop(5/13=1,5/36=2,99/5=2) pseudo=read geom=check guess=(rea
 d,tcheck) scf=(maxcycle=1)\\title\\0,1\Si,0,-1.271965,-0.907971,-0.238
 177\Si,0,1.014704,-1.031648,0.378262\O,0,-1.655693,0.717329,-0.477779\
 H,0,-2.137684,-1.547566,0.779938\H,0,-1.532071,-1.504172,-1.569181\O,0
 ,-1.292146,1.37361,0.786235\H,0,-0.405295,1.703744,0.549759\O,0,1.9136
 63,0.13906,-0.470321\H,0,1.689142,-2.260627,-0.095636\H,0,1.22216,-0.8
 73359,1.836406\O,0,1.438386,1.487163,-0.144194\H,0,1.531725,1.899337,-

 Normal termination of Gaussian 16 at Wed Apr  9 00:11:03 2025.
