 Gaussian 16, Revision C.01,

 ----------------------------------------------------------------------
 #t hf aug-cc-pvdz symm=none int=(grid=ultrafine) guess=(read,tcheck) s
 table=(opt,rrhf)
 ----------------------------------------------------------------------
 -----
 title
 -----
 Symbolic Z-matrix:
 Charge =  0 Multiplicity = 1

 SCF Done:  E(RHF) =  -1913.76214491     A.U. after   14 cycles
 Normal termination of Gaussian 16 at Tue Apr  8 23:49:02 2025.
 Gaussian 16:  ES64L-G16RevC.01  3-Jul-2019

 ----------------------------------------------------------------------
 #t hf aug-cc-pvdz iop(5/13=1,5/36=2,99/5=2) pseudo=read geom=check gue
 ss=(read,tcheck) scf=(maxcycle=1)
 ----------------------------------------------------------------------
 -----
 title
 -----
 Structure from the checkpoint file:  "BDE49_nonexpt_1793_mol1.chk"
 Charge =  0 Multiplicity = 1

                         Standard orientation:
 ---------------------------------------------------------------------
 Center     Atomic      Atomic             Coordinates (Angstroms)
 Number     Number       Type             X           Y           Z
 ---------------------------------------------------------------------
      1          6           0       -3.044733    1.140257   -0.001743
      2          6           0       -1.652916    1.196322   -0.024524
      3          7           0       -3.739990   -0.000000    0.009725
      4          6           0       -3.044732   -1.140257   -0.001743
      5          6           0       -1.652915   -1.196321   -0.024524
      6          6           0       -0.925559    0.000001   -0.035956
      7          1           0       -3.627424    2.057018    0.004777
      8          1           0       -1.156618    2.159399   -0.040251
      9          1           0       -3.627423   -2.057018    0.004777
     10          1           0       -1.156617   -2.159398   -0.040251
     11         14           0        0.934440    0.000000   -0.007054
     12         17           0        1.674092   -1.674336   -0.947154
     13         17           0        1.627755   -0.000013    1.931496
     14         17           0        1.674093    1.674348   -0.947132
 ---------------------------------------------------------------------

 SCF Done:  E(RHF) =  -1915.78728307     A.U. after    2 cycles

 The electronic state is 1-A.
 Alpha  occ. eigenvalues --  -99.91278 -99.91274 -99.90952 -76.35062 -15.75953
 Alpha  occ. eigenvalues --  -11.50124 -11.46652 -11.45011 -11.43616 -11.39784
 Alpha  occ. eigenvalues --  -10.48779 -10.48721 -10.48400  -9.68655  -9.68621
 Alpha  occ. eigenvalues --   -9.68301  -9.68081  -9.68071  -9.67977  -9.67910
 Alpha  occ. eigenvalues --   -9.67666  -9.67609  -5.68883  -2.32373  -2.31569
 Alpha  occ. eigenvalues --   -2.30561  -1.46440  -1.34488  -1.30737  -1.30461
 Alpha  occ. eigenvalues --   -1.20809  -1.13235  -0.91342  -0.91114  -0.80713
 Alpha  occ. eigenvalues --   -0.71932  -0.67099  -0.64160  -0.62896  -0.61652
 Alpha  occ. eigenvalues --   -0.61030  -0.60046  -0.57690  -0.56916  -0.55562
 Alpha  occ. eigenvalues --   -0.53789  -0.53788  -0.52242  -0.49172  -0.48954
 Alpha  occ. eigenvalues --   -0.39837  -0.37032  -0.35764
 Alpha virt. eigenvalues --    0.02517   0.04999   0.05228   0.05899   0.05938
 Alpha virt. eigenvalues --    0.06593   0.06752   0.07159   0.07733   0.09024
 Alpha virt. eigenvalues --    0.09327   0.10387   0.10995   0.11421   0.12459

 Mulliken charges:
               1
     1  C   -0.547206
     2  C   -1.456356
     3  N   -3.574699
     4  C   -0.547206
     5  C   -1.456348
     6  C    1.088737
     7  H    1.552497
     8  H    1.627842
     9  H    1.552496
    10  H    1.627842
    11  Si   2.546420
    12  Cl  -0.795621
    13  Cl  -0.822777
    14  Cl  -0.795621
 Sum of Mulliken charges =  -0.00000

 Dipole moment (field-independent basis, Debye):
    X=             -1.0397    Y=              0.0000    Z=             -0.1281  Tot=              1.0476

 Test job not archived.
 1\1\GINC-SE060\SP\RHF\Aug-CC-pVDZ\C5H4Cl3N1Si1\OHZDE\08-Apr-2025\0\\#t
  hf aug-cc-pvdz iop(5/13=1,5/36=2,99/5=2) pseudo=read geom=check guess
 =(read,tcheck) scf=(maxcycle=1)\\title\\0,1\C,0,-3.044733,1.140257,-0.
 001743\C,0,-1.652916,1.196322,-0.024524\N,0,-3.73999,0.,0.009725\C,0,-
 3.044732,-1.140257,-0.001743\C,0,-1.652915,-1.196321,-0.024524\C,0,-0.
 925559,0.000001,-0.035956\H,0,-3.627424,2.057018,0.004777\H,0,-1.15661
 8,2.159399,-0.040251\H,0,-3.627423,-2.057018,0.004777\H,0,-1.156617,-2
 .159398,-0.040251\Si,0,0.93444,0.,-0.007054\Cl,0,1.674092,-1.674336,-0

 Normal termination of Gaussian 16 at Tue Apr  8 23:49:10 2025.
