 Gaussian 16, Revision C.01,

 ----------------------------------------------------------------------
 #t hf aug-cc-pvdz symm=none int=(grid=ultrafine) guess=(read,tcheck) s
 table=(opt,rrhf)
 ----------------------------------------------------------------------
 -----
 title
 -----
 Symbolic Z-matrix:
 Charge =  0 Multiplicity = 1

 SCF Done:  E(RHF) =  -1502.77454251     A.U. after   14 cycles
 Normal termination of Gaussian 16 at Tue Apr  8 23:55:08 2025.
 Gaussian 16:  ES64L-G16RevC.01  3-Jul-2019

 ----------------------------------------------------------------------
 #t hf aug-cc-pvdz iop(5/13=1,5/36=2,99/5=2) pseudo=read geom=check gue
 ss=(read,tcheck) scf=(maxcycle=1)
 ----------------------------------------------------------------------
 -----
 title
 -----
 Structure from the checkpoint file:  "BDE49_nonexpt_1932_mol1.chk"
 Charge =  0 Multiplicity = 1

                         Standard orientation:
 ---------------------------------------------------------------------
 Center     Atomic      Atomic             Coordinates (Angstroms)
 Number     Number       Type             X           Y           Z
 ---------------------------------------------------------------------
      1         14           0        0.596190    1.583822    0.129693
      2          6           0       -1.073437    1.227179   -0.681891
      3         16           0       -2.001011   -0.097651    0.146506
      4          8           0       -1.205978   -0.496562    1.304588
      5          6           0       -1.983544   -1.459331   -1.017833
      6          1           0       -2.566835   -1.179341   -1.894403
      7          1           0       -2.456025   -2.293370   -0.497613
      8          1           0       -0.947405   -1.686879   -1.267869
      9          8           0       -3.367711    0.342873    0.331712
     10         16           0        1.939758   -0.211791   -0.155727
     11          1           0        0.509456    1.943288    1.554751
     12          1           0        1.283237    2.626503   -0.657523
     13          8           0        1.298434   -1.030225   -1.191802
     14          8           0        3.291824    0.291932   -0.369220
     15          6           0        1.957432   -1.178140    1.361461
     16          1           0        0.934730   -1.443406    1.621935
     17          1           0        2.434160   -0.588195    2.143534
     18          1           0        2.555504   -2.061864    1.130493
     19          1           0       -0.928252    0.951460   -1.728212
     20          1           0       -1.720441    2.106978   -0.645907
 ---------------------------------------------------------------------

 SCF Done:  E(RHF) =  -1505.32442494     A.U. after    2 cycles

 The electronic state is 1-A.
 Alpha  occ. eigenvalues --  -76.28076 -75.89759 -75.87183 -21.05478 -21.05324
 Alpha  occ. eigenvalues --  -21.04249 -21.03964 -13.51889 -13.48770 -13.42678
 Alpha  occ. eigenvalues --  -13.37268 -13.35186 -13.31265 -11.43847 -11.42706
 Alpha  occ. eigenvalues --  -11.41798  -8.24791  -8.22156  -5.61533  -2.25373
 Alpha  occ. eigenvalues --   -2.23993  -2.23679  -1.84090  -1.81644  -1.66093
 Alpha  occ. eigenvalues --   -1.64207  -1.20000  -1.14627  -1.09742  -0.92721
 Alpha  occ. eigenvalues --   -0.89296  -0.77450  -0.67319  -0.66292  -0.63850
 Alpha  occ. eigenvalues --   -0.63552  -0.62542  -0.59535  -0.58377  -0.55952
 Alpha  occ. eigenvalues --   -0.53153  -0.52210  -0.50849  -0.44513  -0.43693
 Alpha  occ. eigenvalues --   -0.40240  -0.39991  -0.38910  -0.37740  -0.37029
 Alpha  occ. eigenvalues --   -0.36380  -0.35085  -0.31762
 Alpha virt. eigenvalues --    0.02545   0.03490   0.03852   0.05006   0.05501
 Alpha virt. eigenvalues --    0.05738   0.06604   0.07280   0.07772   0.08458
 Alpha virt. eigenvalues --    0.08802   0.09088   0.10404   0.10598   0.11945

 Mulliken charges:
               1
     1  Si   6.251415
     2  C   -4.848537
     3  S    6.520916
     4  O   -2.689616
     5  C   -4.682913
     6  H    1.332487
     7  H    1.343807
     8  H    1.559846
     9  O   -2.596660
    10  S    3.962536
    11  H   -1.986066
    12  H   -2.070019
    13  O   -2.380441
    14  O   -2.282202
    15  C   -4.673920
    16  H    1.543043
    17  H    1.384143
    18  H    1.344230
    19  H    1.595649
    20  H    1.372303
 Sum of Mulliken charges =  -0.00000

 Dipole moment (field-independent basis, Debye):
    X=             -0.9210    Y=             -0.3025    Z=             -0.3908  Tot=              1.0452

 Test job not archived.
 1\1\GINC-SE366\SP\RHF\Aug-CC-pVDZ\C3H10O4S2Si1\OHZDE\08-Apr-2025\0\\#t
  hf aug-cc-pvdz iop(5/13=1,5/36=2,99/5=2) pseudo=read geom=check guess
 =(read,tcheck) scf=(maxcycle=1)\\title\\0,1\Si,0,0.59619,1.583822,0.12
 9693\C,0,-1.073437,1.227179,-0.681891\S,0,-2.001011,-0.097651,0.146506
 \O,0,-1.205978,-0.496562,1.304588\C,0,-1.983544,-1.459331,-1.017833\H,
 0,-2.566835,-1.179341,-1.894403\H,0,-2.456025,-2.29337,-0.497613\H,0,-
 0.947405,-1.686879,-1.267869\O,0,-3.367711,0.342873,0.331712\S,0,1.939
 758,-0.211791,-0.155727\H,0,0.509456,1.943288,1.554751\H,0,1.283237,2.

 Normal termination of Gaussian 16 at Tue Apr  8 23:55:19 2025.
