 Gaussian 16, Revision C.01,

 ----------------------------------------------------------------------
 #t hf aug-cc-pvdz symm=none int=(grid=ultrafine) guess=(read,tcheck) s
 table=(opt,rrhf)
 ----------------------------------------------------------------------
 -----
 title
 -----
 Symbolic Z-matrix:
 Charge =  0 Multiplicity = 1

 SCF Done:  E(RHF) =  -537.058666180     A.U. after   13 cycles
 Normal termination of Gaussian 16 at Tue Apr  8 23:53:40 2025.
 Gaussian 16:  ES64L-G16RevC.01  3-Jul-2019

 ----------------------------------------------------------------------
 #t hf aug-cc-pvdz iop(5/13=1,5/36=2,99/5=2) pseudo=read geom=check gue
 ss=(read,tcheck) scf=(maxcycle=1)
 ----------------------------------------------------------------------
 -----
 title
 -----
 Structure from the checkpoint file:  "BDE49_nonexpt_1924_mol1.chk"
 Charge =  0 Multiplicity = 1

                         Standard orientation:
 ---------------------------------------------------------------------
 Center     Atomic      Atomic             Coordinates (Angstroms)
 Number     Number       Type             X           Y           Z
 ---------------------------------------------------------------------
      1         14           0       -1.957630   -0.065401   -0.247669
      2          6           0       -0.452167    0.191695    0.882941
      3          1           0       -2.164525    1.137987   -1.089443
      4          1           0       -3.163356   -0.259147    0.593173
      5          1           0       -1.777603   -1.239176   -1.126349
      6          6           0        0.823583    0.420109    0.124715
      7          7           0        1.592296   -0.510676   -0.299725
      8          8           0        1.100491   -1.791944    0.039379
      9          1           0        1.773917   -2.368869   -0.332940
     10          6           0        1.252274    1.827756   -0.183977
     11          1           0        1.437016    2.384126    0.741139
     12          1           0        0.468816    2.361511   -0.731810
     13          1           0        2.163045    1.822031   -0.782109
     14          1           0       -0.359377   -0.699359    1.508169
     15          1           0       -0.663248    1.049426    1.528504
 ---------------------------------------------------------------------

 SCF Done:  E(RHF) =  -538.366403666     A.U. after    2 cycles

 The electronic state is 1-A.
 Alpha  occ. eigenvalues --  -76.21713 -21.08651 -15.76300 -11.45174 -11.39107
 Alpha  occ. eigenvalues --  -11.36633  -5.55164  -2.18884  -2.17503  -2.17380
 Alpha  occ. eigenvalues --   -1.77352  -1.30196  -1.07358  -1.03087  -0.77311
 Alpha  occ. eigenvalues --   -0.72445  -0.65770  -0.62307  -0.59687  -0.54195
 Alpha  occ. eigenvalues --   -0.52515  -0.50358  -0.49372  -0.46597  -0.46223
 Alpha  occ. eigenvalues --   -0.42442  -0.34310  -0.28352
 Alpha virt. eigenvalues --    0.03797   0.04897   0.05355   0.05877   0.06197
 Alpha virt. eigenvalues --    0.06395   0.06953   0.07154   0.08729   0.09699
 Alpha virt. eigenvalues --    0.10406   0.10740   0.12070   0.13914   0.14441

 Mulliken charges:
               1
     1  Si   6.213250
     2  C   -4.695249
     3  H   -1.771716
     4  H   -1.747320
     5  H   -1.754588
     6  C    3.289142
     7  N   -1.370267
     8  O   -2.374201
     9  H    0.927759
    10  C   -3.703130
    11  H    1.182506
    12  H    1.312769
    13  H    1.336457
    14  H    1.628847
    15  H    1.525740
 Sum of Mulliken charges =   0.00000

 Dipole moment (field-independent basis, Debye):
    X=             -0.2740    Y=              0.1632    Z=              0.8807  Tot=              0.9367

 Test job not archived.
 1\1\GINC-SE341\SP\RHF\Aug-CC-pVDZ\C3H9N1O1Si1\OHZDE\08-Apr-2025\0\\#t
 hf aug-cc-pvdz iop(5/13=1,5/36=2,99/5=2) pseudo=read geom=check guess=
 (read,tcheck) scf=(maxcycle=1)\\title\\0,1\Si,0,-1.95763,-0.065401,-0.
 247669\C,0,-0.452167,0.191695,0.882941\H,0,-2.164525,1.137987,-1.08944
 3\H,0,-3.163356,-0.259147,0.593173\H,0,-1.777603,-1.239176,-1.126349\C
 ,0,0.823583,0.420109,0.124715\N,0,1.592296,-0.510676,-0.299725\O,0,1.1
 00491,-1.791944,0.039379\H,0,1.773917,-2.368869,-0.33294\C,0,1.252274,
 1.827756,-0.183977\H,0,1.437016,2.384126,0.741139\H,0,0.468816,2.36151

 Normal termination of Gaussian 16 at Tue Apr  8 23:53:45 2025.
