 Gaussian 16, Revision C.01,

 ----------------------------------------------------------------------
 #t hf aug-cc-pvdz symm=none int=(grid=ultrafine) guess=(read,tcheck) s
 table=(opt,rrhf)
 ----------------------------------------------------------------------
 -----
 title
 -----
 Symbolic Z-matrix:
 Charge =  0 Multiplicity = 1

 SCF Done:  E(RHF) =  -249.060504610     A.U. after   13 cycles
 Normal termination of Gaussian 16 at Tue Apr  8 22:38:00 2025.
 Gaussian 16:  ES64L-G16RevC.01  3-Jul-2019

 ----------------------------------------------------------------------
 #t hf aug-cc-pvdz iop(5/13=1,5/36=2,99/5=2) pseudo=read geom=check gue
 ss=(read,tcheck) scf=(maxcycle=1)
 ----------------------------------------------------------------------
 -----
 title
 -----
 Structure from the checkpoint file:  "BDE49_expt_1156_mol1.chk"
 Charge =  0 Multiplicity = 1

                         Standard orientation:
 ---------------------------------------------------------------------
 Center     Atomic      Atomic             Coordinates (Angstroms)
 Number     Number       Type             X           Y           Z
 ---------------------------------------------------------------------
      1          6           0       -1.872938   -0.166075    0.005088
      2          7           0       -2.535536   -1.096537   -0.151030
      3          6           0       -1.016364    1.004645    0.189977
      4          6           0        0.419085    0.795082   -0.335563
      5          1           0       -0.997433    1.248100    1.257576
      6          1           0       -1.487079    1.851086   -0.319144
      7          6           0        1.195955   -0.298764    0.403706
      8          1           0        0.946362    1.750550   -0.242535
      9          1           0        0.376202    0.562886   -1.404687
     10          6           0        2.618552   -0.478409   -0.132532
     11          1           0        0.651664   -1.245777    0.325083
     12          1           0        1.234309   -0.053273    1.471972
     13          1           0        2.609769   -0.759634   -1.189892
     14          1           0        3.149886   -1.261591    0.413783
     15          1           0        3.199334    0.444539   -0.039000
 ---------------------------------------------------------------------

 SCF Done:  E(RHF) =  -250.285722385     A.U. after    2 cycles

 The electronic state is 1-A.
 Alpha  occ. eigenvalues --  -15.75349 -11.47098 -11.43494 -11.41889 -11.39527
 Alpha  occ. eigenvalues --  -11.36182  -1.32885  -1.24194  -1.11260  -0.96299
 Alpha  occ. eigenvalues --   -0.85447  -0.70877  -0.64897  -0.62793  -0.60554
 Alpha  occ. eigenvalues --   -0.56099  -0.53649  -0.50358  -0.47927  -0.47301
 Alpha  occ. eigenvalues --   -0.46458  -0.42512  -0.41376
 Alpha virt. eigenvalues --    0.03455   0.04519   0.05061   0.05453   0.05928
 Alpha virt. eigenvalues --    0.06168   0.06868   0.08037   0.08559   0.09938
 Alpha virt. eigenvalues --    0.10956   0.12307   0.13161   0.13674   0.13856

 Mulliken charges:
               1
     1  C    2.272302
     2  N   -2.381289
     3  C   -3.130986
     4  C   -2.485929
     5  H    1.524061
     6  H    1.364451
     7  C   -2.844278
     8  H    1.371967
     9  H    1.515863
    10  C   -3.890596
    11  H    1.547018
    12  H    1.417173
    13  H    1.282907
    14  H    1.116876
    15  H    1.320462
 Sum of Mulliken charges =   0.00000

 Dipole moment (field-independent basis, Debye):
    X=              2.5140    Y=              2.6001    Z=              0.4261  Tot=              3.6417

 Test job not archived.
 1\1\GINC-SE090\SP\RHF\Aug-CC-pVDZ\C5H9N1\OHZDE\08-Apr-2025\0\\#t hf au
 g-cc-pvdz iop(5/13=1,5/36=2,99/5=2) pseudo=read geom=check guess=(read
 ,tcheck) scf=(maxcycle=1)\\title\\0,1\C,0,-1.872938,-0.166075,0.005088
 \N,0,-2.535536,-1.096537,-0.15103\C,0,-1.016364,1.004645,0.189977\C,0,
 0.419085,0.795082,-0.335563\H,0,-0.997433,1.2481,1.257576\H,0,-1.48707
 9,1.851086,-0.319144\C,0,1.195955,-0.298764,0.403706\H,0,0.946362,1.75
 055,-0.242535\H,0,0.376202,0.562886,-1.404687\C,0,2.618552,-0.478409,-
 0.132532\H,0,0.651664,-1.245777,0.325083\H,0,1.234309,-0.053273,1.4719

 Normal termination of Gaussian 16 at Tue Apr  8 22:38:04 2025.
