 Gaussian 16, Revision C.01,

 ----------------------------------------------------------------------
 #t hf aug-cc-pvdz symm=none int=(grid=ultrafine) guess=(read,tcheck) s
 table=(opt,rrhf)
 ----------------------------------------------------------------------
 -----
 title
 -----
 Symbolic Z-matrix:
 Charge =  0 Multiplicity = 1

 SCF Done:  E(RHF) =  -427.797148709     A.U. after   12 cycles
 Normal termination of Gaussian 16 at Wed Apr  9 00:30:43 2025.
 Gaussian 16:  ES64L-G16RevC.01  3-Jul-2019

 ----------------------------------------------------------------------
 #t hf aug-cc-pvdz iop(5/13=1,5/36=2,99/5=2) pseudo=read geom=check gue
 ss=(read,tcheck) scf=(maxcycle=1)
 ----------------------------------------------------------------------
 -----
 title
 -----
 Structure from the checkpoint file:  "BDE49_nonexpt_354_mol1.chk"
 Charge =  0 Multiplicity = 1

                         Standard orientation:
 ---------------------------------------------------------------------
 Center     Atomic      Atomic             Coordinates (Angstroms)
 Number     Number       Type             X           Y           Z
 ---------------------------------------------------------------------
      1          9           0        1.331692    1.145444    0.000067
      2          9           0        1.331802   -1.145384   -0.000242
      3          7           0       -0.813692   -0.000074    0.000036
      4          5           0        0.709092   -0.000001    0.000033
      5          8           0       -1.363755   -0.000152    1.094994
      6          8           0       -1.363878    0.000151   -1.094850
 ---------------------------------------------------------------------

 SCF Done:  E(RHF) =  -429.408138074     A.U. after    2 cycles

 The electronic state is 1-A.
 Alpha  occ. eigenvalues --  -29.32443 -29.32373 -21.13455 -21.13272 -16.00059
 Alpha  occ. eigenvalues --   -7.81351  -2.02647  -1.72305  -1.29348  -0.97050
 Alpha  occ. eigenvalues --   -0.86426  -0.74945  -0.68603  -0.65601  -0.57229
 Alpha  occ. eigenvalues --   -0.54011  -0.51945  -0.43529  -0.40189  -0.38925
 Alpha  occ. eigenvalues --   -0.36132  -0.34218  -0.28710
 Alpha virt. eigenvalues --    0.00075   0.03587   0.04787   0.05145   0.08435
 Alpha virt. eigenvalues --    0.08914   0.16287   0.17597   0.17796   0.18447
 Alpha virt. eigenvalues --    0.18868   0.20552   0.21112   0.22756   0.23239

 Mulliken charges:
               1
     1  F   -0.550910
     2  F   -0.551023
     3  N    4.832943
     4  B    1.425518
     5  O   -2.578243
     6  O   -2.578284
 Sum of Mulliken charges =  -0.00000

 Dipole moment (field-independent basis, Debye):
    X=              4.0518    Y=              0.0001    Z=             -0.0005  Tot=              4.0518

 Test job not archived.
 1\1\GINC-SE072\SP\RHF\Aug-CC-pVDZ\B1F2N1O2\OHZDE\09-Apr-2025\0\\#t hf
 aug-cc-pvdz iop(5/13=1,5/36=2,99/5=2) pseudo=read geom=check guess=(re
 ad,tcheck) scf=(maxcycle=1)\\title\\0,1\F,0,-1.331692,-1.145443,0.0000
 67\F,0,-1.331802,1.145385,-0.000242\N,0,0.813692,0.000074,0.000036\B,0
 ,-0.709092,0.000001,0.000033\O,0,1.363755,0.000152,1.094994\O,0,1.3638
 78,-0.000151,-1.09485\\Version=ES64L-G16RevC.01\State=1-A\HF=-429.4081
 381\RMSD=2.638e-01\Dipole=-1.5940931,-0.0000363,-0.0001783\Quadrupole=
 -0.5646389,4.4877468,-3.9231079,-0.0002892,0.0001666,-0.0011423\PG=C01

 Normal termination of Gaussian 16 at Wed Apr  9 00:30:45 2025.
