 Gaussian 16, Revision C.01,

 ----------------------------------------------------------------------
 #t hf aug-cc-pvdz symm=none int=(grid=ultrafine) guess=(read,tcheck) s
 table=(opt,rrhf)
 ----------------------------------------------------------------------
 -----
 title
 -----
 Symbolic Z-matrix:
 Charge =  0 Multiplicity = 1

 SCF Done:  E(RHF) =  -191.978498641     A.U. after   12 cycles
 Normal termination of Gaussian 16 at Tue Apr  8 22:36:23 2025.
 Gaussian 16:  ES64L-G16RevC.01  3-Jul-2019

 ----------------------------------------------------------------------
 #t hf aug-cc-pvdz iop(5/13=1,5/36=2,99/5=2) pseudo=read geom=check gue
 ss=(read,tcheck) scf=(maxcycle=1)
 ----------------------------------------------------------------------
 -----
 title
 -----
 Structure from the checkpoint file:  "BDE49_expt_1081_mol1.chk"
 Charge =  0 Multiplicity = 1

                         Standard orientation:
 ---------------------------------------------------------------------
 Center     Atomic      Atomic             Coordinates (Angstroms)
 Number     Number       Type             X           Y           Z
 ---------------------------------------------------------------------
      1          6           0       -0.544919    0.730276    0.000013
      2          6           0        0.933197    0.420242    0.000016
      3          8           0        1.404146   -0.688511   -0.000027
      4          1           0        1.595308    1.315925   -0.000016
      5          6           0       -1.445147   -0.500933    0.000003
      6          1           0       -0.736476    1.374437   -0.869700
      7          1           0       -0.736479    1.374424    0.869735
      8          1           0       -1.257898   -1.120993   -0.878930
      9          1           0       -2.498510   -0.212213    0.000003
     10          1           0       -1.257902   -1.121006    0.878927
 ---------------------------------------------------------------------

 SCF Done:  E(RHF) =  -192.867586231     A.U. after    2 cycles

 The electronic state is 1-A.
 Alpha  occ. eigenvalues --  -21.06193 -11.48336 -11.41246 -11.36767  -1.70877
 Alpha  occ. eigenvalues --   -1.18705  -0.96278  -0.78908  -0.66183  -0.63256
 Alpha  occ. eigenvalues --   -0.54486  -0.50708  -0.50703  -0.47694  -0.42397
 Alpha  occ. eigenvalues --   -0.29394
 Alpha virt. eigenvalues --    0.03439   0.05153   0.05793   0.05804   0.06606
 Alpha virt. eigenvalues --    0.07057   0.10819   0.11445   0.12088   0.13998
 Alpha virt. eigenvalues --    0.14095   0.14847   0.16637   0.17068   0.17585

 Mulliken charges:
               1
     1  C   -3.047828
     2  C    1.422200
     3  O   -2.691088
     4  H    1.418265
     5  C   -3.586915
     6  H    1.414665
     7  H    1.414686
     8  H    1.258875
     9  H    1.138273
    10  H    1.258868
 Sum of Mulliken charges =  -0.00000

 Dipole moment (field-independent basis, Debye):
    X=             -0.9093    Y=              0.9532    Z=             -0.0000  Tot=              1.3174

 Test job not archived.
 1\1\GINC-SE342\SP\RHF\Aug-CC-pVDZ\C3H6O1\OHZDE\08-Apr-2025\0\\#t hf au
 g-cc-pvdz iop(5/13=1,5/36=2,99/5=2) pseudo=read geom=check guess=(read
 ,tcheck) scf=(maxcycle=1)\\title\\0,1\C,0,-0.544919,0.730276,0.000013\
 C,0,0.933197,0.420242,0.000016\O,0,1.404146,-0.68851,-0.000027\H,0,1.5
 95308,1.315926,-0.000016\C,0,-1.445147,-0.500933,0.000003\H,0,-0.73647
 6,1.374437,-0.8697\H,0,-0.736479,1.374424,0.869735\H,0,-1.257898,-1.12
 0993,-0.87893\H,0,-2.49851,-0.212214,0.000003\H,0,-1.257902,-1.121006,
 0.878927\\Version=ES64L-G16RevC.01\State=1-A\HF=-192.8675862\RMSD=2.48

 Normal termination of Gaussian 16 at Tue Apr  8 22:36:25 2025.
