 Gaussian 16, Revision C.01,

 ----------------------------------------------------------------------
 #t hf aug-cc-pvdz symm=none int=(grid=ultrafine) guess=(read,tcheck) s
 table=(opt,rrhf)
 ----------------------------------------------------------------------
 -----
 title
 -----
 Symbolic Z-matrix:
 Charge =  0 Multiplicity = 1

 SCF Done:  E(RHF) =  -896.803000218     A.U. after   16 cycles
 Normal termination of Gaussian 16 at Tue Apr  8 22:55:01 2025.
 Gaussian 16:  ES64L-G16RevC.01  3-Jul-2019

 ----------------------------------------------------------------------
 #t hf aug-cc-pvdz iop(5/13=1,5/36=2,99/5=2) pseudo=read geom=check gue
 ss=(read,tcheck) scf=(maxcycle=1)
 ----------------------------------------------------------------------
 -----
 title
 -----
 Structure from the checkpoint file:  "BDE49_expt_1585_mol1.chk"
 Charge =  0 Multiplicity = 1

                         Standard orientation:
 ---------------------------------------------------------------------
 Center     Atomic      Atomic             Coordinates (Angstroms)
 Number     Number       Type             X           Y           Z
 ---------------------------------------------------------------------
      1          6           0       -4.138805   -0.266122   -0.137084
      2          6           0       -2.997468   -1.037526    0.042015
      3          6           0       -4.037625    1.110802   -0.337014
      4          6           0       -2.779592    1.704273   -0.350622
      5          6           0       -1.627095    0.940924   -0.165611
      6          6           0       -1.728620   -0.440188    0.028734
      7          1           0       -3.085849   -2.108825    0.186558
      8          1           0       -5.111667   -0.744908   -0.125299
      9          1           0       -4.928777    1.710725   -0.479254
     10          1           0       -2.684658    2.773993   -0.501817
     11          1           0       -0.663467    1.431998   -0.163058
     12         16           0       -0.346694   -1.538941    0.270694
     13          6           0        1.125998   -0.483506    0.002632
     14          6           0        2.332942   -1.370166   -0.171132
     15          6           0        1.437056    0.461437    1.136500
     16          1           0        0.972594    0.083698   -0.922675
     17          6           0        2.361790    1.432847    0.992152
     18          6           0        3.490630   -0.870042   -0.647255
     19          6           0        3.774382    0.529412   -0.857290
     20          6           0        3.268419    1.561703   -0.123691
     21          1           0        2.251863   -2.423344    0.078869
     22          1           0        4.296512   -1.565147   -0.867628
     23          1           0        0.887231    0.347565    2.064579
     24          1           0        2.470272    2.162760    1.790375
     25          1           0        4.562474    0.762996   -1.567755
     26          1           0        3.688499    2.548459   -0.297992
 ---------------------------------------------------------------------

 SCF Done:  E(RHF) =  -899.446941106     A.U. after    2 cycles

 The electronic state is 1-A.
 Alpha  occ. eigenvalues --  -75.68945 -13.17670 -13.15240 -13.04613 -11.51524
 Alpha  occ. eigenvalues --  -11.48413 -11.47995 -11.44605 -11.44568 -11.44028
 Alpha  occ. eigenvalues --  -11.43424 -11.41187 -11.41132 -11.41007 -11.40268
 Alpha  occ. eigenvalues --  -11.37504 -11.36700  -8.03085  -1.37669  -1.32557
 Alpha  occ. eigenvalues --   -1.19547  -1.14172  -1.12142  -1.09299  -1.02889
 Alpha  occ. eigenvalues --   -0.93069  -0.91238  -0.86699  -0.83339  -0.77134
 Alpha  occ. eigenvalues --   -0.72252  -0.70927  -0.69405  -0.64187  -0.62985
 Alpha  occ. eigenvalues --   -0.61567  -0.59302  -0.58048  -0.56299  -0.53941
 Alpha  occ. eigenvalues --   -0.51419  -0.50597  -0.49883  -0.46788  -0.45507
 Alpha  occ. eigenvalues --   -0.43831  -0.40584  -0.36908  -0.36196  -0.34243
 Alpha  occ. eigenvalues --   -0.33278  -0.29957  -0.21538
 Alpha virt. eigenvalues --    0.03392   0.04318   0.04679   0.05187   0.05289
 Alpha virt. eigenvalues --    0.05589   0.05933   0.06173   0.06798   0.07402
 Alpha virt. eigenvalues --    0.07465   0.09152   0.09510   0.10344   0.10784

 Mulliken charges:
               1
     1  C   -1.010002
     2  C   -4.874391
     3  C   -3.077324
     4  C   -2.385508
     5  C   -0.717263
     6  C    2.733893
     7  H    1.794324
     8  H    1.556005
     9  H    1.555776
    10  H    1.490772
    11  H    2.444406
    12  S    0.881409
    13  C   -2.559409
    14  C   -2.208949
    15  C   -2.251711
    16  H    1.784128
    17  C   -0.869114
    18  C   -0.553449
    19  C   -1.651417
    20  C   -1.182797
    21  H    1.630390
    22  H    1.407818
    23  H    1.920874
    24  H    1.396057
    25  H    1.375587
    26  H    1.369896
 Sum of Mulliken charges =   0.00000

 Dipole moment (field-independent basis, Debye):
    X=              0.6538    Y=             -0.5570    Z=              0.1668  Tot=              0.8749

 Test job not archived.
 1\1\GINC-SE038\SP\RHF\Aug-CC-pVDZ\C13H12S1\OHZDE\08-Apr-2025\0\\#t hf
 aug-cc-pvdz iop(5/13=1,5/36=2,99/5=2) pseudo=read geom=check guess=(re
 ad,tcheck) scf=(maxcycle=1)\\title\\0,1\C,0,-4.138805,-0.266122,-0.137
 084\C,0,-2.997468,-1.037526,0.042015\C,0,-4.037625,1.110802,-0.337014\
 C,0,-2.779592,1.704273,-0.350622\C,0,-1.627095,0.940924,-0.165611\C,0,
 -1.72862,-0.440188,0.028734\H,0,-3.085849,-2.108825,0.186558\H,0,-5.11
 1667,-0.744908,-0.125299\H,0,-4.928777,1.710725,-0.479254\H,0,-2.68465
 8,2.773993,-0.501817\H,0,-0.663467,1.431998,-0.163058\S,0,-0.346694,-1

 Normal termination of Gaussian 16 at Tue Apr  8 22:55:27 2025.
