 Gaussian 16, Revision C.01,

 ----------------------------------------------------------------------
 #t hf aug-cc-pvdz symm=none int=(grid=ultrafine) guess=(read,tcheck) s
 table=opt
 ----------------------------------------------------------------------
 -----
 title
 -----
 Symbolic Z-matrix:
 Charge =  0 Multiplicity = 2

 SCF Done:  E(UHF) =  -110.598968496     A.U. after   17 cycles
 Normal termination of Gaussian 16 at Tue Apr  8 22:40:23 2025.
 Gaussian 16:  ES64L-G16RevC.01  3-Jul-2019

 ----------------------------------------------------------------------
 #t hf aug-cc-pvdz iop(5/13=1,5/36=2,99/5=2) pseudo=read geom=check gue
 ss=(read,tcheck) scf=(maxcycle=1)
 ----------------------------------------------------------------------
 -----
 title
 -----
 Structure from the checkpoint file:  "BDE49_expt_1300_mol3.chk"
 Charge =  0 Multiplicity = 2

                         Standard orientation:
 ---------------------------------------------------------------------
 Center     Atomic      Atomic             Coordinates (Angstroms)
 Number     Number       Type             X           Y           Z
 ---------------------------------------------------------------------
      1          7           0        0.741898   -0.150822    0.025775
      2          7           0       -0.597009    0.024649   -0.075750
      3          1           0       -1.029962    0.893888    0.221091
      4          1           0       -1.128031   -0.800754    0.162843
      5          1           0        1.143770    0.790076   -0.034111
 ---------------------------------------------------------------------

 SCF Done:  E(UHF) =  -111.088133466     A.U. after    2 cycles

 The electronic state is 2-A.
 Alpha  occ. eigenvalues --  -15.78069 -15.76282  -1.46752  -1.05480  -0.71556
 Alpha  occ. eigenvalues --   -0.60197  -0.55689  -0.43971  -0.29472
 Alpha virt. eigenvalues --    0.03965   0.05221   0.06387   0.14612   0.16940
 Alpha virt. eigenvalues --    0.18076   0.19285   0.19914   0.20476   0.22392
 Alpha virt. eigenvalues --    0.26738   0.29431   0.30171   0.34530   0.38557

  Beta  occ. eigenvalues --  -15.77283 -15.73373  -1.42165  -0.98724  -0.70645
  Beta  occ. eigenvalues --   -0.58647  -0.43165  -0.39831
  Beta virt. eigenvalues --    0.04019   0.05279   0.06427   0.12774   0.14917
  Beta virt. eigenvalues --    0.17322   0.18113   0.19558   0.20415   0.22571
  Beta virt. eigenvalues --    0.26901   0.27935   0.29898   0.30667   0.34866

 Mulliken charges and spin densities:
               1          2
     1  N   -1.058137   0.956078
     2  N   -1.036709   0.135729
     3  H    0.647510  -0.010007
     4  H    0.762941  -0.019534
     5  H    0.684395  -0.062267
 Sum of Mulliken charges =   0.00000   1.00000

 Dipole moment (field-independent basis, Debye):
    X=             -1.4331    Y=              1.3141    Z=              0.6099  Tot=              2.0378
                          Isotropic Fermi Contact Couplings
        Atom                 a.u.       MegaHertz       Gauss      10(-4) cm-1
     1  N(14)              0.20643      66.69800      23.79951      22.24806
     2  N(14)              0.06355      20.53484       7.32734       6.84968
     3  H(1)               0.00085       3.79683       1.35481       1.26649
     4  H(1)              -0.00226     -10.10524      -3.60580      -3.37075
     5  H(1)              -0.01523     -68.06197     -24.28620     -22.70303
 --------------------------------------------------------
       Center         ----  Spin Dipole Couplings  ----
                      3XX-RR        3YY-RR        3ZZ-RR

 Normal termination of Gaussian 16 at Tue Apr  8 22:40:25 2025.
