 Gaussian 16, Revision C.01,

 ----------------------------------------------------------------------
 #t hf aug-cc-pvdz symm=none int=(grid=ultrafine) guess=(read,tcheck) s
 table=opt
 ----------------------------------------------------------------------
 -----
 title
 -----
 Symbolic Z-matrix:
 Charge =  0 Multiplicity = 2

 SCF Done:  E(UHF) =  -494.835390292     A.U. after   17 cycles
 Normal termination of Gaussian 16 at Tue Apr  8 23:17:55 2025.
 Gaussian 16:  ES64L-G16RevC.01  3-Jul-2019

 ----------------------------------------------------------------------
 #t hf aug-cc-pvdz iop(5/13=1,5/36=2,99/5=2) pseudo=read geom=check gue
 ss=(read,tcheck) scf=(maxcycle=1)
 ----------------------------------------------------------------------
 -----
 title
 -----
 Structure from the checkpoint file:  "BDE49_nonexpt_1029_mol2.chk"
 Charge =  0 Multiplicity = 2

                         Standard orientation:
 ---------------------------------------------------------------------
 Center     Atomic      Atomic             Coordinates (Angstroms)
 Number     Number       Type             X           Y           Z
 ---------------------------------------------------------------------
      1          8           0        0.903853    1.321160    0.000000
      2         15           0       -0.219438    0.328240   -0.000000
      3          6           0       -0.219438   -0.787824    1.458825
      4          6           0       -0.219438   -0.787824   -1.458825
      5          1           0       -0.257059   -0.183306    2.365945
      6          1           0        0.694389   -1.389739    1.470799
      7          1           0       -1.090331   -1.446451    1.428115
      8          1           0       -0.257059   -0.183306   -2.365945
      9          1           0       -1.090331   -1.446451   -1.428115
     10          1           0        0.694389   -1.389739   -1.470799
 ---------------------------------------------------------------------

 SCF Done:  E(UHF) =  -495.755450678     A.U. after    2 cycles

 The electronic state is 2-A'.
 Alpha  occ. eigenvalues -- -105.22586 -21.03405 -11.39087 -11.38953  -2.83658
 Alpha  occ. eigenvalues --   -1.85799  -1.54000  -1.50775  -1.31628  -1.03459
 Alpha  occ. eigenvalues --   -0.99127  -0.62889  -0.59635  -0.59078  -0.58267
 Alpha  occ. eigenvalues --   -0.57432  -0.36335  -0.34666  -0.23067  -0.17308
 Alpha  occ. eigenvalues --   -0.03031
 Alpha virt. eigenvalues --    0.04501   0.05314   0.05736   0.06352   0.07045
 Alpha virt. eigenvalues --    0.07174   0.09973   0.11781   0.11790   0.12801
 Alpha virt. eigenvalues --    0.14560   0.16555   0.16609   0.17814   0.18736

  Beta  occ. eigenvalues -- -105.22175 -21.01781 -11.38897 -11.38762  -2.82600
  Beta  occ. eigenvalues --   -1.83589  -1.53337  -1.41687  -1.24332  -1.02392
  Beta  occ. eigenvalues --   -0.98645  -0.59457  -0.59090  -0.58241  -0.57883
  Beta  occ. eigenvalues --   -0.57211  -0.33377  -0.22750  -0.20953  -0.13387
  Beta virt. eigenvalues --    0.02182   0.05359   0.05734   0.06369   0.07056
  Beta virt. eigenvalues --    0.07180   0.08708   0.11411   0.12097   0.12575
  Beta virt. eigenvalues --    0.13151   0.15182   0.16618   0.16816   0.17909

 Mulliken charges and spin densities:
               1          2
     1  O   -2.610491   0.080354
     2  P    7.575414   0.565930
     3  C   -5.868523  -0.077418
     4  C   -5.868523  -0.077418
     5  H    1.180207  -0.016373
     6  H    1.039790   0.150627
     7  H    1.166064   0.120022
     8  H    1.180207  -0.016373
     9  H    1.166064   0.120022
    10  H    1.039790   0.150627
 Sum of Mulliken charges =  -0.00000   1.00000

 Dipole moment (field-independent basis, Debye):
    X=             -2.5413    Y=             -0.9975    Z=             -0.0000  Tot=              2.7301
                          Isotropic Fermi Contact Couplings
        Atom                 a.u.       MegaHertz       Gauss      10(-4) cm-1
     1  O(17)              0.14449     -87.59146     -31.25481     -29.21736
     2  P(31)              0.21473     388.89969     138.76908     129.72297
     3  C(13)              0.08063      90.64753      32.34529      30.23676
     4  C(13)              0.08063      90.64753      32.34529      30.23676
     5  H(1)              -0.00072      -3.21717      -1.14797      -1.07313
     6  H(1)               0.00368      16.42762       5.86178       5.47966
     7  H(1)              -0.00093      -4.17822      -1.49089      -1.39371
     8  H(1)              -0.00072      -3.21717      -1.14797      -1.07313

 Normal termination of Gaussian 16 at Tue Apr  8 23:17:58 2025.
