 Gaussian 16, Revision C.01,

 ----------------------------------------------------------------------
 #t hf aug-cc-pvdz symm=none int=(grid=ultrafine) guess=(read,tcheck) s
 table=(opt,rrhf)
 ----------------------------------------------------------------------
 -----
 title
 -----
 Symbolic Z-matrix:
 Charge =  0 Multiplicity = 1

 SCF Done:  E(RHF) =  -173.311179885     A.U. after   12 cycles
 Normal termination of Gaussian 16 at Tue Apr  8 22:38:30 2025.
 Gaussian 16:  ES64L-G16RevC.01  3-Jul-2019

 ----------------------------------------------------------------------
 #t hf aug-cc-pvdz iop(5/13=1,5/36=2,99/5=2) pseudo=read geom=check gue
 ss=(read,tcheck) scf=(maxcycle=1)
 ----------------------------------------------------------------------
 -----
 title
 -----
 Structure from the checkpoint file:  "BDE49_expt_1191_mol1.chk"
 Charge =  0 Multiplicity = 1

                         Standard orientation:
 ---------------------------------------------------------------------
 Center     Atomic      Atomic             Coordinates (Angstroms)
 Number     Number       Type             X           Y           Z
 ---------------------------------------------------------------------
      1          6           0       -0.544576   -0.517315   -0.053482
      2          6           0        0.598245    0.494098    0.033611
      3          7           0        1.897572   -0.178045   -0.094965
      4          1           0        0.489851    1.078653    0.963636
      5          1           0        0.508527    1.206292   -0.794367
      6          1           0        2.056797   -0.775691    0.711529
      7          1           0        2.648090    0.505724   -0.095635
      8          6           0       -1.928723    0.132062    0.018808
      9          1           0       -0.438575   -1.244819    0.761620
     10          1           0       -0.433501   -1.080739   -0.985091
     11          1           0       -2.063873    0.682966    0.954968
     12          1           0       -2.722324   -0.617076   -0.041196
     13          1           0       -2.077671    0.837938   -0.804336
 ---------------------------------------------------------------------

 SCF Done:  E(RHF) =  -174.200864282     A.U. after    2 cycles

 The electronic state is 1-A.
 Alpha  occ. eigenvalues --  -15.72373 -11.41446 -11.38278 -11.34303  -1.33428
 Alpha  occ. eigenvalues --   -1.14688  -0.95188  -0.83224  -0.65878  -0.62260
 Alpha  occ. eigenvalues --   -0.58992  -0.55932  -0.51721  -0.46710  -0.45877
 Alpha  occ. eigenvalues --   -0.43691  -0.34895
 Alpha virt. eigenvalues --    0.04155   0.05019   0.05823   0.06080   0.06372
 Alpha virt. eigenvalues --    0.06579   0.06907   0.07484   0.09468   0.11077
 Alpha virt. eigenvalues --    0.13674   0.15311   0.15491   0.15943   0.17418

 Mulliken charges:
               1
     1  C   -2.891771
     2  C   -1.755352
     3  N   -2.422423
     4  H    1.466983
     5  H    1.492153
     6  H    0.588035
     7  H    0.569826
     8  C   -3.488455
     9  H    1.413879
    10  H    1.374596
    11  H    1.240262
    12  H    1.152632
    13  H    1.259635
 Sum of Mulliken charges =   0.00000

 Dipole moment (field-independent basis, Debye):
    X=              0.1288    Y=              0.4736    Z=              0.8470  Tot=              0.9789

 Test job not archived.
 1\1\GINC-SE339\SP\RHF\Aug-CC-pVDZ\C3H9N1\OHZDE\08-Apr-2025\0\\#t hf au
 g-cc-pvdz iop(5/13=1,5/36=2,99/5=2) pseudo=read geom=check guess=(read
 ,tcheck) scf=(maxcycle=1)\\title\\0,1\C,0,0.544576,0.517315,-0.053482\
 C,0,-0.598245,-0.494098,0.033611\N,0,-1.897572,0.178045,-0.094965\H,0,
 -0.489851,-1.078653,0.963636\H,0,-0.508527,-1.206292,-0.794367\H,0,-2.
 056797,0.775691,0.711529\H,0,-2.64809,-0.505724,-0.095635\C,0,1.928723
 ,-0.132062,0.018808\H,0,0.438575,1.244819,0.76162\H,0,0.433501,1.08073
 9,-0.985091\H,0,2.063873,-0.682966,0.954968\H,0,2.722324,0.617076,-0.0

 Normal termination of Gaussian 16 at Tue Apr  8 22:38:33 2025.
