 Gaussian 16, Revision C.01,

 ----------------------------------------------------------------------
 #t hf aug-cc-pvdz symm=none int=(grid=ultrafine) guess=(read,tcheck) s
 table=(opt,rrhf)
 ----------------------------------------------------------------------
 -----
 title
 -----
 Symbolic Z-matrix:
 Charge =  0 Multiplicity = 1

 SCF Done:  E(RHF) =  -840.987700895     A.U. after   17 cycles
 Normal termination of Gaussian 16 at Wed Apr  9 00:25:24 2025.
 Gaussian 16:  ES64L-G16RevC.01  3-Jul-2019

 ----------------------------------------------------------------------
 #t hf aug-cc-pvdz iop(5/13=1,5/36=2,99/5=2) pseudo=read geom=check gue
 ss=(read,tcheck) scf=(maxcycle=1)
 ----------------------------------------------------------------------
 -----
 title
 -----
 Structure from the checkpoint file:  "BDE49_nonexpt_2694_mol1.chk"
 Charge =  0 Multiplicity = 1

                         Standard orientation:
 ---------------------------------------------------------------------
 Center     Atomic      Atomic             Coordinates (Angstroms)
 Number     Number       Type             X           Y           Z
 ---------------------------------------------------------------------
      1          9           0        3.042979   -0.103416   -0.000017
      2         16           0        1.672324   -1.059307   -0.000003
      3          6           0        0.461734    0.229281   -0.000006
      4          6           0       -0.872415   -0.208824    0.000006
      5          6           0       -1.909731    0.715931    0.000005
      6          1           0       -2.940832    0.388037    0.000014
      7          6           0       -1.610023    2.082129   -0.000008
      8          6           0        0.754752    1.586991   -0.000020
      9          1           0        1.787233    1.908354   -0.000029
     10          6           0       -0.289669    2.514256   -0.000021
     11          1           0       -0.061065    3.573291   -0.000031
     12          1           0       -2.420006    2.801812   -0.000009
     13          8           0       -1.000569   -1.570101    0.000017
     14          6           0       -2.304629   -2.139629    0.000041
     15          1           0       -2.159097   -3.218085    0.000054
     16          1           0       -2.862907   -1.846893   -0.895111
     17          1           0       -2.862883   -1.846869    0.895200
 ---------------------------------------------------------------------

 SCF Done:  E(RHF) =  -843.148346030     A.U. after    2 cycles

 The electronic state is 1-A.
 Alpha  occ. eigenvalues --  -75.76206 -29.26612 -21.09169 -13.23778 -13.21551
 Alpha  occ. eigenvalues --  -13.07024 -11.53716 -11.47688 -11.44883 -11.43087
 Alpha  occ. eigenvalues --  -11.42725 -11.42035 -11.37694  -8.10143  -1.80919
 Alpha  occ. eigenvalues --   -1.35325  -1.22146  -1.10187  -1.07713  -0.99920
 Alpha  occ. eigenvalues --   -0.88532  -0.84287  -0.71902  -0.68830  -0.64640
 Alpha  occ. eigenvalues --   -0.63914  -0.62799  -0.60426  -0.55643  -0.55131
 Alpha  occ. eigenvalues --   -0.55036  -0.47156  -0.45671  -0.42790  -0.42256
 Alpha  occ. eigenvalues --   -0.40725  -0.34145  -0.33184  -0.28227  -0.27730
 Alpha  occ. eigenvalues --   -0.16725
 Alpha virt. eigenvalues --    0.02873   0.04725   0.05127   0.05370   0.05907
 Alpha virt. eigenvalues --    0.07283   0.07499   0.08321   0.09164   0.09707
 Alpha virt. eigenvalues --    0.11827   0.12363   0.13013   0.13013   0.13855

 Mulliken charges:
               1
     1  F   -0.476281
     2  S    0.655859
     3  C    0.152859
     4  C    4.592953
     5  C   -2.818512
     6  H    1.919124
     7  C   -1.470456
     8  C   -2.549463
     9  H    1.824197
    10  C   -1.057890
    11  H    1.555796
    12  H    1.537574
    13  O   -4.525515
    14  C   -3.543068
    15  H    1.464315
    16  H    1.369256
    17  H    1.369252
 Sum of Mulliken charges =   0.00000

 Dipole moment (field-independent basis, Debye):
    X=              0.8983    Y=             -0.7611    Z=              0.0000  Tot=              1.1774

 Test job not archived.
 1\1\GINC-SE015\SP\RHF\Aug-CC-pVDZ\C7H7F1O1S1\OHZDE\09-Apr-2025\0\\#t h
 f aug-cc-pvdz iop(5/13=1,5/36=2,99/5=2) pseudo=read geom=check guess=(
 read,tcheck) scf=(maxcycle=1)\\title\\0,1\F,0,3.042979,-0.103416,-0.00
 0017\S,0,1.672324,-1.059307,-0.000003\C,0,0.461734,0.229281,-0.000006\
 C,0,-0.872415,-0.208824,0.000006\C,0,-1.909731,0.715931,0.000005\H,0,-
 2.940832,0.388037,0.000014\C,0,-1.610023,2.082129,-0.000008\C,0,0.7547
 52,1.586991,-0.00002\H,0,1.787233,1.908354,-0.000029\C,0,-0.289669,2.5
 14256,-0.000021\H,0,-0.061065,3.573291,-0.000031\H,0,-2.420006,2.80181

 Normal termination of Gaussian 16 at Wed Apr  9 00:25:33 2025.
