 Gaussian 16, Revision C.01,

 ----------------------------------------------------------------------
 #t hf aug-cc-pvdz symm=none int=(grid=ultrafine) guess=(read,tcheck) s
 table=opt
 ----------------------------------------------------------------------
 -----
 title
 -----
 Symbolic Z-matrix:
 Charge =  0 Multiplicity = 2

 SCF Done:  E(UHF) =  -613.460875372     A.U. after   20 cycles
 Normal termination of Gaussian 16 at Tue Apr  8 23:57:51 2025.
 Gaussian 16:  ES64L-G16RevC.01  3-Jul-2019

 ----------------------------------------------------------------------
 #t hf aug-cc-pvdz iop(5/13=1,5/36=2,99/5=2) pseudo=read geom=check gue
 ss=(read,tcheck) scf=(maxcycle=1)
 ----------------------------------------------------------------------
 -----
 title
 -----
 Structure from the checkpoint file:  "BDE49_nonexpt_203_mol2.chk"
 Charge =  0 Multiplicity = 2

                         Standard orientation:
 ---------------------------------------------------------------------
 Center     Atomic      Atomic             Coordinates (Angstroms)
 Number     Number       Type             X           Y           Z
 ---------------------------------------------------------------------
      1         17           0        0.000000    0.000000    1.692792
      2          5           0        0.000000    0.000000   -0.001929
      3          7           0        0.000000    0.000000   -1.263856
      4          8           0        0.000000    0.000000   -2.490102
 ---------------------------------------------------------------------

 SCF Done:  E(UHF) =  -614.310803682     A.U. after    2 cycles

 Unable to determine electronic state:  an orbital has unidentified symmetry.
 Alpha  occ. eigenvalues --  -99.94964 -21.16132 -15.76936 -10.52164  -9.72180
 Alpha  occ. eigenvalues --   -9.71534  -9.71460  -7.74724  -1.86588  -1.39846
 Alpha  occ. eigenvalues --   -1.19101  -0.76644  -0.66192  -0.65796  -0.64592
 Alpha  occ. eigenvalues --   -0.57586  -0.55437  -0.34166  -0.30070
 Alpha virt. eigenvalues --    0.03070   0.03650   0.03799   0.05390   0.10153
 Alpha virt. eigenvalues --    0.14518   0.14964   0.15275   0.15757   0.16085
 Alpha virt. eigenvalues --    0.16566   0.18946   0.20238   0.20256   0.20378

  Beta  occ. eigenvalues --  -99.94946 -21.12852 -15.77140 -10.52145  -9.72243
  Beta  occ. eigenvalues --   -9.71447  -9.71388  -7.74315  -1.79669  -1.39688
  Beta  occ. eigenvalues --   -1.14837  -0.76212  -0.64462  -0.63453  -0.62149
  Beta  occ. eigenvalues --   -0.55009  -0.50648  -0.27959
  Beta virt. eigenvalues --    0.03127   0.03690   0.03795   0.05454   0.06405
  Beta virt. eigenvalues --    0.10383   0.14876   0.15248   0.15416   0.16353
  Beta virt. eigenvalues --    0.16598   0.18254   0.19211   0.20457   0.20459

 Mulliken charges and spin densities:
               1          2
     1  Cl  -0.936463   0.027322
     2  B    2.286559   0.206504
     3  N    0.423756  -0.125542
     4  O   -1.773852   0.891716
 Sum of Mulliken charges =   0.00000   1.00000

 Dipole moment (field-independent basis, Debye):
    X=              0.0000    Y=              0.0000    Z=              0.4454  Tot=              0.4454
                          Isotropic Fermi Contact Couplings
        Atom                 a.u.       MegaHertz       Gauss      10(-4) cm-1
     1  Cl(35)             0.01248       5.47348       1.95307       1.82576
     2  B(11)              0.02272      32.58635      11.62762      10.86964
     3  N(14)             -0.05683     -18.36133      -6.55178      -6.12468
     4  O(17)              0.18416    -111.63724     -39.83494     -37.23817
 --------------------------------------------------------
       Center         ----  Spin Dipole Couplings  ----
                      3XX-RR        3YY-RR        3ZZ-RR
 --------------------------------------------------------

 Normal termination of Gaussian 16 at Tue Apr  8 23:57:53 2025.
