 Gaussian 16, Revision C.01,

 ----------------------------------------------------------------------
 #t hf aug-cc-pvdz symm=none int=(grid=ultrafine) guess=(read,tcheck) s
 table=opt
 ----------------------------------------------------------------------
 -----
 title
 -----
 Symbolic Z-matrix:
 Charge =  0 Multiplicity = 2

 SCF Done:  E(UHF) =  -117.649025136     A.U. after   15 cycles
 Normal termination of Gaussian 16 at Tue Apr  8 22:33:40 2025.
 Gaussian 16:  ES64L-G16RevC.01  3-Jul-2019

 ----------------------------------------------------------------------
 #t hf aug-cc-pvdz iop(5/13=1,5/36=2,99/5=2) pseudo=read geom=check gue
 ss=(read,tcheck) scf=(maxcycle=1)
 ----------------------------------------------------------------------
 -----
 title
 -----
 Structure from the checkpoint file:  "BDE49_expt_1039_mol2.chk"
 Charge =  0 Multiplicity = 2

                         Standard orientation:
 ---------------------------------------------------------------------
 Center     Atomic      Atomic             Coordinates (Angstroms)
 Number     Number       Type             X           Y           Z
 ---------------------------------------------------------------------
      1          6           0        0.000000    0.533370   -0.045291
      2          6           0        1.297865   -0.197759    0.002780
      3          1           0        1.306988   -1.049192   -0.689561
      4          1           0        1.499564   -0.617961    1.003188
      5          1           0        2.142480    0.449646   -0.245934
      6          6           0       -1.297865   -0.197759    0.002780
      7          1           0        0.000000    1.607910    0.102995
      8          1           0       -1.306990   -1.049189   -0.689565
      9          1           0       -2.142480    0.449648   -0.245929
     10          1           0       -1.499562   -0.617966    1.003187
 ---------------------------------------------------------------------

 SCF Done:  E(UHF) =  -118.248218454     A.U. after    2 cycles

 The electronic state is 2-A.
 Alpha  occ. eigenvalues --  -11.39641 -11.37196 -11.34483  -1.19924  -1.00195
 Alpha  occ. eigenvalues --   -0.81803  -0.61640  -0.59342  -0.55348  -0.53023
 Alpha  occ. eigenvalues --   -0.47255  -0.46749  -0.28990
 Alpha virt. eigenvalues --    0.03586   0.05635   0.05954   0.06466   0.06777
 Alpha virt. eigenvalues --    0.06870   0.07686   0.12177   0.12695   0.14917
 Alpha virt. eigenvalues --    0.14975   0.15795   0.16580   0.17370   0.18477

  Beta  occ. eigenvalues --  -11.38692 -11.37511 -11.33433  -1.16100  -1.00056
  Beta  occ. eigenvalues --   -0.76804  -0.60792  -0.55376  -0.54561  -0.51843
  Beta  occ. eigenvalues --   -0.46491  -0.45996
  Beta virt. eigenvalues --    0.03627   0.05654   0.05986   0.06397   0.06790
  Beta virt. eigenvalues --    0.06879   0.07694   0.10168   0.12461   0.14023
  Beta virt. eigenvalues --    0.14942   0.15267   0.15844   0.17462   0.18622

 Mulliken charges and spin densities:
               1          2
     1  C   -1.207515   1.689314
     2  C   -3.784524  -0.380364
     3  H    1.236982   0.014351
     4  H    1.234240   0.032192
     5  H    1.269086  -0.000553
     6  C   -3.784523  -0.380365
     7  H    1.295949  -0.020564
     8  H    1.236980   0.014351
     9  H    1.269086  -0.000553
    10  H    1.234239   0.032192
 Sum of Mulliken charges =   0.00000   1.00000

 Dipole moment (field-independent basis, Debye):
    X=              0.0000    Y=              0.0261    Z=              0.1380  Tot=              0.1404
                          Isotropic Fermi Contact Couplings
        Atom                 a.u.       MegaHertz       Gauss      10(-4) cm-1
     1  C(13)              0.14111     158.63009      56.60316      52.91330
     2  C(13)             -0.03646     -40.99159     -14.62682     -13.67332
     3  H(1)               0.00911      40.73735      14.53610      13.58852
     4  H(1)               0.02032      90.82843      32.40984      30.29710
     5  H(1)               0.00335      14.95584       5.33662       4.98873
     6  C(13)             -0.03646     -40.99163     -14.62683     -13.67334
     7  H(1)              -0.01813     -81.02398     -28.91137     -27.02669
     8  H(1)               0.00911      40.73780      14.53626      13.58867

 Normal termination of Gaussian 16 at Tue Apr  8 22:33:42 2025.
