 Gaussian 16, Revision C.01,

 ----------------------------------------------------------------------
 #t hf aug-cc-pvdz symm=none int=(grid=ultrafine) guess=(read,tcheck) s
 table=(opt,rrhf)
 ----------------------------------------------------------------------
 -----
 title
 -----
 Symbolic Z-matrix:
 Charge =  0 Multiplicity = 1

 SCF Done:  E(RHF) =  -596.363596386     A.U. after   11 cycles
 Normal termination of Gaussian 16 at Wed Apr  9 00:23:36 2025.
 Gaussian 16:  ES64L-G16RevC.01  3-Jul-2019

 ----------------------------------------------------------------------
 #t hf aug-cc-pvdz iop(5/13=1,5/36=2,99/5=2) pseudo=read geom=check gue
 ss=(read,tcheck) scf=(maxcycle=1)
 ----------------------------------------------------------------------
 -----
 title
 -----
 Structure from the checkpoint file:  "BDE49_nonexpt_2684_mol1.chk"
 Charge =  0 Multiplicity = 1

                         Standard orientation:
 ---------------------------------------------------------------------
 Center     Atomic      Atomic             Coordinates (Angstroms)
 Number     Number       Type             X           Y           Z
 ---------------------------------------------------------------------
      1          9           0        0.000000    1.250278   -0.496448
      2         16           0        0.000000   -0.000000    0.558504
      3          9           0       -0.000000   -1.250278   -0.496448
 ---------------------------------------------------------------------

 SCF Done:  E(RHF) =  -597.262802538     A.U. after    2 cycles

 The electronic state is 1-A1.
 Alpha  occ. eigenvalues --  -75.84524 -29.31557 -29.31543 -13.30019 -13.22856
 Alpha  occ. eigenvalues --  -13.13671  -8.18453  -1.30463  -0.81510  -0.62795
 Alpha  occ. eigenvalues --   -0.50893  -0.45440  -0.38605  -0.35569  -0.31766
 Alpha  occ. eigenvalues --   -0.29760  -0.15780
 Alpha virt. eigenvalues --    0.07228   0.09825   0.10637   0.14176   0.20998
 Alpha virt. eigenvalues --    0.21246   0.24309   0.28248   0.28459   0.28534
 Alpha virt. eigenvalues --    0.30033   0.34813   0.35306   0.36910   0.43005

 Mulliken charges:
               1
     1  F   -0.128999
     2  S    0.257998
     3  F   -0.128999
 Sum of Mulliken charges =   0.00000

 Dipole moment (field-independent basis, Debye):
    X=              0.0000    Y=              0.0000    Z=             -2.7889  Tot=              2.7889

 Test job not archived.
 1\1\GINC-SE338\SP\RHF\Aug-CC-pVDZ\F2S1\OHZDE\09-Apr-2025\0\\#t hf aug-
 cc-pvdz iop(5/13=1,5/36=2,99/5=2) pseudo=read geom=check guess=(read,t
 check) scf=(maxcycle=1)\\title\\0,1\F,0,0.,1.250278,-0.496448\S,0,0.,0
 .,0.558504\F,0,0.,-1.250278,-0.496448\\Version=ES64L-G16RevC.01\State=
 1-A1\HF=-597.2628025\RMSD=3.155e-02\Dipole=0.,0.,-1.0972326\Quadrupole
 =-2.3431842,2.9267844,-0.5836002,0.,0.,0.\PG=C02V [C2(S1),SGV(F2)]\\@

 Normal termination of Gaussian 16 at Wed Apr  9 00:23:37 2025.
