 Gaussian 16, Revision C.01,

 ----------------------------------------------------------------------
 #t hf aug-cc-pvdz symm=none int=(grid=ultrafine) guess=(read,tcheck) s
 table=(opt,rrhf)
 ----------------------------------------------------------------------
 -----
 title
 -----
 Symbolic Z-matrix:
 Charge =  0 Multiplicity = 1

 SCF Done:  E(RHF) =  -1168.87621802     A.U. after   16 cycles
 Normal termination of Gaussian 16 at Tue Apr  8 23:30:25 2025.
 Gaussian 16:  ES64L-G16RevC.01  3-Jul-2019

 ----------------------------------------------------------------------
 #t hf aug-cc-pvdz iop(5/13=1,5/36=2,99/5=2) pseudo=read geom=check gue
 ss=(read,tcheck) scf=(maxcycle=1)
 ----------------------------------------------------------------------
 -----
 title
 -----
 Structure from the checkpoint file:  "BDE49_nonexpt_1331_mol1.chk"
 Charge =  0 Multiplicity = 1

                         Standard orientation:
 ---------------------------------------------------------------------
 Center     Atomic      Atomic             Coordinates (Angstroms)
 Number     Number       Type             X           Y           Z
 ---------------------------------------------------------------------
      1          7           0        3.035829    0.288900    0.166115
      2         15           0        1.899985   -1.130824   -0.296154
      3          6           0        0.285630   -0.429626    0.297628
      4         15           0       -2.018492    1.218545   -0.308334
      5          7           0       -2.972275   -0.326438    0.153036
      6          8           0       -2.691998   -1.370471   -0.420137
      7          8           0       -3.880661   -0.173503    0.949785
      8          8           0        2.577992    1.423412    0.172229
      9          8           0        4.199480   -0.009368    0.364541
     10          6           0       -0.385165    0.469128   -0.747437
     11          1           0       -0.340525   -1.305534    0.496066
     12          1           0       -0.536419   -0.063662   -1.690440
     13          1           0        0.251523    1.333236   -0.967753
     14          1           0        0.435564    0.103676    1.238094
     15          1           0        2.236036   -1.841369    0.878124
     16          1           0       -1.754752    1.523033    1.046686
 ---------------------------------------------------------------------

 SCF Done:  E(RHF) =  -1171.34203613     A.U. after    2 cycles

 The electronic state is 1-A.
 Alpha  occ. eigenvalues -- -105.26345-105.26038 -21.11074 -21.11060 -21.10742
 Alpha  occ. eigenvalues --  -21.10699 -15.99237 -15.99192 -11.46537 -11.41646
 Alpha  occ. eigenvalues --   -2.83739  -2.83301  -2.00238  -1.99748  -1.70592
 Alpha  occ. eigenvalues --   -1.70329  -1.56224  -1.55712  -1.52242  -1.52003
 Alpha  occ. eigenvalues --   -1.51931  -1.51684  -1.16749  -0.98560  -0.94996
 Alpha  occ. eigenvalues --   -0.89323  -0.75824  -0.75085  -0.68556  -0.66502
 Alpha  occ. eigenvalues --   -0.65971  -0.61752  -0.61512  -0.58278  -0.57708
 Alpha  occ. eigenvalues --   -0.55589  -0.55232  -0.35708  -0.34570  -0.33245
 Alpha  occ. eigenvalues --   -0.33043  -0.30501  -0.27699  -0.26989  -0.21750
 Alpha  occ. eigenvalues --   -0.07559  -0.04549
 Alpha virt. eigenvalues --    0.04547   0.05287   0.05708   0.06112   0.06849
 Alpha virt. eigenvalues --    0.07088   0.08362   0.08638   0.09523   0.10161
 Alpha virt. eigenvalues --    0.11457   0.11760   0.12699   0.12971   0.13721

 Mulliken charges:
               1
     1  N    3.963551
     2  P    3.259890
     3  C   -3.945088
     4  P    3.366336
     5  N    4.195486
     6  O   -2.569400
     7  O   -2.704824
     8  O   -2.443036
     9  O   -2.653996
    10  C   -4.024066
    11  H    1.469543
    12  H    1.430545
    13  H    1.400983
    14  H    1.392863
    15  H   -1.007136
    16  H   -1.131651
 Sum of Mulliken charges =   0.00000

 Dipole moment (field-independent basis, Debye):
    X=              0.0748    Y=             -0.3388    Z=             -2.9595  Tot=              2.9798

 Test job not archived.
 1\1\GINC-SE363\SP\RHF\Aug-CC-pVDZ\C2H6N2O4P2\OHZDE\08-Apr-2025\0\\#t h
 f aug-cc-pvdz iop(5/13=1,5/36=2,99/5=2) pseudo=read geom=check guess=(
 read,tcheck) scf=(maxcycle=1)\\title\\0,1\N,0,3.035829,0.2889,0.166115
 \P,0,1.899985,-1.130824,-0.296154\C,0,0.28563,-0.429626,0.297628\P,0,-
 2.018492,1.218545,-0.308334\N,0,-2.972275,-0.326438,0.153036\O,0,-2.69
 1998,-1.370471,-0.420137\O,0,-3.880661,-0.173503,0.949785\O,0,2.577992
 ,1.423412,0.172229\O,0,4.19948,-0.009368,0.364541\C,0,-0.385165,0.4691
 28,-0.747437\H,0,-0.340525,-1.305534,0.496066\H,0,-0.536419,-0.063662,

 Normal termination of Gaussian 16 at Tue Apr  8 23:30:33 2025.
