 Gaussian 16, Revision C.01,

 ----------------------------------------------------------------------
 #t hf aug-cc-pvdz symm=none int=(grid=ultrafine) guess=(read,tcheck) s
 table=(opt,rrhf)
 ----------------------------------------------------------------------
 -----
 title
 -----
 Symbolic Z-matrix:
 Charge =  0 Multiplicity = 1

 SCF Done:  E(RHF) =  -995.802262890     A.U. after   14 cycles
 Normal termination of Gaussian 16 at Tue Apr  8 23:48:54 2025.
 Gaussian 16:  ES64L-G16RevC.01  3-Jul-2019

 ----------------------------------------------------------------------
 #t hf aug-cc-pvdz iop(5/13=1,5/36=2,99/5=2) pseudo=read geom=check gue
 ss=(read,tcheck) scf=(maxcycle=1)
 ----------------------------------------------------------------------
 -----
 title
 -----
 Structure from the checkpoint file:  "BDE49_nonexpt_1794_mol1.chk"
 Charge =  0 Multiplicity = 1

                         Standard orientation:
 ---------------------------------------------------------------------
 Center     Atomic      Atomic             Coordinates (Angstroms)
 Number     Number       Type             X           Y           Z
 ---------------------------------------------------------------------
      1          6           0       -2.300750    1.233632    0.019837
      2          6           0       -0.961995    1.141329    0.377844
      3          6           0       -2.964416    0.071861   -0.371962
      4          7           0       -2.384163   -1.130265   -0.421099
      5          6           0       -1.096328   -1.201376   -0.074893
      6          6           0       -0.320379   -0.105451    0.334042
      7          1           0       -2.824809    2.181737    0.042918
      8          1           0       -0.422366    2.030622    0.688055
      9          1           0       -0.656189   -2.194505   -0.124639
     10         14           0        1.470272   -0.319589    0.800969
     11         17           0        2.724124    0.272085   -0.761607
     12          1           0       -4.011909    0.107362   -0.658688
     13          1           0        1.756601   -1.740241    1.072740
     14          1           0        1.817100    0.535704    1.951855
 ---------------------------------------------------------------------

 SCF Done:  E(RHF) =  -997.358328728     A.U. after    2 cycles

 The electronic state is 1-A.
 Alpha  occ. eigenvalues --  -99.88214 -76.26666 -15.74825 -11.48833 -11.46047
 Alpha  occ. eigenvalues --  -11.45014 -11.41923 -11.38796 -10.45599  -9.65510
 Alpha  occ. eigenvalues --   -9.64906  -9.64862  -5.60244  -2.24679  -2.23040
 Alpha  occ. eigenvalues --   -2.22229  -1.45633  -1.28601  -1.19977  -1.12440
 Alpha  occ. eigenvalues --   -0.90358  -0.90177  -0.78957  -0.72959  -0.63758
 Alpha  occ. eigenvalues --   -0.61983  -0.57011  -0.56607  -0.56242  -0.55198
 Alpha  occ. eigenvalues --   -0.54262  -0.51861  -0.47718  -0.43728  -0.38356
 Alpha  occ. eigenvalues --   -0.36117  -0.35794
 Alpha virt. eigenvalues --    0.02987   0.04842   0.05283   0.05381   0.05681
 Alpha virt. eigenvalues --    0.06232   0.07866   0.08271   0.08725   0.09325
 Alpha virt. eigenvalues --    0.10067   0.10924   0.11942   0.12163   0.12440

 Mulliken charges:
               1
     1  C   -0.798845
     2  C    0.051764
     3  C   -1.004842
     4  N   -3.481767
     5  C   -1.674000
     6  C    0.044803
     7  H    1.386260
     8  H    1.796451
     9  H    1.641422
    10  Si   4.814564
    11  Cl  -0.945401
    12  H    1.553477
    13  H   -1.692519
    14  H   -1.691368
 Sum of Mulliken charges =  -0.00000

 Dipole moment (field-independent basis, Debye):
    X=             -1.5704    Y=              1.2484    Z=              1.2133  Tot=              2.3445

 Test job not archived.
 1\1\GINC-SE058\SP\RHF\Aug-CC-pVDZ\C5H6Cl1N1Si1\OHZDE\08-Apr-2025\0\\#t
  hf aug-cc-pvdz iop(5/13=1,5/36=2,99/5=2) pseudo=read geom=check guess
 =(read,tcheck) scf=(maxcycle=1)\\title\\0,1\C,0,-2.30075,1.233632,0.01
 9837\C,0,-0.961995,1.141329,0.377844\C,0,-2.964416,0.071861,-0.371962\
 N,0,-2.384163,-1.130265,-0.421099\C,0,-1.096328,-1.201376,-0.074893\C,
 0,-0.320379,-0.105451,0.334042\H,0,-2.824809,2.181737,0.042918\H,0,-0.
 422366,2.030622,0.688055\H,0,-0.656189,-2.194505,-0.124639\Si,0,1.4702
 72,-0.319589,0.800969\Cl,0,2.724124,0.272085,-0.761607\H,0,-4.011909,0

 Normal termination of Gaussian 16 at Tue Apr  8 23:49:01 2025.
