 Gaussian 16, Revision C.01,

 ----------------------------------------------------------------------
 #t hf aug-cc-pvdz symm=none int=(grid=ultrafine) guess=(read,tcheck) s
 table=(opt,rrhf)
 ----------------------------------------------------------------------
 -----
 title
 -----
 Symbolic Z-matrix:
 Charge =  0 Multiplicity = 1

 SCF Done:  E(RHF) =  -643.086865883     A.U. after   15 cycles
 Normal termination of Gaussian 16 at Tue Apr  8 23:37:52 2025.
 Gaussian 16:  ES64L-G16RevC.01  3-Jul-2019

 ----------------------------------------------------------------------
 #t hf aug-cc-pvdz iop(5/13=1,5/36=2,99/5=2) pseudo=read geom=check gue
 ss=(read,tcheck) scf=(maxcycle=1)
 ----------------------------------------------------------------------
 -----
 title
 -----
 Structure from the checkpoint file:  "BDE49_nonexpt_1512_mol1.chk"
 Charge =  0 Multiplicity = 1

                         Standard orientation:
 ---------------------------------------------------------------------
 Center     Atomic      Atomic             Coordinates (Angstroms)
 Number     Number       Type             X           Y           Z
 ---------------------------------------------------------------------
      1          6           0        0.095886   -0.215874   -0.057073
      2          6           0       -0.394257    1.088959   -0.132631
      3          6           0       -1.770830    1.298325   -0.071213
      4          7           0       -2.671249    0.319588    0.051247
      5          6           0       -2.195365   -0.929207    0.115884
      6          6           0       -0.842448   -1.246887    0.064709
      7          1           0        0.287535    1.925155   -0.229731
      8          1           0       -2.169090    2.308562   -0.122579
      9          1           0       -2.936635   -1.717597    0.217044
     10          1           0       -0.532845   -2.285487    0.127429
     11          7           0        2.620604    0.842436    0.267541
     12         15           0        1.886883   -0.605777   -0.248233
     13          1           0        1.955645   -1.433705    0.907983
     14          1           0        3.506483    1.057332   -0.163195
     15          1           0        2.582268    1.126335    1.236973
 ---------------------------------------------------------------------

 SCF Done:  E(RHF) =  -644.699601709     A.U. after    2 cycles

 The electronic state is 1-A.
 Alpha  occ. eigenvalues -- -105.20286 -15.75562 -15.73408 -11.47631 -11.44611
 Alpha  occ. eigenvalues --  -11.43556 -11.41337 -11.37451  -2.78302  -1.57711
 Alpha  occ. eigenvalues --   -1.52071  -1.45636  -1.43358  -1.19883  -1.15819
 Alpha  occ. eigenvalues --   -1.10974  -0.88814  -0.86795  -0.75264  -0.67018
 Alpha  occ. eigenvalues --   -0.65613  -0.63867  -0.60103  -0.58826  -0.53911
 Alpha  occ. eigenvalues --   -0.46919  -0.42177  -0.38156  -0.37678  -0.33912
 Alpha  occ. eigenvalues --   -0.29377  -0.24510  -0.02446
 Alpha virt. eigenvalues --    0.03742   0.04659   0.05764   0.06262   0.06327
 Alpha virt. eigenvalues --    0.06913   0.07900   0.08779   0.09679   0.10843
 Alpha virt. eigenvalues --    0.11576   0.11894   0.12770   0.12896   0.13362

 Mulliken charges:
               1
     1  C    2.188736
     2  C   -2.228981
     3  C   -0.962859
     4  N   -3.479758
     5  C   -1.144037
     6  C   -1.958379
     7  H    1.625531
     8  H    1.501626
     9  H    1.450203
    10  H    1.785035
    11  N   -2.599890
    12  P    3.355319
    13  H   -0.714424
    14  H    0.656452
    15  H    0.525426
 Sum of Mulliken charges =  -0.00000

 Dipole moment (field-independent basis, Debye):
    X=              2.6557    Y=              0.2752    Z=              0.1463  Tot=              2.6739

 Test job not archived.
 1\1\GINC-SE212\SP\RHF\Aug-CC-pVDZ\C5H7N2P1\OHZDE\08-Apr-2025\0\\#t hf
 aug-cc-pvdz iop(5/13=1,5/36=2,99/5=2) pseudo=read geom=check guess=(re
 ad,tcheck) scf=(maxcycle=1)\\title\\0,1\C,0,0.095886,-0.215874,-0.0570
 73\C,0,-0.394257,1.088959,-0.132631\C,0,-1.77083,1.298325,-0.071213\N,
 0,-2.671249,0.319588,0.051247\C,0,-2.195365,-0.929207,0.115884\C,0,-0.
 842448,-1.246887,0.064709\H,0,0.287535,1.925155,-0.229731\H,0,-2.16909
 ,2.308562,-0.122579\H,0,-2.936635,-1.717597,0.217044\H,0,-0.532845,-2.
 285487,0.127429\N,0,2.620604,0.842436,0.267541\P,0,1.886883,-0.605777,

 Normal termination of Gaussian 16 at Tue Apr  8 23:37:59 2025.
