 Gaussian 16, Revision C.01,

 ----------------------------------------------------------------------
 #t hf aug-cc-pvdz symm=none int=(grid=ultrafine) guess=(read,tcheck) s
 table=(opt,rrhf)
 ----------------------------------------------------------------------
 -----
 title
 -----
 Symbolic Z-matrix:
 Charge =  0 Multiplicity = 1

 SCF Done:  E(RHF) =  -1092.73712536     A.U. after   13 cycles
 Normal termination of Gaussian 16 at Wed Apr  9 00:14:52 2025.
 Gaussian 16:  ES64L-G16RevC.01  3-Jul-2019

 ----------------------------------------------------------------------
 #t hf aug-cc-pvdz iop(5/13=1,5/36=2,99/5=2) pseudo=read geom=check gue
 ss=(read,tcheck) scf=(maxcycle=1)
 ----------------------------------------------------------------------
 -----
 title
 -----
 Structure from the checkpoint file:  "BDE49_nonexpt_2459_mol1.chk"
 Charge =  0 Multiplicity = 1

                         Standard orientation:
 ---------------------------------------------------------------------
 Center     Atomic      Atomic             Coordinates (Angstroms)
 Number     Number       Type             X           Y           Z
 ---------------------------------------------------------------------
      1         14           0       -2.106948   -0.532989    0.294581
      2         14           0       -0.568449    1.158839   -0.285566
      3          1           0       -2.348298   -1.428778   -0.852891
      4          1           0       -3.382283    0.123755    0.676247
      5          1           0       -1.603367   -1.290620    1.461368
      6         16           0        1.387722    0.041973   -0.434724
      7          1           0       -0.470200    2.297426    0.664446
      8          1           0       -0.800095    1.694581   -1.646985
      9          8           0        0.921720   -1.347094   -0.836033
     10          6           0        1.798682   -0.000368    1.357061
     11          1           0        2.037674    1.012108    1.689710
     12          1           0        2.677337   -0.640201    1.449728
     13          1           0        0.975380   -0.422789    1.933654
 ---------------------------------------------------------------------

 SCF Done:  E(RHF) =  -1093.82124852     A.U. after    2 cycles

 The electronic state is 1-A.
 Alpha  occ. eigenvalues --  -76.25036 -76.22723 -75.76917 -20.99489 -13.29883
 Alpha  occ. eigenvalues --  -13.19093 -13.14677 -11.41115  -8.11126  -5.58472
 Alpha  occ. eigenvalues --   -5.56054  -2.20682  -2.20470  -2.19710  -2.18247
 Alpha  occ. eigenvalues --   -2.18076  -2.17158  -1.66673  -1.15099  -0.93365
 Alpha  occ. eigenvalues --   -0.81603  -0.72213  -0.61419  -0.60966  -0.52507
 Alpha  occ. eigenvalues --   -0.48807  -0.48605  -0.47122  -0.45974  -0.38318
 Alpha  occ. eigenvalues --   -0.35870  -0.30661  -0.23765
 Alpha virt. eigenvalues --    0.03070   0.03824   0.04187   0.05684   0.06192
 Alpha virt. eigenvalues --    0.06720   0.07526   0.07844   0.08590   0.08877
 Alpha virt. eigenvalues --    0.09230   0.09668   0.10280   0.10888   0.11527

 Mulliken charges:
               1
     1  Si   5.195343
     2  Si   4.126574
     3  H   -1.592625
     4  H   -1.669152
     5  H   -1.587293
     6  S    1.316238
     7  H   -1.718507
     8  H   -1.858992
     9  O   -1.965286
    10  C   -4.650971
    11  H    1.442144
    12  H    1.364447
    13  H    1.598082
 Sum of Mulliken charges =   0.00000

 Dipole moment (field-independent basis, Debye):
    X=              0.8141    Y=              0.6304    Z=              0.2748  Tot=              1.0657

 Test job not archived.
 1\1\GINC-SE044\SP\RHF\Aug-CC-pVDZ\C1H8O1S1Si2\OHZDE\09-Apr-2025\0\\#t
 hf aug-cc-pvdz iop(5/13=1,5/36=2,99/5=2) pseudo=read geom=check guess=
 (read,tcheck) scf=(maxcycle=1)\\title\\0,1\Si,0,-2.106948,-0.532989,0.
 294581\Si,0,-0.568449,1.158839,-0.285566\H,0,-2.348298,-1.428778,-0.85
 2891\H,0,-3.382283,0.123755,0.676247\H,0,-1.603367,-1.29062,1.461368\S
 ,0,1.387722,0.041973,-0.434724\H,0,-0.4702,2.297426,0.664446\H,0,-0.80
 0095,1.694581,-1.646985\O,0,0.92172,-1.347094,-0.836033\C,0,1.798682,-
 0.000368,1.357061\H,0,2.037674,1.012108,1.68971\H,0,2.677337,-0.640201

 Normal termination of Gaussian 16 at Wed Apr  9 00:14:57 2025.
