 Gaussian 16, Revision C.01,

 ----------------------------------------------------------------------
 #t hf aug-cc-pvdz symm=none int=(grid=ultrafine) guess=(read,tcheck) s
 table=(opt,rrhf)
 ----------------------------------------------------------------------
 -----
 title
 -----
 Symbolic Z-matrix:
 Charge =  0 Multiplicity = 1

 SCF Done:  E(RHF) =  -585.098772588     A.U. after   15 cycles
 Normal termination of Gaussian 16 at Wed Apr  9 00:47:33 2025.
 Gaussian 16:  ES64L-G16RevC.01  3-Jul-2019

 ----------------------------------------------------------------------
 #t hf aug-cc-pvdz iop(5/13=1,5/36=2,99/5=2) pseudo=read geom=check gue
 ss=(read,tcheck) scf=(maxcycle=1)
 ----------------------------------------------------------------------
 -----
 title
 -----
 Structure from the checkpoint file:  "BDE49_nonexpt_804_mol1.chk"
 Charge =  0 Multiplicity = 1

                         Standard orientation:
 ---------------------------------------------------------------------
 Center     Atomic      Atomic             Coordinates (Angstroms)
 Number     Number       Type             X           Y           Z
 ---------------------------------------------------------------------
      1          6           0        0.308720   -0.328606    0.548319
      2          6           0        1.080351   -1.265516   -0.151380
      3          6           0        2.337305   -0.931999   -0.649053
      4          6           0        2.850514    0.349616   -0.460221
      5          6           0        2.094663    1.292225    0.232923
      6          6           0        0.837770    0.956027    0.730676
      7          5           0       -2.622888    1.553248   -0.806863
      8          1           0        2.918162   -1.676428   -1.182602
      9          1           0        3.829927    0.609249   -0.845442
     10          1           0        2.485386    2.291323    0.392378
     11          1           0        0.262126    1.696807    1.276377
     12          1           0        0.692648   -2.267993   -0.302637
     13          6           0       -1.068421   -0.682483    1.056799
     14         14           0       -2.423422   -0.371321   -0.245135
     15          1           0       -2.284551    2.456758   -0.105859
     16          1           0       -3.149750    1.834505   -1.838864
     17          1           0       -2.185133   -1.267476   -1.406095
     18          1           0       -3.749019   -0.750299    0.332732
     19          1           0       -1.312073   -0.094102    1.946927
     20          1           0       -1.110793   -1.735682    1.350904
 ---------------------------------------------------------------------

 SCF Done:  E(RHF) =  -586.697051900     A.U. after    2 cycles

 The electronic state is 1-A.
 Alpha  occ. eigenvalues --  -76.19715 -11.51380 -11.43757 -11.42857 -11.40402
 Alpha  occ. eigenvalues --  -11.40204 -11.37970 -11.35624  -7.61991  -5.53408
 Alpha  occ. eigenvalues --   -2.17191  -2.15901  -2.15609  -1.34769  -1.14335
 Alpha  occ. eigenvalues --   -1.08727  -0.99385  -0.86362  -0.85957  -0.82678
 Alpha  occ. eigenvalues --   -0.70818  -0.69182  -0.64316  -0.60902  -0.57508
 Alpha  occ. eigenvalues --   -0.56171  -0.52263  -0.51497  -0.49017  -0.46682
 Alpha  occ. eigenvalues --   -0.44443  -0.43698  -0.41391  -0.36411  -0.32791
 Alpha  occ. eigenvalues --   -0.30081
 Alpha virt. eigenvalues --    0.02834   0.03472   0.03918   0.04063   0.05098
 Alpha virt. eigenvalues --    0.05542   0.05714   0.06788   0.07412   0.07558
 Alpha virt. eigenvalues --    0.08269   0.08805   0.09267   0.09720   0.10168

 Mulliken charges:
               1
     1  C    4.994684
     2  C   -2.604621
     3  C   -1.627460
     4  C   -2.918352
     5  C   -1.541051
     6  C   -2.110761
     7  B    3.008996
     8  H    1.497667
     9  H    1.536149
    10  H    1.513188
    11  H    1.845070
    12  H    1.801469
    13  C   -5.448431
    14  Si   5.869050
    15  H   -2.198631
    16  H   -2.391047
    17  H   -1.924292
    18  H   -1.863836
    19  H    1.348528
    20  H    1.213681
 Sum of Mulliken charges =  -0.00000

 Dipole moment (field-independent basis, Debye):
    X=              0.4503    Y=              0.2984    Z=              0.4434  Tot=              0.6989

 Test job not archived.
 1\1\GINC-SE174\SP\RHF\Aug-CC-pVDZ\C7H11B1Si1\OHZDE\09-Apr-2025\0\\#t h
 f aug-cc-pvdz iop(5/13=1,5/36=2,99/5=2) pseudo=read geom=check guess=(
 read,tcheck) scf=(maxcycle=1)\\title\\0,1\C,0,0.30872,-0.328606,0.5483
 19\C,0,1.080351,-1.265516,-0.15138\C,0,2.337305,-0.931999,-0.649053\C,
 0,2.850514,0.349616,-0.460221\C,0,2.094663,1.292225,0.232923\C,0,0.837
 77,0.956027,0.730676\B,0,-2.622888,1.553248,-0.806863\H,0,2.918162,-1.
 676428,-1.182602\H,0,3.829927,0.609249,-0.845442\H,0,2.485386,2.291323
 ,0.392378\H,0,0.262126,1.696807,1.276377\H,0,0.692648,-2.267993,-0.302

 Normal termination of Gaussian 16 at Wed Apr  9 00:47:44 2025.
