 Gaussian 16, Revision C.01,

 ----------------------------------------------------------------------
 #t hf aug-cc-pvdz symm=none int=(grid=ultrafine) guess=(read,tcheck) s
 table=(opt,rrhf)
 ----------------------------------------------------------------------
 -----
 title
 -----
 Symbolic Z-matrix:
 Charge =  0 Multiplicity = 1

 SCF Done:  E(RHF) =  -459.597290495     A.U. after   11 cycles
 Normal termination of Gaussian 16 at Tue Apr  8 23:30:08 2025.
 Gaussian 16:  ES64L-G16RevC.01  3-Jul-2019

 ----------------------------------------------------------------------
 #t hf aug-cc-pvdz iop(5/13=1,5/36=2,99/5=2) pseudo=read geom=check gue
 ss=(read,tcheck) scf=(maxcycle=1)
 ----------------------------------------------------------------------
 -----
 title
 -----
 Structure from the checkpoint file:  "BDE49_nonexpt_1347_mol1.chk"
 Charge =  0 Multiplicity = 1

                         Standard orientation:
 ---------------------------------------------------------------------
 Center     Atomic      Atomic             Coordinates (Angstroms)
 Number     Number       Type             X           Y           Z
 ---------------------------------------------------------------------
      1         15           0       -0.000039   -0.000061   -0.599778
      2          6           0       -0.003354    1.636067    0.278233
      3          1           0       -0.003171    1.530433    1.368439
      4          1           0       -0.886356    2.207435   -0.019542
      5          1           0        0.877341    2.211004   -0.019507
      6          6           0       -1.415304   -0.820906    0.278367
      7          1           0       -2.353542   -0.345873   -0.019774
      8          1           0       -1.324295   -0.767653    1.368603
      9          1           0       -1.468460   -1.871366   -0.019186
     10          6           0        1.418714   -0.815064    0.278180
     11          1           0        2.354946   -0.336174   -0.020094
     12          1           0        1.476155   -1.865302   -0.019369
     13          1           0        1.327638   -0.762173    1.368424
 ---------------------------------------------------------------------

 SCF Done:  E(RHF) =  -460.436760803     A.U. after    2 cycles

 The electronic state is 1-A.
 Alpha  occ. eigenvalues -- -105.15030 -11.36302 -11.36274 -11.36273  -2.73863
 Alpha  occ. eigenvalues --   -1.46115  -1.46113  -1.43250  -1.05538  -0.96128
 Alpha  occ. eigenvalues --   -0.96127  -0.63177  -0.57651  -0.56647  -0.56646
 Alpha  occ. eigenvalues --   -0.54319  -0.54317  -0.53554  -0.19983  -0.19983
 Alpha  occ. eigenvalues --   -0.01085
 Alpha virt. eigenvalues --    0.05294   0.05781   0.05782   0.06420   0.06898
 Alpha virt. eigenvalues --    0.06898   0.07317   0.07317   0.08360   0.10502
 Alpha virt. eigenvalues --    0.11847   0.11848   0.13834   0.16962   0.16962

 Mulliken charges:
               1
     1  P    8.914537
     2  C   -6.112260
     3  H    1.023898
     4  H    1.058387
     5  H    1.058418
     6  C   -6.112024
     7  H    1.058398
     8  H    1.023669
     9  H    1.058450
    10  C   -6.111991
    11  H    1.058400
    12  H    1.058473
    13  H    1.023645
 Sum of Mulliken charges =  -0.00000

 Dipole moment (field-independent basis, Debye):
    X=             -0.0002    Y=             -0.0004    Z=             -3.5359  Tot=              3.5359

 Test job not archived.
 1\1\GINC-SE100\SP\RHF\Aug-CC-pVDZ\C3H9P1\OHZDE\08-Apr-2025\0\\#t hf au
 g-cc-pvdz iop(5/13=1,5/36=2,99/5=2) pseudo=read geom=check guess=(read
 ,tcheck) scf=(maxcycle=1)\\title\\0,1\P,0,-0.000039,-0.000061,-0.59977
 8\C,0,-0.004076,1.636066,0.278233\H,0,-0.003846,1.530432,1.368439\H,0,
 -0.88733,2.207044,-0.019542\H,0,0.876365,2.211391,-0.019507\C,0,-1.414
 942,-0.82153,0.278367\H,0,-2.353389,-0.346911,-0.019774\H,0,-1.323956,
 -0.768237,1.368603\H,0,-1.467634,-1.872014,-0.019186\C,0,1.419073,-0.8
 14438,0.27818\H,0,2.355094,-0.335135,-0.020094\H,0,1.476978,-1.86465,-

 Normal termination of Gaussian 16 at Tue Apr  8 23:30:11 2025.
