 Gaussian 16, Revision C.01,

 ----------------------------------------------------------------------
 #t hf aug-cc-pvdz symm=none int=(grid=ultrafine) guess=(read,tcheck) s
 table=(opt,rrhf)
 ----------------------------------------------------------------------
 -----
 title
 -----
 Symbolic Z-matrix:
 Charge =  0 Multiplicity = 1

 SCF Done:  E(RHF) =  -1025.30917668     A.U. after   15 cycles
 Normal termination of Gaussian 16 at Tue Apr  8 22:50:41 2025.
 Gaussian 16:  ES64L-G16RevC.01  3-Jul-2019

 ----------------------------------------------------------------------
 #t hf aug-cc-pvdz iop(5/13=1,5/36=2,99/5=2) pseudo=read geom=check gue
 ss=(read,tcheck) scf=(maxcycle=1)
 ----------------------------------------------------------------------
 -----
 title
 -----
 Structure from the checkpoint file:  "BDE49_expt_1677_mol1.chk"
 Charge =  0 Multiplicity = 1

                         Standard orientation:
 ---------------------------------------------------------------------
 Center     Atomic      Atomic             Coordinates (Angstroms)
 Number     Number       Type             X           Y           Z
 ---------------------------------------------------------------------
      1          6           0        1.999221   -0.000000   -0.002827
      2          6           0        1.317205    1.213135   -0.011914
      3          6           0       -0.073024    1.208177   -0.027399
      4          6           0       -0.769221    0.000002   -0.035533
      5          6           0       -0.073025   -1.208173   -0.027399
      6          6           0        1.317203   -1.213134   -0.011914
      7         17           0        3.750898   -0.000001    0.015077
      8          1           0       -0.614806    2.145204   -0.042280
      9          1           0        1.867032    2.144934   -0.009692
     10          6           0       -2.272160    0.000001    0.001147
     11          9           0       -2.792955    1.088455   -0.605371
     12          9           0       -2.741526   -0.000043    1.271111
     13          9           0       -2.792953   -1.088416   -0.605444
     14          1           0       -0.614809   -2.145200   -0.042280
     15          1           0        1.867029   -2.144933   -0.009692
 ---------------------------------------------------------------------

 SCF Done:  E(RHF) =  -1027.81913035     A.U. after    2 cycles

 The electronic state is 1-A.
 Alpha  occ. eigenvalues --  -99.91022 -29.31211 -29.31150 -29.30718 -11.62221
 Alpha  occ. eigenvalues --  -11.54731 -11.48274 -11.47520 -11.46436 -11.44478
 Alpha  occ. eigenvalues --  -11.40354 -10.48375  -9.68403  -9.67498  -9.67328
 Alpha  occ. eigenvalues --   -1.47016  -1.39144  -1.28195  -1.13567  -1.10375
 Alpha  occ. eigenvalues --   -0.93869  -0.90794  -0.88070  -0.85652  -0.78230
 Alpha  occ. eigenvalues --   -0.71443  -0.64918  -0.63160  -0.61857  -0.59041
 Alpha  occ. eigenvalues --   -0.53604  -0.52361  -0.51677  -0.47965  -0.47524
 Alpha  occ. eigenvalues --   -0.43830  -0.43646  -0.39380  -0.37169  -0.35558
 Alpha  occ. eigenvalues --   -0.33188  -0.30618  -0.25743  -0.24742  -0.21535
 Alpha virt. eigenvalues --    0.03066   0.05116   0.06177   0.06580   0.07542
 Alpha virt. eigenvalues --    0.08944   0.09336   0.09563   0.10106   0.11046
 Alpha virt. eigenvalues --    0.11819   0.11925   0.12928   0.13694   0.14037

 Mulliken charges:
               1
     1  C   -2.918104
     2  C   -1.248646
     3  C   -1.227155
     4  C    1.227218
     5  C   -1.227213
     6  C   -1.248668
     7  Cl  -0.863058
     8  H    1.881182
     9  H    1.776583
    10  C   -0.617774
    11  F    0.314388
    12  F    0.179143
    13  F    0.314351
    14  H    1.881170
    15  H    1.776581
 Sum of Mulliken charges =  -0.00000

 Dipole moment (field-independent basis, Debye):
    X=             -3.0606    Y=             -0.0000    Z=              0.0668  Tot=              3.0614

 Test job not archived.
 1\1\GINC-SE398\SP\RHF\Aug-CC-pVDZ\C7H4Cl1F3\OHZDE\08-Apr-2025\0\\#t hf
  aug-cc-pvdz iop(5/13=1,5/36=2,99/5=2) pseudo=read geom=check guess=(r
 ead,tcheck) scf=(maxcycle=1)\\title\\0,1\C,0,1.999221,0.,-0.002827\C,0
 ,1.317205,1.213135,-0.011914\C,0,-0.073024,1.208177,-0.027399\C,0,-0.7
 69221,0.000002,-0.035533\C,0,-0.073025,-1.208173,-0.027399\C,0,1.31720
 3,-1.213134,-0.011914\Cl,0,3.750898,-0.000001,0.015077\H,0,-0.614806,2
 .145204,-0.04228\H,0,1.867032,2.144934,-0.009692\C,0,-2.27216,0.000001
 ,0.001147\F,0,-2.792955,1.088455,-0.605371\F,0,-2.741526,-0.000043,1.2

 Normal termination of Gaussian 16 at Tue Apr  8 22:50:49 2025.
