 Gaussian 16, Revision C.01,

 ----------------------------------------------------------------------
 #t hf aug-cc-pvdz symm=none int=(grid=ultrafine) guess=(read,tcheck) s
 table=(opt,rrhf)
 ----------------------------------------------------------------------
 -----
 title
 -----
 Symbolic Z-matrix:
 Charge =  0 Multiplicity = 1

 SCF Done:  E(RHF) =  -1126.21619794     A.U. after   15 cycles
 Normal termination of Gaussian 16 at Wed Apr  9 00:21:40 2025.
 Gaussian 16:  ES64L-G16RevC.01  3-Jul-2019

 ----------------------------------------------------------------------
 #t hf aug-cc-pvdz iop(5/13=1,5/36=2,99/5=2) pseudo=read geom=check gue
 ss=(read,tcheck) scf=(maxcycle=1)
 ----------------------------------------------------------------------
 -----
 title
 -----
 Structure from the checkpoint file:  "BDE49_nonexpt_2608_mol1.chk"
 Charge =  0 Multiplicity = 1

                         Standard orientation:
 ---------------------------------------------------------------------
 Center     Atomic      Atomic             Coordinates (Angstroms)
 Number     Number       Type             X           Y           Z
 ---------------------------------------------------------------------
      1          6           0        0.666733   -1.370257    1.205937
      2          6           0        0.666733   -2.761957    1.206037
      3          6           0        0.667686   -3.460334    0.000000
      4          6           0        0.666733   -2.761957   -1.206037
      5          6           0        0.666733   -1.370257   -1.205937
      6          6           0        0.668601    0.847368   -0.000000
      7          6           0        0.676215   -0.659680    0.000000
      8         16           0       -1.103489    1.336415   -0.000000
      9         17           0       -0.943559    3.419365   -0.000000
     10          1           0        1.143516    1.256264   -0.891589
     11          1           0        1.143516    1.256264    0.891589
     12          1           0        0.664444   -0.827912    2.145454
     13          1           0        0.667210   -3.300866    2.146574
     14          1           0        0.669389   -4.544357    0.000000
     15          1           0        0.667210   -3.300866   -2.146574
     16          1           0        0.664444   -0.827912   -2.145454
 ---------------------------------------------------------------------

 SCF Done:  E(RHF) =  -1127.99133109     A.U. after    2 cycles

 The electronic state is 1-A'.
 Alpha  occ. eigenvalues --  -99.89959 -75.73709 -13.15877 -13.10185 -13.06595
 Alpha  occ. eigenvalues --  -11.53020 -11.45358 -11.44313 -11.43038 -11.42012
 Alpha  occ. eigenvalues --  -11.41603 -11.37430 -10.47064  -9.66841  -9.66207
 Alpha  occ. eigenvalues --   -9.66107  -8.07353  -1.38068  -1.32269  -1.18879
 Alpha  occ. eigenvalues --   -1.10321  -1.07443  -0.94834  -0.87656  -0.84120
 Alpha  occ. eigenvalues --   -0.71938  -0.66526  -0.64296  -0.60618  -0.59181
 Alpha  occ. eigenvalues --   -0.57008  -0.55153  -0.53565  -0.53488  -0.51156
 Alpha  occ. eigenvalues --   -0.45738  -0.45423  -0.41389  -0.34237  -0.32527
 Alpha  occ. eigenvalues --   -0.25057
 Alpha virt. eigenvalues --    0.02609   0.04705   0.04875   0.05344   0.05790
 Alpha virt. eigenvalues --    0.05964   0.06750   0.07996   0.08449   0.09272
 Alpha virt. eigenvalues --    0.10900   0.10966   0.12070   0.12660   0.13440

 Mulliken charges:
               1
     1  C   -2.595597
     2  C   -1.507392
     3  C   -2.884484
     4  C   -1.507392
     5  C   -2.595597
     6  C   -4.680718
     7  C    5.088731
     8  S    0.839295
     9  Cl  -0.531223
    10  H    1.209761
    11  H    1.209761
    12  H    1.720672
    13  H    1.494559
    14  H    1.524393
    15  H    1.494559
    16  H    1.720672
 Sum of Mulliken charges =   0.00000

 Dipole moment (field-independent basis, Debye):
    X=              0.2169    Y=             -4.3218    Z=             -0.0000  Tot=              4.3272

 Test job not archived.
 1\1\GINC-SE186\SP\RHF\Aug-CC-pVDZ\C7H7Cl1S1\OHZDE\09-Apr-2025\0\\#t hf
  aug-cc-pvdz iop(5/13=1,5/36=2,99/5=2) pseudo=read geom=check guess=(r
 ead,tcheck) scf=(maxcycle=1)\\title\\0,1\C,0,0.666733,-1.370257,1.2059
 37\C,0,0.666733,-2.761957,1.206037\C,0,0.667686,-3.460334,0.\C,0,0.666
 733,-2.761957,-1.206037\C,0,0.666733,-1.370257,-1.205937\C,0,0.668601,
 0.847368,0.\C,0,0.676215,-0.65968,0.\S,0,-1.103489,1.336415,0.\Cl,0,-0
 .943559,3.419365,0.\H,0,1.143516,1.256264,-0.891589\H,0,1.143516,1.256
 264,0.891589\H,0,0.664444,-0.827912,2.145454\H,0,0.66721,-3.300866,2.1

 Normal termination of Gaussian 16 at Wed Apr  9 00:21:46 2025.
