 Gaussian 16, Revision C.01,

 ----------------------------------------------------------------------
 #t hf aug-cc-pvdz symm=none int=(grid=ultrafine) guess=(read,tcheck) s
 table=(opt,rrhf)
 ----------------------------------------------------------------------
 -----
 title
 -----
 Symbolic Z-matrix:
 Charge =  0 Multiplicity = 1

 SCF Done:  E(RHF) =  -1190.24504015     A.U. after   15 cycles
 Normal termination of Gaussian 16 at Wed Apr  9 00:28:19 2025.
 Gaussian 16:  ES64L-G16RevC.01  3-Jul-2019

 ----------------------------------------------------------------------
 #t hf aug-cc-pvdz iop(5/13=1,5/36=2,99/5=2) pseudo=read geom=check gue
 ss=(read,tcheck) scf=(maxcycle=1)
 ----------------------------------------------------------------------
 -----
 title
 -----
 Structure from the checkpoint file:  "BDE49_nonexpt_2463_mol1.chk"
 Charge =  0 Multiplicity = 1

                         Standard orientation:
 ---------------------------------------------------------------------
 Center     Atomic      Atomic             Coordinates (Angstroms)
 Number     Number       Type             X           Y           Z
 ---------------------------------------------------------------------
      1         14           0        1.139236    2.110817    0.320296
      2         14           0       -1.139236    2.110817   -0.320296
      3          6           0       -1.956881    0.422112   -0.167308
      4          1           0       -1.284129    2.524571   -1.738354
      5          1           0       -1.861066    3.109147    0.511379
      6          6           0       -1.922388   -0.278541    1.048050
      7          6           0       -2.600588   -0.193378   -1.248134
      8          6           0       -3.190095   -1.451850   -1.132549
      9          6           0       -3.139393   -2.121369    0.086853
     10          6           0       -2.505718   -1.537877    1.181285
     11          1           0       -2.640424    0.325159   -2.200444
     12          1           0       -3.684535   -1.903540   -1.984600
     13          6           0        1.956881    0.422112    0.167308
     14          1           0        1.284129    2.524571    1.738354
     15          1           0        1.861066    3.109147   -0.511379
     16          6           0        1.922388   -0.278541   -1.048050
     17          6           0        2.600587   -0.193379    1.248134
     18          6           0        3.190095   -1.451850    1.132549
     19          6           0        3.139393   -2.121369   -0.086853
     20          6           0        2.505718   -1.537877   -1.181285
     21          1           0        2.640424    0.325159    2.200444
     22          1           0        3.684534   -1.903541    1.984600
     23          8           0       -1.289269    0.344665    2.092414
     24          8           0        1.289269    0.344666   -2.092414
     25          1           0       -3.592748   -3.100600    0.192871
     26          1           0        3.592748   -3.100600   -0.192871
     27          1           0       -2.465199   -2.058542    2.133936
     28          1           0        2.465199   -2.058542   -2.133936
     29          1           0       -1.263328   -0.239537    2.857118
     30          1           0        1.263328   -0.239537   -2.857118
 ---------------------------------------------------------------------

 SCF Done:  E(RHF) =  -1193.37846957     A.U. after    2 cycles

 The electronic state is 1-A.
 Alpha  occ. eigenvalues --  -76.19933 -76.19923 -21.10666 -21.10651 -11.52246
 Alpha  occ. eigenvalues --  -11.51945 -11.46305 -11.46133 -11.42957 -11.42654
 Alpha  occ. eigenvalues --  -11.40844 -11.40718 -11.40198 -11.39773 -11.36356
 Alpha  occ. eigenvalues --  -11.36288  -5.53470  -5.53462  -2.18734  -2.18485
 Alpha  occ. eigenvalues --   -2.16988  -2.16936  -2.15609  -2.14748  -1.76108
 Alpha  occ. eigenvalues --   -1.76096  -1.31571  -1.31408  -1.09555  -1.09517
 Alpha  occ. eigenvalues --   -1.06626  -1.06595  -0.88127  -0.87663  -0.85224
 Alpha  occ. eigenvalues --   -0.84741  -0.77362  -0.72571  -0.69808  -0.68511
 Alpha  occ. eigenvalues --   -0.64904  -0.63954  -0.62248  -0.62072  -0.56989
 Alpha  occ. eigenvalues --   -0.56989  -0.54799  -0.53928  -0.53901  -0.53092
 Alpha  occ. eigenvalues --   -0.47630  -0.47122  -0.46919  -0.44664  -0.44162
 Alpha  occ. eigenvalues --   -0.43878  -0.43252  -0.42465  -0.40792  -0.38237
 Alpha  occ. eigenvalues --   -0.35355  -0.33775  -0.31233  -0.27489  -0.27190
 Alpha virt. eigenvalues --    0.03290   0.04310   0.04360   0.04747   0.05232
 Alpha virt. eigenvalues --    0.05615   0.06087   0.06270   0.06678   0.07031
 Alpha virt. eigenvalues --    0.07193   0.07252   0.08202   0.08774   0.09540

 Mulliken charges:
               1
     1  Si   4.249582
     2  Si   4.249583
     3  C   -2.294181
     4  H   -1.731039
     5  H   -2.191882
     6  C    7.897793
     7  C   -1.382381
     8  C   -2.095788
     9  C   -0.828041
    10  C   -4.863443
    11  H    1.877672
    12  H    1.642087
    13  C   -2.294193
    14  H   -1.731038
    15  H   -2.191883
    16  C    7.897802
    17  C   -1.382365
    18  C   -2.095783
    19  C   -0.828050
    20  C   -4.863451
    21  H    1.877670
    22  H    1.642087
    23  O   -4.877870
    24  O   -4.877866
    25  H    1.536846
    26  H    1.536846
    27  H    1.819348
    28  H    1.819348
    29  H    1.241296
    30  H    1.241294
 Sum of Mulliken charges =   0.00000

 Dipole moment (field-independent basis, Debye):
    X=             -0.0000    Y=             -3.0250    Z=              0.0000  Tot=              3.0250

 Test job not archived.
 1\1\GINC-SE250\SP\RHF\Aug-CC-pVDZ\C12H14O2Si2\OHZDE\09-Apr-2025\0\\#t
 hf aug-cc-pvdz iop(5/13=1,5/36=2,99/5=2) pseudo=read geom=check guess=
 (read,tcheck) scf=(maxcycle=1)\\title\\0,1\Si,0,-1.139236,2.110817,-0.
 320296\Si,0,1.139236,2.110817,0.320296\C,0,1.956881,0.422112,0.167308\
 H,0,1.284129,2.524571,1.738354\H,0,1.861066,3.109147,-0.511379\C,0,1.9
 22388,-0.278541,-1.04805\C,0,2.600588,-0.193378,1.248134\C,0,3.190095,
 -1.45185,1.132549\C,0,3.139393,-2.121369,-0.086853\C,0,2.505718,-1.537
 877,-1.181285\H,0,2.640424,0.325159,2.200444\H,0,3.684535,-1.90354,1.9

 Normal termination of Gaussian 16 at Wed Apr  9 00:29:01 2025.
