 Gaussian 16, Revision C.01,

 ----------------------------------------------------------------------
 #t hf aug-cc-pvdz symm=none int=(grid=ultrafine) guess=(read,tcheck) s
 table=(opt,rrhf)
 ----------------------------------------------------------------------
 -----
 title
 -----
 Symbolic Z-matrix:
 Charge =  0 Multiplicity = 1

 SCF Done:  E(RHF) =  -344.958836239     A.U. after   13 cycles

 1\1\GINC-SE096\Stability\RHF\Aug-CC-pVDZ\C5H10O2\OHZDE\08-Apr-2025\0\\
 #t hf aug-cc-pvdz symm=none int=(grid=ultrafine) guess=(read,tcheck) s
 table=(opt,rrhf)\\title\\0,1\O,0,0.116376,-0.526033,0.228885\C,0,1.267
 013,0.082486,-0.134881\C,0,-1.135151,0.05492,-0.250954\O,0,1.322001,1.
 069757,-0.824802\C,0,2.457939,-0.643236,0.442865\C,0,-1.566292,1.17482
 2,0.687858\H,0,-1.697353,0.793894,1.704396\H,0,-2.516412,1.600901,0.35
 4067\H,0,-0.822052,1.972371,0.69985\H,0,2.439325,-1.693047,0.143177\H,
 0,2.413293,-0.614368,1.534134\H,0,3.373907,-0.168961,0.097072\C,0,-2.1

 Normal termination of Gaussian 16 at Tue Apr  8 22:44:18 2025.
 Gaussian 16:  ES64L-G16RevC.01  3-Jul-2019

 ----------------------------------------------------------------------
 #t hf aug-cc-pvdz iop(5/13=1,5/36=2,99/5=2) pseudo=read geom=check gue
 ss=(read,tcheck) scf=(maxcycle=1)
 ----------------------------------------------------------------------
 -----
 title
 -----
 Structure from the checkpoint file:  "BDE49_expt_1452_mol1.chk"
 Charge =  0 Multiplicity = 1

                         Standard orientation:
 ---------------------------------------------------------------------
 Center     Atomic      Atomic             Coordinates (Angstroms)
 Number     Number       Type             X           Y           Z
 ---------------------------------------------------------------------
      1          8           0        0.116376   -0.526033    0.228885
      2          6           0        1.267013    0.082486   -0.134881
      3          6           0       -1.135151    0.054920   -0.250954
      4          8           0        1.322001    1.069757   -0.824802
      5          6           0        2.457939   -0.643236    0.442865
      6          6           0       -1.566292    1.174822    0.687858
      7          1           0       -1.697353    0.793894    1.704396
      8          1           0       -2.516412    1.600901    0.354067
      9          1           0       -0.822052    1.972371    0.699850
     10          1           0        2.439325   -1.693047    0.143177
     11          1           0        2.413293   -0.614368    1.534134
     12          1           0        3.373907   -0.168961    0.097072
     13          6           0       -2.126887   -1.094985   -0.325768
     14          1           0       -0.941000    0.464312   -1.244251
     15          1           0       -2.285736   -1.533878    0.662721
     16          1           0       -1.762178   -1.876847   -0.995079
     17          1           0       -3.088534   -0.738208   -0.703467
 ---------------------------------------------------------------------

 SCF Done:  E(RHF) =  -346.547664049     A.U. after    2 cycles

 The electronic state is 1-A.
 Alpha  occ. eigenvalues --  -21.07755 -21.04245 -11.51941 -11.45190 -11.39588
 Alpha  occ. eigenvalues --  -11.39079 -11.36138  -1.83302  -1.65743  -1.19314
 Alpha  occ. eigenvalues --   -1.09301  -1.01531  -0.86226  -0.75129  -0.67120
 Alpha  occ. eigenvalues --   -0.62554  -0.61123  -0.59133  -0.57303  -0.55858
 Alpha  occ. eigenvalues --   -0.54367  -0.50342  -0.49579  -0.46631  -0.45328
 Alpha  occ. eigenvalues --   -0.39767  -0.31444  -0.29008
 Alpha virt. eigenvalues --    0.03557   0.05086   0.05234   0.05663   0.05875
 Alpha virt. eigenvalues --    0.06013   0.06663   0.07410   0.07492   0.08747
 Alpha virt. eigenvalues --    0.10709   0.12200   0.13070   0.14172   0.14574

 Mulliken charges:
               1
     1  O   -3.630713
     2  C    5.812531
     3  C   -0.203290
     4  O   -3.122598
     5  C   -4.624584
     6  C   -3.834739
     7  H    1.334369
     8  H    1.207816
     9  H    1.256328
    10  H    1.296124
    11  H    1.307158
    12  H    1.250163
    13  C   -3.733916
    14  H    1.914210
    15  H    1.270354
    16  H    1.314544
    17  H    1.186241
 Sum of Mulliken charges =   0.00000

 Dipole moment (field-independent basis, Debye):
    X=             -0.7546    Y=             -0.9891    Z=              0.5886  Tot=              1.3763

 Test job not archived.
 1\1\GINC-SE096\SP\RHF\Aug-CC-pVDZ\C5H10O2\OHZDE\08-Apr-2025\0\\#t hf a
 ug-cc-pvdz iop(5/13=1,5/36=2,99/5=2) pseudo=read geom=check guess=(rea
 d,tcheck) scf=(maxcycle=1)\\title\\0,1\O,0,0.116376,-0.526033,0.228885
 \C,0,1.267013,0.082486,-0.134881\C,0,-1.135151,0.05492,-0.250954\O,0,1
 .322001,1.069757,-0.824802\C,0,2.457939,-0.643236,0.442865\C,0,-1.5662
 92,1.174822,0.687858\H,0,-1.697353,0.793894,1.704396\H,0,-2.516412,1.6
 00901,0.354067\H,0,-0.822052,1.972371,0.69985\H,0,2.439325,-1.693047,0
 .143177\H,0,2.413293,-0.614368,1.534134\H,0,3.373907,-0.168961,0.09707

 Normal termination of Gaussian 16 at Tue Apr  8 22:44:24 2025.
