 Gaussian 16, Revision C.01,

 ----------------------------------------------------------------------
 #t hf aug-cc-pvdz symm=none int=(grid=ultrafine) guess=(read,tcheck) s
 table=(opt,rrhf)
 ----------------------------------------------------------------------
 -----
 title
 -----
 Symbolic Z-matrix:
 Charge =  0 Multiplicity = 1

 SCF Done:  E(RHF) =  -780.448071320     A.U. after   16 cycles
 Normal termination of Gaussian 16 at Tue Apr  8 23:20:09 2025.
 Gaussian 16:  ES64L-G16RevC.01  3-Jul-2019

 ----------------------------------------------------------------------
 #t hf aug-cc-pvdz iop(5/13=1,5/36=2,99/5=2) pseudo=read geom=check gue
 ss=(read,tcheck) scf=(maxcycle=1)
 ----------------------------------------------------------------------
 -----
 title
 -----
 Structure from the checkpoint file:  "BDE49_nonexpt_1085_mol1.chk"
 Charge =  0 Multiplicity = 1

                         Standard orientation:
 ---------------------------------------------------------------------
 Center     Atomic      Atomic             Coordinates (Angstroms)
 Number     Number       Type             X           Y           Z
 ---------------------------------------------------------------------
      1         17           0        2.588787   -0.162864    0.000000
      2          8           0        1.243775    0.931059    0.000000
      3          6           0        0.000000    0.350704    0.000000
      4          6           0       -1.058551    1.273501    0.000000
      5          7           0       -0.144480   -0.951965    0.000000
      6          6           0       -1.395577   -1.438878    0.000000
      7          6           0       -2.340048    0.752509    0.000000
      8          6           0       -2.523294   -0.634552    0.000000
      9          1           0       -0.859507    2.336398    0.000000
     10          1           0       -3.192638    1.421946    0.000000
     11          1           0       -3.512834   -1.072982    0.000000
     12          1           0       -1.478419   -2.521103    0.000000
 ---------------------------------------------------------------------

 SCF Done:  E(RHF) =  -782.144819634     A.U. after    2 cycles

 The electronic state is 1-A'.
 Alpha  occ. eigenvalues --  -99.94439 -21.13345 -15.74529 -11.52319 -11.48268
 Alpha  occ. eigenvalues --  -11.45303 -11.42121 -11.39116 -10.51112  -9.71041
 Alpha  occ. eigenvalues --   -9.70266  -9.69991  -1.82402  -1.44870  -1.26251
 Alpha  occ. eigenvalues --   -1.20614  -1.09670  -0.91427  -0.87909  -0.73809
 Alpha  occ. eigenvalues --   -0.67972  -0.65570  -0.62177  -0.61322  -0.58218
 Alpha  occ. eigenvalues --   -0.55518  -0.53568  -0.51060  -0.44876  -0.43815
 Alpha  occ. eigenvalues --   -0.38207  -0.38152  -0.30257
 Alpha virt. eigenvalues --    0.03093   0.03726   0.05145   0.05304   0.06470
 Alpha virt. eigenvalues --    0.08906   0.09345   0.10613   0.11311   0.11998
 Alpha virt. eigenvalues --    0.12193   0.12776   0.13763   0.13794   0.14205

 Mulliken charges:
               1
     1  Cl   0.521335
     2  O   -3.124270
     3  C    3.229676
     4  C   -2.713885
     5  N   -3.069209
     6  C   -0.853109
     7  C    0.792082
     8  C   -0.862890
     9  H    1.553524
    10  H    1.519796
    11  H    1.412485
    12  H    1.594466
 Sum of Mulliken charges =   0.00000

 Dipole moment (field-independent basis, Debye):
    X=             -3.4747    Y=              1.4690    Z=              0.0000  Tot=              3.7725

 Test job not archived.
 1\1\GINC-SE173\SP\RHF\Aug-CC-pVDZ\C5H4Cl1N1O1\OHZDE\08-Apr-2025\0\\#t
 hf aug-cc-pvdz iop(5/13=1,5/36=2,99/5=2) pseudo=read geom=check guess=
 (read,tcheck) scf=(maxcycle=1)\\title\\0,1\Cl,0,2.588787,-0.162864,0.\
 O,0,1.243775,0.931059,0.\C,0,0.,0.350704,0.\C,0,-1.058551,1.273501,0.\
 N,0,-0.14448,-0.951965,0.\C,0,-1.395577,-1.438878,0.\C,0,-2.340048,0.7
 52509,0.\C,0,-2.523294,-0.634552,0.\H,0,-0.859507,2.336398,0.\H,0,-3.1
 92638,1.421946,0.\H,0,-3.512834,-1.072982,0.\H,0,-1.478419,-2.521103,0
 .\\Version=ES64L-G16RevC.01\State=1-A'\HF=-782.1448196\RMSD=1.497e+00\

 Normal termination of Gaussian 16 at Tue Apr  8 23:20:15 2025.
