 Gaussian 16, Revision C.01,

 ----------------------------------------------------------------------
 #t hf aug-cc-pvdz symm=none int=(grid=ultrafine) guess=(read,tcheck) s
 table=opt
 ----------------------------------------------------------------------
 -----
 title
 -----
 Symbolic Z-matrix:
 Charge =  0 Multiplicity = 2

 SCF Done:  E(UHF) =  -887.358941325     A.U. after   25 cycles
 Normal termination of Gaussian 16 at Wed Apr  9 00:18:35 2025.
 Gaussian 16:  ES64L-G16RevC.01  3-Jul-2019

 ----------------------------------------------------------------------
 #t hf aug-cc-pvdz iop(5/13=1,5/36=2,99/5=2) pseudo=read geom=check gue
 ss=(read,tcheck) scf=(maxcycle=1)
 ----------------------------------------------------------------------
 -----
 title
 -----
 Structure from the checkpoint file:  "BDE49_nonexpt_2563_mol2.chk"
 Charge =  0 Multiplicity = 2

                         Standard orientation:
 ---------------------------------------------------------------------
 Center     Atomic      Atomic             Coordinates (Angstroms)
 Number     Number       Type             X           Y           Z
 ---------------------------------------------------------------------
      1         16           0        1.536459   -0.504812    0.000000
      2          6           0       -1.403230   -0.093111    0.000000
      3          7           0       -2.419347   -0.648972    0.000001
      4         16           0        0.048216    0.823654   -0.000001
 ---------------------------------------------------------------------

 SCF Done:  E(UHF) =  -888.162786599     A.U. after    2 cycles

 The electronic state is 2-A.
 Alpha  occ. eigenvalues --  -75.79909 -75.76728 -15.79725 -13.24875 -13.16467
 Alpha  occ. eigenvalues --  -13.12066 -13.12020 -13.08925 -13.08251 -11.45489
 Alpha  occ. eigenvalues --   -8.14028  -8.10454  -1.36363  -1.27375  -1.05394
 Alpha  occ. eigenvalues --   -0.68604  -0.53713  -0.52341  -0.52082  -0.41830
 Alpha  occ. eigenvalues --   -0.39335  -0.30710  -0.25173
 Alpha virt. eigenvalues --    0.02835   0.03038   0.07845   0.10653   0.11708
 Alpha virt. eigenvalues --    0.12173   0.12434   0.13130   0.14505   0.15470
 Alpha virt. eigenvalues --    0.16206   0.18274   0.19038   0.20660   0.21888

  Beta  occ. eigenvalues --  -75.79718 -75.75805 -15.79167 -13.24710 -13.16473
  Beta  occ. eigenvalues --  -13.11612 -13.10716 -13.07706 -13.03517 -11.45928
  Beta  occ. eigenvalues --   -8.13809  -8.09421  -1.35403  -1.24817  -0.98555
  Beta  occ. eigenvalues --   -0.68276  -0.53137  -0.51936  -0.51402  -0.37941
  Beta  occ. eigenvalues --   -0.34398  -0.29396
  Beta virt. eigenvalues --    0.02548   0.02911   0.03457   0.07882   0.11375
  Beta virt. eigenvalues --    0.11920   0.12284   0.13122   0.13330   0.14557
  Beta virt. eigenvalues --    0.16110   0.16529   0.19173   0.20201   0.20910

 Mulliken charges and spin densities:
               1          2
     1  S    0.227952   0.898550
     2  C    1.085508  -0.189235
     3  N   -1.973119   0.176512
     4  S    0.659660   0.114173
 Sum of Mulliken charges =  -0.00000   1.00000

 Dipole moment (field-independent basis, Debye):
    X=              3.9090    Y=              1.6573    Z=             -0.0000  Tot=              4.2458
                          Isotropic Fermi Contact Couplings
        Atom                 a.u.       MegaHertz       Gauss      10(-4) cm-1
     1  S(33)              0.27972      96.07653      34.28249      32.04768
     2  C(13)             -0.02618     -29.42823     -10.50072      -9.81620
     3  N(14)              0.03248      10.49551       3.74506       3.50093
     4  S(33)              0.11452      39.33314      14.03504      13.12012
 --------------------------------------------------------
       Center         ----  Spin Dipole Couplings  ----
                      3XX-RR        3YY-RR        3ZZ-RR
 --------------------------------------------------------

 Normal termination of Gaussian 16 at Wed Apr  9 00:18:37 2025.
