 Gaussian 16, Revision C.01,

 ----------------------------------------------------------------------
 #t hf aug-cc-pvdz symm=none int=(grid=ultrafine) guess=(read,tcheck) s
 table=opt
 ----------------------------------------------------------------------
 -----
 title
 -----
 Symbolic Z-matrix:
 Charge =  0 Multiplicity = 2

 SCF Done:  E(UHF) =  -539.671033641     A.U. after   13 cycles
 Normal termination of Gaussian 16 at Tue Apr  8 23:00:36 2025.
 Gaussian 16:  ES64L-G16RevC.01  3-Jul-2019

 ----------------------------------------------------------------------
 #t hf aug-cc-pvdz iop(5/13=1,5/36=2,99/5=2) pseudo=read geom=check gue
 ss=(read,tcheck) scf=(maxcycle=1)
 ----------------------------------------------------------------------
 -----
 title
 -----
 Structure from the checkpoint file:  "BDE49_expt_1948_mol2.chk"
 Charge =  0 Multiplicity = 2

                         Standard orientation:
 ---------------------------------------------------------------------
 Center     Atomic      Atomic             Coordinates (Angstroms)
 Number     Number       Type             X           Y           Z
 ---------------------------------------------------------------------
      1         15           0        0.000000   -0.000000    0.568498
      2          9           0        0.000000    1.227070   -0.473748
      3          9           0       -0.000000   -1.227070   -0.473748
 ---------------------------------------------------------------------

 SCF Done:  E(UHF) =  -540.508646385     A.U. after    2 cycles

 The electronic state is 2-B1.
 Alpha  occ. eigenvalues -- -105.30258 -29.30660 -29.30653  -2.90315  -1.64611
 Alpha  occ. eigenvalues --   -1.58414  -1.56827  -0.89500  -0.57256  -0.45172
 Alpha  occ. eigenvalues --   -0.40712  -0.36845  -0.36180  -0.29990  -0.20627
 Alpha  occ. eigenvalues --   -0.06778   0.02152
 Alpha virt. eigenvalues --    0.09701   0.09826   0.14333   0.17504   0.20911
 Alpha virt. eigenvalues --    0.21265   0.25869   0.27786   0.28830   0.30273
 Alpha virt. eigenvalues --    0.32157   0.32858   0.32872   0.34387   0.42741

  Beta  occ. eigenvalues -- -105.29611 -29.30278 -29.30270  -2.88348  -1.62981
  Beta  occ. eigenvalues --   -1.58323  -1.31930  -0.86507  -0.56853  -0.43705
  Beta  occ. eigenvalues --   -0.40339  -0.35071  -0.34440  -0.29891  -0.20376
  Beta  occ. eigenvalues --   -0.03126
  Beta virt. eigenvalues --    0.07427   0.09929   0.11667   0.14549   0.21258
  Beta virt. eigenvalues --    0.22430   0.25905   0.26133   0.28125   0.29437
  Beta virt. eigenvalues --    0.31794   0.32902   0.34414   0.35502   0.37914

 Mulliken charges and spin densities:
               1          2
     1  P    0.498515   1.094328
     2  F   -0.249258  -0.047164
     3  F   -0.249258  -0.047164
 Sum of Mulliken charges =  -0.00000   1.00000

 Dipole moment (field-independent basis, Debye):
    X=              0.0000    Y=              0.0000    Z=             -5.1989  Tot=              5.1989
                          Isotropic Fermi Contact Couplings
        Atom                 a.u.       MegaHertz       Gauss      10(-4) cm-1
     1  P(31)              0.33287     602.86433     215.11698     201.09389
     2  F(19)              0.06099     256.61123      91.56527      85.59629
     3  F(19)              0.06099     256.61123      91.56527      85.59629
 --------------------------------------------------------
       Center         ----  Spin Dipole Couplings  ----
                      3XX-RR        3YY-RR        3ZZ-RR
 --------------------------------------------------------
     1   Atom       -1.022343      0.399115      0.623228

 Normal termination of Gaussian 16 at Tue Apr  8 23:00:37 2025.
