 Gaussian 16, Revision C.01,

 ----------------------------------------------------------------------
 #t hf aug-cc-pvdz symm=none int=(grid=ultrafine) guess=(read,tcheck) s
 table=opt
 ----------------------------------------------------------------------
 -----
 title
 -----
 Symbolic Z-matrix:
 Charge =  0 Multiplicity = 2

 SCF Done:  E(UHF) =  -213.313644240     A.U. after   16 cycles
 Normal termination of Gaussian 16 at Tue Apr  8 23:19:49 2025.
 Gaussian 16:  ES64L-G16RevC.01  3-Jul-2019

 ----------------------------------------------------------------------
 #t hf aug-cc-pvdz iop(5/13=1,5/36=2,99/5=2) pseudo=read geom=check gue
 ss=(read,tcheck) scf=(maxcycle=1)
 ----------------------------------------------------------------------
 -----
 title
 -----
 Structure from the checkpoint file:  "BDE49_nonexpt_1108_mol2.chk"
 Charge =  0 Multiplicity = 2

                         Standard orientation:
 ---------------------------------------------------------------------
 Center     Atomic      Atomic             Coordinates (Angstroms)
 Number     Number       Type             X           Y           Z
 ---------------------------------------------------------------------
      1          8           0       -1.164025   -0.318338   -0.000002
      2          6           0       -0.092614    0.433650    0.000000
      3          9           0        1.119107   -0.248318    0.000001
      4          1           0       -0.102041    1.089832    0.894936
      5          1           0       -0.102034    1.089837   -0.894931
 ---------------------------------------------------------------------

 SCF Done:  E(UHF) =  -214.092800537     A.U. after    2 cycles

 The electronic state is 2-A.
 Alpha  occ. eigenvalues --  -29.26582 -21.15528 -11.48501  -1.78830  -1.08459
 Alpha  occ. eigenvalues --   -0.73669  -0.72804  -0.59741  -0.44779  -0.42248
 Alpha  occ. eigenvalues --   -0.34496  -0.27199  -0.26732
 Alpha virt. eigenvalues --    0.03908   0.05505   0.09848   0.11758   0.14750
 Alpha virt. eigenvalues --    0.16847   0.19686   0.22872   0.22923   0.24228
 Alpha virt. eigenvalues --    0.28770   0.30697   0.32686   0.33959   0.35179

  Beta  occ. eigenvalues --  -29.26637 -21.11795 -11.48852  -1.67847  -1.05982
  Beta  occ. eigenvalues --   -0.72880  -0.67996  -0.57343  -0.41004  -0.32426
  Beta  occ. eigenvalues --   -0.26666  -0.26419
  Beta virt. eigenvalues --    0.03925   0.05482   0.09344   0.09916   0.11778
  Beta virt. eigenvalues --    0.15330   0.16925   0.19844   0.23094   0.24302
  Beta virt. eigenvalues --    0.26407   0.30918   0.32464   0.33406   0.34500

 Mulliken charges and spin densities:
               1          2
     1  O   -1.646599   1.084003
     2  C   -1.284431  -0.215395
     3  F    0.402760  -0.012658
     4  H    1.264135   0.072025
     5  H    1.264135   0.072025
 Sum of Mulliken charges =  -0.00000   1.00000

 Dipole moment (field-independent basis, Debye):
    X=              1.6451    Y=              0.1736    Z=              0.0000  Tot=              1.6542
                          Isotropic Fermi Contact Couplings
        Atom                 a.u.       MegaHertz       Gauss      10(-4) cm-1
     1  O(17)              0.18785    -113.87281     -40.63265     -37.98388
     2  C(13)             -0.03373     -37.92002     -13.53081     -12.64876
     3  F(19)             -0.00815     -34.30952     -12.24249     -11.44442
     4  H(1)               0.02765     123.61291      44.10816      41.23283
     5  H(1)               0.02765     123.61146      44.10764      41.23235
 --------------------------------------------------------
       Center         ----  Spin Dipole Couplings  ----
                      3XX-RR        3YY-RR        3ZZ-RR

 Normal termination of Gaussian 16 at Tue Apr  8 23:19:50 2025.
