 Gaussian 16, Revision C.01,

 ----------------------------------------------------------------------
 #t hf aug-cc-pvdz symm=none int=(grid=ultrafine) guess=(read,tcheck) s
 table=(opt,rrhf)
 ----------------------------------------------------------------------
 -----
 title
 -----
 Symbolic Z-matrix:
 Charge =  0 Multiplicity = 1

 SCF Done:  E(RHF) =  -684.197628340     A.U. after   19 cycles
 Normal termination of Gaussian 16 at Tue Apr  8 23:09:07 2025.
 Gaussian 16:  ES64L-G16RevC.01  3-Jul-2019

 ----------------------------------------------------------------------
 #t hf aug-cc-pvdz iop(5/13=1,5/36=2,99/5=2) pseudo=read geom=check gue
 ss=(read,tcheck) scf=(maxcycle=1)
 ----------------------------------------------------------------------
 -----
 title
 -----
 Structure from the checkpoint file:  "BDE49_expt_1767_mol1.chk"
 Charge =  0 Multiplicity = 1

                         Standard orientation:
 ---------------------------------------------------------------------
 Center     Atomic      Atomic             Coordinates (Angstroms)
 Number     Number       Type             X           Y           Z
 ---------------------------------------------------------------------
      1          6           0        3.644517   -0.808882   -0.203717
      2          6           0        3.018746   -2.055245   -0.097149
      3          6           0        1.638526   -2.153042    0.062055
      4          6           0        2.912446    0.377647   -0.153223
      5          6           0        1.534505    0.265880    0.008506
      6          6           0        0.881202   -0.982155    0.115181
      7          1           0        4.719985   -0.758415   -0.327200
      8          1           0        3.617780   -2.957823   -0.139020
      9          1           0        1.164809   -3.124508    0.144377
     10          1           0        3.389829    1.340676   -0.234074
     11          6           0       -0.546270   -0.738956    0.268532
     12          6           0       -0.740644    0.607351    0.255766
     13          7           0        0.521058    1.242670    0.096146
     14          7           0        0.613202    2.597746    0.034603
     15          8           0        1.736033    3.032079   -0.102102
     16          6           0       -1.596267   -1.800105    0.445185
     17          6           0       -2.845054   -1.651307   -0.441809
     18          1           0       -1.910593   -1.833374    1.497706
     19          1           0       -1.142824   -2.774286    0.242289
     20          6           0       -3.745182   -0.447951   -0.124204
     21          1           0       -3.442347   -2.563038   -0.332148
     22          1           0       -2.535104   -1.608294   -1.492477
     23          6           0       -3.169594    0.934278   -0.465555
     24          1           0       -4.018889   -0.472274    0.939372
     25          1           0       -4.682315   -0.570042   -0.678083
     26          6           0       -1.998737    1.407073    0.414074
     27          1           0       -3.971128    1.673865   -0.366448
     28          1           0       -2.859216    0.953027   -1.516549
     29          1           0       -1.778551    2.451329    0.194117
     30          1           0       -2.308672    1.376098    1.467860
 ---------------------------------------------------------------------

 SCF Done:  E(RHF) =  -687.435853589     A.U. after    2 cycles

 The electronic state is 1-A.
 Alpha  occ. eigenvalues --  -21.10194 -15.89780 -15.80505 -11.53632 -11.50908
 Alpha  occ. eigenvalues --  -11.47203 -11.46796 -11.46282 -11.44992 -11.43761
 Alpha  occ. eigenvalues --  -11.42857 -11.41980 -11.40741 -11.40559 -11.38097
 Alpha  occ. eigenvalues --  -11.35919  -1.87732  -1.54875  -1.32464  -1.28777
 Alpha  occ. eigenvalues --   -1.19203  -1.15435  -1.11255  -1.07771  -0.99836
 Alpha  occ. eigenvalues --   -0.95466  -0.92162  -0.86292  -0.82047  -0.80433
 Alpha  occ. eigenvalues --   -0.76829  -0.70121  -0.68254  -0.65838  -0.64580
 Alpha  occ. eigenvalues --   -0.64132  -0.61891  -0.60876  -0.59476  -0.58152
 Alpha  occ. eigenvalues --   -0.56992  -0.55731  -0.52751  -0.52007  -0.49914
 Alpha  occ. eigenvalues --   -0.49186  -0.47560  -0.46850  -0.45669  -0.44040
 Alpha  occ. eigenvalues --   -0.43484  -0.42195  -0.41094  -0.36770  -0.30155
 Alpha  occ. eigenvalues --   -0.28993  -0.26906
 Alpha virt. eigenvalues --    0.03511   0.04558   0.04660   0.05131   0.05236
 Alpha virt. eigenvalues --    0.05572   0.05766   0.05989   0.06400   0.07507
 Alpha virt. eigenvalues --    0.07553   0.07985   0.08602   0.09360   0.09975

 Mulliken charges:
               1
     1  C   -2.433686
     2  C   -3.306814
     3  C    1.790481
     4  C   -5.154649
     5  C    3.856377
     6  C    2.053675
     7  H    1.469700
     8  H    1.557144
     9  H    1.709725
    10  H    1.851381
    11  C    2.116600
    12  C    4.214401
    13  N   -5.037179
    14  N    1.232268
    15  O   -2.347508
    16  C   -4.187571
    17  C   -3.003227
    18  H    1.014283
    19  H    1.495992
    20  C   -3.280790
    21  H    1.381854
    22  H    1.536300
    23  C   -3.378249
    24  H    1.484605
    25  H    1.323711
    26  C   -2.946511
    27  H    1.293518
    28  H    1.474235
    29  H    1.266318
    30  H    0.953614
 Sum of Mulliken charges =   0.00000

 Dipole moment (field-independent basis, Debye):
    X=             -1.1178    Y=             -1.1871    Z=              0.0748  Tot=              1.6323

 Test job not archived.
 1\1\GINC-SE229\SP\RHF\Aug-CC-pVDZ\C13H14N2O1\OHZDE\08-Apr-2025\0\\#t h
 f aug-cc-pvdz iop(5/13=1,5/36=2,99/5=2) pseudo=read geom=check guess=(
 read,tcheck) scf=(maxcycle=1)\\title\\0,1\C,0,3.644517,-0.808882,-0.20
 3717\C,0,3.018746,-2.055245,-0.097149\C,0,1.638526,-2.153042,0.062055\
 C,0,2.912446,0.377647,-0.153223\C,0,1.534505,0.26588,0.008506\C,0,0.88
 1202,-0.982155,0.115181\H,0,4.719985,-0.758415,-0.3272\H,0,3.61778,-2.
 957823,-0.13902\H,0,1.164809,-3.124508,0.144377\H,0,3.389829,1.340676,
 -0.234074\C,0,-0.54627,-0.738956,0.268532\C,0,-0.740644,0.607351,0.255

 Normal termination of Gaussian 16 at Tue Apr  8 23:09:49 2025.
