 Gaussian 16, Revision C.01,

 ----------------------------------------------------------------------
 #t hf aug-cc-pvdz symm=none int=(grid=ultrafine) guess=(read,tcheck) s
 table=opt
 ----------------------------------------------------------------------
 -----
 title
 -----
 Symbolic Z-matrix:
 Charge =  0 Multiplicity = 2

 SCF Done:  E(UHF) =  -423.798020816     A.U. after   15 cycles
 Normal termination of Gaussian 16 at Wed Apr  9 00:06:37 2025.
 Gaussian 16:  ES64L-G16RevC.01  3-Jul-2019

 ----------------------------------------------------------------------
 #t hf aug-cc-pvdz iop(5/13=1,5/36=2,99/5=2) pseudo=read geom=check gue
 ss=(read,tcheck) scf=(maxcycle=1)
 ----------------------------------------------------------------------
 -----
 title
 -----
 Structure from the checkpoint file:  "BDE49_nonexpt_2228_mol2.chk"
 Charge =  0 Multiplicity = 2

                         Standard orientation:
 ---------------------------------------------------------------------
 Center     Atomic      Atomic             Coordinates (Angstroms)
 Number     Number       Type             X           Y           Z
 ---------------------------------------------------------------------
      1          7           0        0.000001    1.628002    0.245490
      2          6           0       -1.559075   -0.838959    0.187280
      3          6           0        1.559074   -0.838960    0.187279
      4         14           0       -0.000000    0.027370   -0.441954
      5          1           0       -1.554364   -0.885723    1.282333
      6          1           0       -1.617202   -1.858984   -0.201966
      7          1           0       -2.465127   -0.313846   -0.127926
      8          1           0       -0.827860    2.202713    0.158339
      9          1           0        0.827861    2.202711    0.158341
     10          1           0        1.554363   -0.885723    1.282333
     11          1           0        2.465126   -0.313848   -0.127927
     12          1           0        1.617200   -1.858986   -0.201966
 ---------------------------------------------------------------------

 SCF Done:  E(UHF) =  -424.622453353     A.U. after    2 cycles

 The electronic state is 2-A.
 Alpha  occ. eigenvalues --  -76.20584 -15.72567 -11.34214 -11.34051  -5.54530
 Alpha  occ. eigenvalues --   -2.19045  -2.17767  -2.15623  -1.25138  -1.04615
 Alpha  occ. eigenvalues --   -1.00598  -0.67750  -0.64077  -0.56440  -0.56134
 Alpha  occ. eigenvalues --   -0.54299  -0.53758  -0.45844  -0.41314  -0.39621
 Alpha  occ. eigenvalues --   -0.23702
 Alpha virt. eigenvalues --    0.03673   0.05079   0.05268   0.06199   0.06929
 Alpha virt. eigenvalues --    0.07075   0.07300   0.07422   0.08630   0.09223
 Alpha virt. eigenvalues --    0.09271   0.13448   0.15366   0.16527   0.16577

  Beta  occ. eigenvalues --  -76.20117 -15.72151 -11.34046 -11.33883  -5.53781
  Beta  occ. eigenvalues --   -2.18558  -2.17302  -2.12532  -1.24001  -1.03736
  Beta  occ. eigenvalues --   -1.00137  -0.64915  -0.63899  -0.55924  -0.55393
  Beta  occ. eigenvalues --   -0.53844  -0.53625  -0.44432  -0.38357  -0.37996
  Beta virt. eigenvalues --    0.02439   0.05221   0.05313   0.06306   0.06946
  Beta virt. eigenvalues --    0.06979   0.07192   0.07460   0.08651   0.08703
  Beta virt. eigenvalues --    0.09535   0.09977   0.14720   0.15962   0.17215

 Mulliken charges and spin densities:
               1          2
     1  N   -2.526954   0.080554
     2  C   -5.226287   0.001855
     3  C   -5.226287   0.001855
     4  Si   3.957677   1.009060
     5  H    1.214408  -0.002283
     6  H    1.303728  -0.022869
     7  H    1.299228  -0.015983
     8  H    0.693562  -0.005528
     9  H    0.693563  -0.005528
    10  H    1.214407  -0.002283
    11  H    1.299229  -0.015982
    12  H    1.303728  -0.022868
 Sum of Mulliken charges =  -0.00000   1.00000

 Dipole moment (field-independent basis, Debye):
    X=              0.0000    Y=              0.7382    Z=              0.0134  Tot=              0.7383
                          Isotropic Fermi Contact Couplings
        Atom                 a.u.       MegaHertz       Gauss      10(-4) cm-1
     1  N(14)              0.03676      11.87591       4.23762       3.96138
     2  C(13)              0.04230      47.55204      16.96775      15.86165
     3  C(13)              0.04230      47.55197      16.96773      15.86163
     4  Si(29)             0.42818    -380.53200    -135.78328    -126.93181
     5  H(1)               0.00504      22.52751       8.03838       7.51437
     6  H(1)              -0.00061      -2.71645      -0.96930      -0.90611
     7  H(1)              -0.00045      -1.99705      -0.71260      -0.66615
     8  H(1)              -0.00184      -8.20507      -2.92777      -2.73692

 Normal termination of Gaussian 16 at Wed Apr  9 00:06:40 2025.
