 Gaussian 16, Revision C.01,

 ----------------------------------------------------------------------
 #t hf aug-cc-pvdz symm=none int=(grid=ultrafine) guess=(read,tcheck) s
 table=(opt,rrhf)
 ----------------------------------------------------------------------
 -----
 title
 -----
 Symbolic Z-matrix:
 Charge =  0 Multiplicity = 1

 SCF Done:  E(RHF) =  -729.289557062     A.U. after   13 cycles
 Normal termination of Gaussian 16 at Wed Apr  9 00:37:27 2025.
 Gaussian 16:  ES64L-G16RevC.01  3-Jul-2019

 ----------------------------------------------------------------------
 #t hf aug-cc-pvdz iop(5/13=1,5/36=2,99/5=2) pseudo=read geom=check gue
 ss=(read,tcheck) scf=(maxcycle=1)
 ----------------------------------------------------------------------
 -----
 title
 -----
 Structure from the checkpoint file:  "BDE49_nonexpt_555_mol1.chk"
 Charge =  0 Multiplicity = 1

                         Standard orientation:
 ---------------------------------------------------------------------
 Center     Atomic      Atomic             Coordinates (Angstroms)
 Number     Number       Type             X           Y           Z
 ---------------------------------------------------------------------
      1          7           0        0.253088    0.418903   -0.000003
      2          5           0       -1.031038   -0.213821   -0.000006
      3          8           0       -2.123117    0.616941   -0.000007
      4          6           0        0.534977    1.840230    0.000004
      5          1           0        1.095533    2.139734    0.891284
      6          1           0       -0.429743    2.348638   -0.000004
      7         17           0        1.671835   -0.585645    0.000007
      8          1           0        1.095551    2.139739   -0.891263
      9          1           0       -2.940414    0.110953   -0.000010
     10          8           0       -1.211814   -1.569459   -0.000005
     11          1           0       -0.388968   -2.067542   -0.000003
 ---------------------------------------------------------------------

 SCF Done:  E(RHF) =  -730.700515115     A.U. after    2 cycles

 The electronic state is 1-A.
 Alpha  occ. eigenvalues --  -99.91896 -21.05838 -21.05612 -15.74216 -11.40385
 Alpha  occ. eigenvalues --  -10.49045  -9.69016  -9.68284  -9.67860  -7.65577
 Alpha  occ. eigenvalues --   -1.83032  -1.66298  -1.46481  -1.21776  -0.99560
 Alpha  occ. eigenvalues --   -0.77060  -0.69721  -0.64974  -0.64676  -0.59434
 Alpha  occ. eigenvalues --   -0.55930  -0.54641  -0.50831  -0.49415  -0.43933
 Alpha  occ. eigenvalues --   -0.40218  -0.36832  -0.34917
 Alpha virt. eigenvalues --    0.03334   0.04248   0.04527   0.05168   0.06042
 Alpha virt. eigenvalues --    0.07890   0.08182   0.08226   0.09761   0.10093
 Alpha virt. eigenvalues --    0.12097   0.14058   0.15597   0.15690   0.16876

 Mulliken charges:
               1
     1  N   -2.172014
     2  B    6.975230
     3  O   -4.092752
     4  C   -3.366641
     5  H    1.255695
     6  H    1.403133
     7  Cl   0.536653
     8  H    1.255694
     9  H    0.885272
    10  O   -3.815248
    11  H    1.134978
 Sum of Mulliken charges =  -0.00000

 Dipole moment (field-independent basis, Debye):
    X=             -0.9577    Y=              0.9225    Z=             -0.0000  Tot=              1.3298

 Test job not archived.
 1\1\GINC-SE322\SP\RHF\Aug-CC-pVDZ\C1H5B1Cl1N1O2\OHZDE\09-Apr-2025\0\\#
 t hf aug-cc-pvdz iop(5/13=1,5/36=2,99/5=2) pseudo=read geom=check gues
 s=(read,tcheck) scf=(maxcycle=1)\\title\\0,1\N,0,0.253088,0.418903,-0.
 000003\B,0,-1.031038,-0.213821,-0.000006\O,0,-2.123117,0.616941,-0.000
 007\C,0,0.534977,1.84023,0.000004\H,0,1.095533,2.139734,0.891284\H,0,-
 0.429743,2.348638,-0.000004\Cl,0,1.671835,-0.585645,0.000007\H,0,1.095
 551,2.139739,-0.891263\H,0,-2.940414,0.110953,-0.00001\O,0,-1.211814,-
 1.569459,-0.000005\H,0,-0.388968,-2.067542,-0.000003\\Version=ES64L-G1

 Normal termination of Gaussian 16 at Wed Apr  9 00:37:31 2025.
