 Gaussian 16, Revision C.01,

 ----------------------------------------------------------------------
 #t hf aug-cc-pvdz symm=none int=(grid=ultrafine) guess=(read,tcheck) s
 table=(opt,rrhf)
 ----------------------------------------------------------------------
 -----
 title
 -----
 Symbolic Z-matrix:
 Charge =  0 Multiplicity = 1

 SCF Done:  E(RHF) =  -1377.01600161     A.U. after   14 cycles
 Normal termination of Gaussian 16 at Tue Apr  8 23:47:19 2025.
 Gaussian 16:  ES64L-G16RevC.01  3-Jul-2019

 ----------------------------------------------------------------------
 #t hf aug-cc-pvdz iop(5/13=1,5/36=2,99/5=2) pseudo=read geom=check gue
 ss=(read,tcheck) scf=(maxcycle=1)
 ----------------------------------------------------------------------
 -----
 title
 -----
 Structure from the checkpoint file:  "BDE49_nonexpt_1782_mol1.chk"
 Charge =  0 Multiplicity = 1

                         Standard orientation:
 ---------------------------------------------------------------------
 Center     Atomic      Atomic             Coordinates (Angstroms)
 Number     Number       Type             X           Y           Z
 ---------------------------------------------------------------------
      1         14           0       -0.282370   -0.098086    0.545600
      2          6           0        1.564520   -0.005677    0.061786
      3         17           0       -1.151129   -1.688021   -0.438266
      4         17           0       -1.296211    1.649383    0.036875
      5          7           0        2.003122    0.936697   -0.806941
      6          1           0        1.382658    1.629162   -1.194075
      7          1           0        2.983590    0.961003   -1.052076
      8          8           0        2.274076   -0.846686    0.589973
      9          1           0       -0.409883   -0.309460    1.989486
 ---------------------------------------------------------------------

 SCF Done:  E(RHF) =  -1378.37310071     A.U. after    2 cycles

 The electronic state is 1-A.
 Alpha  occ. eigenvalues --  -99.91114 -99.90550 -76.32048 -21.05421 -15.80378
 Alpha  occ. eigenvalues --  -11.48904 -10.48523 -10.47992  -9.68400  -9.67875
 Alpha  occ. eigenvalues --   -9.67803  -9.67738  -9.67209  -9.67189  -5.65670
 Alpha  occ. eigenvalues --   -2.28618  -2.27876  -2.27242  -1.72093  -1.36506
 Alpha  occ. eigenvalues --   -1.32522  -1.30010  -0.89315  -0.79003  -0.72834
 Alpha  occ. eigenvalues --   -0.62793  -0.60825  -0.59576  -0.57089  -0.56112
 Alpha  occ. eigenvalues --   -0.54229  -0.52800  -0.51812  -0.48632  -0.34560
 Alpha  occ. eigenvalues --   -0.29858
 Alpha virt. eigenvalues --    0.03359   0.05161   0.05404   0.05652   0.07207
 Alpha virt. eigenvalues --    0.07517   0.08301   0.09885   0.11269   0.12375
 Alpha virt. eigenvalues --    0.12472   0.12939   0.13903   0.15303   0.15875

 Mulliken charges:
               1
     1  Si   4.463318
     2  C    2.943833
     3  Cl  -0.831138
     4  Cl  -0.813918
     5  N   -2.769789
     6  H    0.816094
     7  H    0.731041
     8  O   -2.584908
     9  H   -1.954533
 Sum of Mulliken charges =   0.00000

 Dipole moment (field-independent basis, Debye):
    X=              1.4798    Y=              1.5310    Z=             -0.6606  Tot=              2.2294

 Test job not archived.
 1\1\GINC-SE362\SP\RHF\Aug-CC-pVDZ\C1H3Cl2N1O1Si1\OHZDE\08-Apr-2025\0\\
 #t hf aug-cc-pvdz iop(5/13=1,5/36=2,99/5=2) pseudo=read geom=check gue
 ss=(read,tcheck) scf=(maxcycle=1)\\title\\0,1\Si,0,-0.28237,-0.098086,
 0.5456\C,0,1.56452,-0.005676,0.061786\Cl,0,-1.151128,-1.688021,-0.4382
 66\Cl,0,-1.296211,1.649383,0.036875\N,0,2.003122,0.936698,-0.806941\H,
 0,1.382658,1.629163,-1.194075\H,0,2.98359,0.961004,-1.052076\O,0,2.274
 077,-0.846685,0.589973\H,0,-0.409883,-0.30946,1.989486\\Version=ES64L-
 G16RevC.01\State=1-A\HF=-1378.3731007\RMSD=5.793e-02\Dipole=0.5821983,

 Normal termination of Gaussian 16 at Tue Apr  8 23:47:23 2025.
