 Gaussian 16, Revision C.01,

 ----------------------------------------------------------------------
 #t hf aug-cc-pvdz symm=none int=(grid=ultrafine) guess=(read,tcheck) s
 table=(opt,rrhf)
 ----------------------------------------------------------------------
 -----
 title
 -----
 Symbolic Z-matrix:
 Charge =  0 Multiplicity = 1

 SCF Done:  E(RHF) =  -628.103267297     A.U. after   16 cycles
 Normal termination of Gaussian 16 at Tue Apr  8 23:15:21 2025.
 Gaussian 16:  ES64L-G16RevC.01  3-Jul-2019

 ----------------------------------------------------------------------
 #t hf aug-cc-pvdz iop(5/13=1,5/36=2,99/5=2) pseudo=read geom=check gue
 ss=(read,tcheck) scf=(maxcycle=1)
 ----------------------------------------------------------------------
 -----
 title
 -----
 Structure from the checkpoint file:  "BDE49_expt_432_mol1.chk"
 Charge =  0 Multiplicity = 1

                         Standard orientation:
 ---------------------------------------------------------------------
 Center     Atomic      Atomic             Coordinates (Angstroms)
 Number     Number       Type             X           Y           Z
 ---------------------------------------------------------------------
      1          6           0       -0.480431   -0.671205   -0.076184
      2          8           0       -0.223101   -1.855519   -0.210544
      3          7           0        0.474221    0.311606    0.065998
      4          6           0       -1.903242   -0.178967   -0.035576
      5          6           0        1.879634    0.194611    0.047023
      6          6           0       -2.287595    1.118402   -0.394745
      7          6           0       -3.628273    1.492946   -0.353468
      8          6           0       -4.596946    0.576128    0.048008
      9          6           0       -4.222681   -0.722248    0.393050
     10          6           0       -2.886048   -1.099935    0.342293
     11          6           0        2.622248    1.360547    0.284717
     12          6           0        2.552010   -1.008632   -0.204634
     13          6           0        3.944671   -1.022839   -0.214328
     14          6           0        4.682911    0.133725    0.022177
     15          6           0        4.010630    1.328474    0.272925
     16          1           0        2.105525    2.295993    0.478874
     17          1           0        4.566543    2.240292    0.459929
     18          1           0        1.982648   -1.907527   -0.380068
     19          1           0        4.455261   -1.959345   -0.409504
     20          1           0        5.766121    0.106211    0.012276
     21          1           0       -4.974804   -1.441198    0.697293
     22          1           0       -2.577372   -2.108323    0.587580
     23          1           0       -1.554135    1.835032   -0.748669
     24          1           0       -3.916063    2.496603   -0.644848
     25          1           0       -5.640120    0.869248    0.082337
     26          1           0        0.130324    1.229877    0.299609
 ---------------------------------------------------------------------

 SCF Done:  E(RHF) =  -631.032760946     A.U. after    2 cycles

 The electronic state is 1-A.
 Alpha  occ. eigenvalues --  -21.03103 -15.78313 -11.53705 -11.53138 -11.52656
 Alpha  occ. eigenvalues --  -11.46019 -11.45067 -11.44663 -11.43364 -11.42710
 Alpha  occ. eigenvalues --  -11.42033 -11.40974 -11.40399 -11.37963 -11.36357
 Alpha  occ. eigenvalues --   -1.71622  -1.44465  -1.35308  -1.29201  -1.13080
 Alpha  occ. eigenvalues --   -1.10713  -1.09307  -1.07062  -0.92688  -0.88277
 Alpha  occ. eigenvalues --   -0.87526  -0.85570  -0.79201  -0.74644  -0.71373
 Alpha  occ. eigenvalues --   -0.68619  -0.67179  -0.62685  -0.60241  -0.59268
 Alpha  occ. eigenvalues --   -0.59003  -0.57929  -0.56000  -0.55851  -0.52323
 Alpha  occ. eigenvalues --   -0.50787  -0.48591  -0.47197  -0.45993  -0.45404
 Alpha  occ. eigenvalues --   -0.44695  -0.39189  -0.34448  -0.33425  -0.32998
 Alpha  occ. eigenvalues --   -0.28904  -0.27542
 Alpha virt. eigenvalues --    0.02896   0.04401   0.04764   0.05168   0.05428
 Alpha virt. eigenvalues --    0.05611   0.06592   0.06849   0.07079   0.07869
 Alpha virt. eigenvalues --    0.08754   0.09075   0.09794   0.10695   0.11048

 Mulliken charges:
               1
     1  C    3.006830
     2  O   -4.122881
     3  N   -5.484429
     4  C    3.923438
     5  C    5.637469
     6  C   -0.119399
     7  C   -2.639792
     8  C   -2.694306
     9  C   -1.553350
    10  C   -2.860913
    11  C   -3.073125
    12  C   -2.634963
    13  C   -0.640812
    14  C   -3.582980
    15  C   -0.647620
    16  H    1.843734
    17  H    1.535009
    18  H    2.065679
    19  H    1.509870
    20  H    1.569252
    21  H    1.479278
    22  H    1.702012
    23  H    1.921252
    24  H    1.478411
    25  H    1.549300
    26  H    0.833036
 Sum of Mulliken charges =  -0.00000

 Dipole moment (field-independent basis, Debye):
    X=             -1.2847    Y=              1.7707    Z=              0.2710  Tot=              2.2043

 Test job not archived.
 1\1\GINC-SE455\SP\RHF\Aug-CC-pVDZ\C13H11N1O1\OHZDE\08-Apr-2025\0\\#t h
 f aug-cc-pvdz iop(5/13=1,5/36=2,99/5=2) pseudo=read geom=check guess=(
 read,tcheck) scf=(maxcycle=1)\\title\\0,1\C,0,-0.480431,-0.671205,-0.0
 76184\O,0,-0.223101,-1.855519,-0.210544\N,0,0.474221,0.311606,0.065998
 \C,0,-1.903242,-0.178967,-0.035576\C,0,1.879634,0.194611,0.047023\C,0,
 -2.287595,1.118402,-0.394745\C,0,-3.628273,1.492946,-0.353468\C,0,-4.5
 96946,0.576128,0.048008\C,0,-4.222681,-0.722248,0.39305\C,0,-2.886048,
 -1.099935,0.342293\C,0,2.622248,1.360547,0.284717\C,0,2.55201,-1.00863

 Normal termination of Gaussian 16 at Tue Apr  8 23:15:46 2025.
