 Gaussian 16, Revision C.01,

 ----------------------------------------------------------------------
 #t hf aug-cc-pvdz symm=none int=(grid=ultrafine) guess=(read,tcheck) s
 table=(opt,rrhf)
 ----------------------------------------------------------------------
 -----
 title
 -----
 Symbolic Z-matrix:
 Charge =  0 Multiplicity = 1

 SCF Done:  E(RHF) =  -252.536550922     A.U. after   12 cycles
 Normal termination of Gaussian 16 at Wed Apr  9 00:37:07 2025.
 Gaussian 16:  ES64L-G16RevC.01  3-Jul-2019

 ----------------------------------------------------------------------
 #t hf aug-cc-pvdz iop(5/13=1,5/36=2,99/5=2) pseudo=read geom=check gue
 ss=(read,tcheck) scf=(maxcycle=1)
 ----------------------------------------------------------------------
 -----
 title
 -----
 Structure from the checkpoint file:  "BDE49_nonexpt_538_mol1.chk"
 Charge =  0 Multiplicity = 1

                         Standard orientation:
 ---------------------------------------------------------------------
 Center     Atomic      Atomic             Coordinates (Angstroms)
 Number     Number       Type             X           Y           Z
 ---------------------------------------------------------------------
      1          1           0       -0.132742    2.682918    0.000000
      2          7           0       -0.109070    0.770275    1.218708
      3          7           0       -0.109070    0.770275   -1.218708
      4          6           0       -0.109070   -0.688081    1.271308
      5          6           0        0.530350   -1.259465    0.000000
      6          6           0       -0.109070   -0.688081   -1.271308
      7          5           0       -0.120233    1.489153    0.000000
      8          1           0       -0.150125    1.246768    2.103535
      9          1           0       -0.150125    1.246768   -2.103535
     10          1           0        0.455014   -1.032332   -2.144953
     11          1           0       -1.130689   -1.082882   -1.378085
     12          1           0        0.442302   -2.350039    0.000000
     13          1           0        1.596920   -1.011841    0.000000
     14          1           0       -1.130689   -1.082882    1.378085
     15          1           0        0.455014   -1.032332    2.144953
 ---------------------------------------------------------------------

 SCF Done:  E(RHF) =  -253.761554855     A.U. after    2 cycles

 The electronic state is 1-A'.
 Alpha  occ. eigenvalues --  -15.68451 -15.68391 -11.42429 -11.41427 -11.35612
 Alpha  occ. eigenvalues --   -7.58629  -1.43868  -1.28185  -1.14565  -0.93462
 Alpha  occ. eigenvalues --   -0.87575  -0.74843  -0.68324  -0.62577  -0.59596
 Alpha  occ. eigenvalues --   -0.58004  -0.53113  -0.51952  -0.49246  -0.42186
 Alpha  occ. eigenvalues --   -0.41685  -0.38815  -0.30479
 Alpha virt. eigenvalues --    0.03634   0.04205   0.04312   0.05072   0.06278
 Alpha virt. eigenvalues --    0.06548   0.06883   0.07121   0.07508   0.08932
 Alpha virt. eigenvalues --    0.09386   0.11667   0.12970   0.12971   0.13733

 Mulliken charges:
               1
     1  H   -4.300824
     2  N   -3.016963
     3  N   -3.016963
     4  C   -1.860934
     5  C   -2.390844
     6  C   -1.860934
     7  B    6.526221
     8  H    0.938258
     9  H    0.938258
    10  H    1.376873
    11  H    1.352224
    12  H    1.412435
    13  H    1.174096
    14  H    1.352224
    15  H    1.376873
 Sum of Mulliken charges =   0.00000

 Dipole moment (field-independent basis, Debye):
    X=             -0.0001    Y=             -1.0701    Z=             -0.0000  Tot=              1.0701

 Test job not archived.
 1\1\GINC-SE284\SP\RHF\Aug-CC-pVDZ\C3H9B1N2\OHZDE\09-Apr-2025\0\\#t hf
 aug-cc-pvdz iop(5/13=1,5/36=2,99/5=2) pseudo=read geom=check guess=(re
 ad,tcheck) scf=(maxcycle=1)\\title\\0,1\H,0,0.,2.674516,-0.250271\N,0,
 1.218708,0.777957,-0.001616\N,0,-1.218708,0.777957,-0.001616\C,0,1.271
 308,-0.665567,0.205845\C,0,0.,-1.322102,-0.345789\C,0,-1.271308,-0.665
 567,0.205845\B,0,0.,1.491112,-0.092832\H,0,2.103535,1.255444,-0.028763
 \H,0,-2.103535,1.255444,-0.028763\H,0,-2.144953,-1.086562,-0.30353\H,0
 ,-1.378085,-0.911021,1.273237\H,0,0.,-2.389059,-0.103495\H,0,0.,-1.228

 Normal termination of Gaussian 16 at Wed Apr  9 00:37:10 2025.
