 Gaussian 16, Revision C.01,

 ----------------------------------------------------------------------
 #t hf aug-cc-pvdz symm=none int=(grid=ultrafine) guess=(read,tcheck) s
 table=(opt,rrhf)
 ----------------------------------------------------------------------
 -----
 title
 -----
 Symbolic Z-matrix:
 Charge =  0 Multiplicity = 1

 SCF Done:  E(RHF) =  -478.187483970     A.U. after   15 cycles
 Normal termination of Gaussian 16 at Tue Apr  8 23:52:32 2025.
 Gaussian 16:  ES64L-G16RevC.01  3-Jul-2019

 ----------------------------------------------------------------------
 #t hf aug-cc-pvdz iop(5/13=1,5/36=2,99/5=2) pseudo=read geom=check gue
 ss=(read,tcheck) scf=(maxcycle=1)
 ----------------------------------------------------------------------
 -----
 title
 -----
 Structure from the checkpoint file:  "BDE49_nonexpt_1910_mol1.chk"
 Charge =  0 Multiplicity = 1

                         Standard orientation:
 ---------------------------------------------------------------------
 Center     Atomic      Atomic             Coordinates (Angstroms)
 Number     Number       Type             X           Y           Z
 ---------------------------------------------------------------------
      1         14           0        1.999551   -0.386552   -0.020693
      2          6           0        0.614902    0.917520   -0.028544
      3          1           0        2.198672   -0.921487    1.344162
      4          1           0        3.251310    0.259933   -0.480008
      5          1           0        1.652308   -1.494342   -0.938616
      6          7           0       -0.629050    0.318070    0.451541
      7          7           0       -1.484500    0.181387   -0.432556
      8          6           0       -2.715100   -0.446945    0.053354
      9          1           0       -3.546141    0.231500   -0.159087
     10          1           0       -2.665248   -0.676349    1.121607
     11          1           0       -2.882198   -1.357154   -0.529721
     12          1           0        0.494508    1.347350   -1.030166
     13          1           0        0.899108    1.702619    0.679772
 ---------------------------------------------------------------------

 SCF Done:  E(RHF) =  -479.254534991     A.U. after    2 cycles

 The electronic state is 1-A.
 Alpha  occ. eigenvalues --  -76.21663 -15.78732 -15.77905 -11.38611 -11.37418
 Alpha  occ. eigenvalues --   -5.55185  -2.18982  -2.17446  -2.17366  -1.54316
 Alpha  occ. eigenvalues --   -1.17227  -0.98564  -0.81027  -0.75286  -0.65122
 Alpha  occ. eigenvalues --   -0.62994  -0.60868  -0.54427  -0.49999  -0.48875
 Alpha  occ. eigenvalues --   -0.46903  -0.46623  -0.38176  -0.33370
 Alpha virt. eigenvalues --    0.04046   0.04790   0.05245   0.05931   0.06472
 Alpha virt. eigenvalues --    0.06870   0.07541   0.08265   0.08933   0.09659
 Alpha virt. eigenvalues --    0.10360   0.11830   0.13699   0.14078   0.14710

 Mulliken charges:
               1
     1  Si   6.037845
     2  C   -2.997572
     3  H   -1.702143
     4  H   -1.643844
     5  H   -1.687546
     6  N   -0.925590
     7  N   -0.979199
     8  C   -3.122269
     9  H    1.358327
    10  H    1.359480
    11  H    1.343817
    12  H    1.506248
    13  H    1.452445
 Sum of Mulliken charges =   0.00000

 Dipole moment (field-independent basis, Debye):
    X=             -0.3642    Y=              0.3573    Z=              0.0561  Tot=              0.5132

 Test job not archived.
 1\1\GINC-SE339\SP\RHF\Aug-CC-pVDZ\C2H8N2Si1\OHZDE\08-Apr-2025\0\\#t hf
  aug-cc-pvdz iop(5/13=1,5/36=2,99/5=2) pseudo=read geom=check guess=(r
 ead,tcheck) scf=(maxcycle=1)\\title\\0,1\Si,0,1.999551,-0.386552,-0.02
 0693\C,0,0.614902,0.91752,-0.028544\H,0,2.198672,-0.921487,1.344162\H,
 0,3.25131,0.259933,-0.480008\H,0,1.652308,-1.494342,-0.938616\N,0,-0.6
 2905,0.31807,0.451541\N,0,-1.4845,0.181387,-0.432556\C,0,-2.7151,-0.44
 6945,0.053354\H,0,-3.546141,0.2315,-0.159087\H,0,-2.665248,-0.676349,1
 .121607\H,0,-2.882198,-1.357154,-0.529721\H,0,0.494508,1.34735,-1.0301

 Normal termination of Gaussian 16 at Tue Apr  8 23:52:35 2025.
