 Gaussian 16, Revision C.01,

 ----------------------------------------------------------------------
 #t hf aug-cc-pvdz symm=none int=(grid=ultrafine) guess=(read,tcheck) s
 table=(opt,rrhf)
 ----------------------------------------------------------------------
 -----
 title
 -----
 Symbolic Z-matrix:
 Charge =  0 Multiplicity = 1

 SCF Done:  E(RHF) =  -513.565124222     A.U. after   15 cycles
 Normal termination of Gaussian 16 at Tue Apr  8 23:10:46 2025.
 Gaussian 16:  ES64L-G16RevC.01  3-Jul-2019

 ----------------------------------------------------------------------
 #t hf aug-cc-pvdz iop(5/13=1,5/36=2,99/5=2) pseudo=read geom=check gue
 ss=(read,tcheck) scf=(maxcycle=1)
 ----------------------------------------------------------------------
 -----
 title
 -----
 Structure from the checkpoint file:  "BDE49_expt_476_mol1.chk"
 Charge =  0 Multiplicity = 1

                         Standard orientation:
 ---------------------------------------------------------------------
 Center     Atomic      Atomic             Coordinates (Angstroms)
 Number     Number       Type             X           Y           Z
 ---------------------------------------------------------------------
      1          6           0       -1.363495    0.099420   -0.001728
      2          6           0       -0.913077    1.424832   -0.005682
      3          6           0        0.453575    1.692145   -0.007171
      4          6           0       -0.464431   -0.962288    0.003885
      5          6           0        0.909340   -0.680069    0.002678
      6          6           0        1.378460    0.628972   -0.003420
      7          1           0       -1.645302    2.223150   -0.013098
      8          7           0        0.919240    3.007204   -0.074413
      9          1           0        0.262991    3.705714    0.242413
     10          1           0        1.839389    3.154437    0.313611
     11          8           0       -2.719826   -0.051130    0.000349
     12          6           0       -3.253026   -1.366999    0.003333
     13          1           0       -2.949605   -1.925891   -0.888856
     14          1           0       -4.335663   -1.248909    0.003217
     15          1           0       -2.949411   -1.922125    0.897886
     16          1           0        2.437228    0.849590   -0.017918
     17          8           0        1.717424   -1.781242    0.008064
     18          6           0        3.123339   -1.591786   -0.003930
     19          1           0        3.558181   -2.590279   -0.002007
     20          1           0        3.464508   -1.048249    0.884621
     21          1           0        3.450359   -1.057271   -0.903020
     22          1           0       -0.772252   -1.996985    0.008952
 ---------------------------------------------------------------------

 SCF Done:  E(RHF) =  -515.934282826     A.U. after    2 cycles

 The electronic state is 1-A.
 Alpha  occ. eigenvalues --  -21.07150 -21.06857 -15.75679 -11.53628 -11.48470
 Alpha  occ. eigenvalues --  -11.47125 -11.41472 -11.41081 -11.39425 -11.39024
 Alpha  occ. eigenvalues --  -11.36019  -1.79385  -1.77240  -1.39346  -1.23241
 Alpha  occ. eigenvalues --   -1.08478  -1.06014  -0.98908  -0.98278  -0.84180
 Alpha  occ. eigenvalues --   -0.81880  -0.70051  -0.68453  -0.65455  -0.62303
 Alpha  occ. eigenvalues --   -0.62255  -0.61648  -0.61569  -0.58165  -0.55529
 Alpha  occ. eigenvalues --   -0.54119  -0.52180  -0.48592  -0.46643  -0.45208
 Alpha  occ. eigenvalues --   -0.43680  -0.39016  -0.38684  -0.32366  -0.26158
 Alpha  occ. eigenvalues --   -0.25155
 Alpha virt. eigenvalues --    0.03417   0.04556   0.04778   0.05537   0.05879
 Alpha virt. eigenvalues --    0.06355   0.06650   0.07347   0.08025   0.08948
 Alpha virt. eigenvalues --    0.09485   0.10104   0.11373   0.12154   0.12954

 Mulliken charges:
               1
     1  C    7.195650
     2  C   -4.030247
     3  C    4.340116
     4  C   -5.695905
     5  C    8.130849
     6  C   -4.261102
     7  H    1.986303
     8  N   -4.138641
     9  H    0.653514
    10  H    0.635270
    11  O   -4.838195
    12  C   -3.717737
    13  H    1.374572
    14  H    1.450658
    15  H    1.370774
    16  H    2.033684
    17  O   -5.081083
    18  C   -3.757980
    19  H    1.473262
    20  H    1.378911
    21  H    1.373109
    22  H    2.124218
 Sum of Mulliken charges =  -0.00000

 Dipole moment (field-independent basis, Debye):
    X=              0.5932    Y=              0.0848    Z=              0.7515  Tot=              0.9612

 Test job not archived.
 1\1\GINC-SE367\SP\RHF\Aug-CC-pVDZ\C8H11N1O2\OHZDE\08-Apr-2025\0\\#t hf
  aug-cc-pvdz iop(5/13=1,5/36=2,99/5=2) pseudo=read geom=check guess=(r
 ead,tcheck) scf=(maxcycle=1)\\title\\0,1\C,0,-1.363495,0.09942,-0.0017
 28\C,0,-0.913077,1.424832,-0.005682\C,0,0.453575,1.692145,-0.007171\C,
 0,-0.464431,-0.962288,0.003885\C,0,0.90934,-0.680069,0.002678\C,0,1.37
 846,0.628972,-0.00342\H,0,-1.645302,2.22315,-0.013098\N,0,0.91924,3.00
 7204,-0.074413\H,0,0.262991,3.705714,0.242413\H,0,1.839389,3.154437,0.
 313611\O,0,-2.719826,-0.05113,0.000349\C,0,-3.253026,-1.366999,0.00333

 Normal termination of Gaussian 16 at Tue Apr  8 23:10:57 2025.
