 Gaussian 16, Revision C.01,

 ----------------------------------------------------------------------
 #t hf aug-cc-pvdz symm=none int=(grid=ultrafine) guess=(read,tcheck) s
 table=(opt,rrhf)
 ----------------------------------------------------------------------
 -----
 title
 -----
 Symbolic Z-matrix:
 Charge =  0 Multiplicity = 1

 SCF Done:  E(RHF) =  -447.400507221     A.U. after   11 cycles
 Normal termination of Gaussian 16 at Tue Apr  8 23:57:42 2025.
 Gaussian 16:  ES64L-G16RevC.01  3-Jul-2019

 ----------------------------------------------------------------------
 #t hf aug-cc-pvdz iop(5/13=1,5/36=2,99/5=2) pseudo=read geom=check gue
 ss=(read,tcheck) scf=(maxcycle=1)
 ----------------------------------------------------------------------
 -----
 title
 -----
 Structure from the checkpoint file:  "BDE49_nonexpt_2032_mol1.chk"
 Charge =  0 Multiplicity = 1

                         Standard orientation:
 ---------------------------------------------------------------------
 Center     Atomic      Atomic             Coordinates (Angstroms)
 Number     Number       Type             X           Y           Z
 ---------------------------------------------------------------------
      1         14           0       -1.142833   -1.089937    0.055675
      2          6           0       -0.161874    0.485181   -0.351520
      3          6           0        1.225178    0.553052    0.324934
      4          6           0       -1.000047    1.732216   -0.005318
      5          1           0       -1.202284    1.790432    1.069441
      6          1           0       -1.962848    1.736806   -0.523406
      7          1           0       -0.468037    2.647807   -0.285862
      8          1           0       -0.005249    0.474210   -1.439650
      9          6           0        2.221861   -0.520937   -0.122740
     10          1           0        1.099855    0.506581    1.414007
     11          1           0        1.655931    1.541382    0.118096
     12          1           0        1.888120   -1.528329    0.139542
     13          1           0        3.197096   -0.365877    0.346502
     14          1           0        2.367953   -0.494781   -1.207186
     15          1           0       -1.318582   -1.211747    1.525596
     16          1           0       -0.477689   -2.320381   -0.436606
     17          1           0       -2.485311   -1.014061   -0.572068
 ---------------------------------------------------------------------

 SCF Done:  E(RHF) =  -448.407863121     A.U. after    2 cycles

 The electronic state is 1-A.
 Alpha  occ. eigenvalues --  -76.20212 -11.41625 -11.39470 -11.36942 -11.34192
 Alpha  occ. eigenvalues --   -5.53776  -2.17895  -2.16371  -2.16091  -1.23704
 Alpha  occ. eigenvalues --   -1.07451  -0.91752  -0.83577  -0.73839  -0.62799
 Alpha  occ. eigenvalues --   -0.58877  -0.58137  -0.56328  -0.50925  -0.49132
 Alpha  occ. eigenvalues --   -0.46697  -0.46424  -0.44756  -0.42308  -0.36815
 Alpha virt. eigenvalues --    0.04079   0.05054   0.05320   0.05719   0.06142
 Alpha virt. eigenvalues --    0.06193   0.06443   0.06500   0.07226   0.08500
 Alpha virt. eigenvalues --    0.08971   0.09836   0.10373   0.10910   0.12281

 Mulliken charges:
               1
     1  Si   6.195786
     2  C   -2.431203
     3  C   -2.899176
     4  C   -3.940226
     5  H    1.295799
     6  H    1.284999
     7  H    1.263539
     8  H    1.838809
     9  C   -3.760213
    10  H    1.395614
    11  H    1.410444
    12  H    1.477755
    13  H    1.093099
    14  H    1.279215
    15  H   -1.880640
    16  H   -1.782518
    17  H   -1.841081
 Sum of Mulliken charges =  -0.00000

 Dipole moment (field-independent basis, Debye):
    X=              0.6507    Y=              0.8239    Z=             -0.3170  Tot=              1.0966

 Test job not archived.
 1\1\GINC-SE343\SP\RHF\Aug-CC-pVDZ\C4H12Si1\OHZDE\08-Apr-2025\0\\#t hf
 aug-cc-pvdz iop(5/13=1,5/36=2,99/5=2) pseudo=read geom=check guess=(re
 ad,tcheck) scf=(maxcycle=1)\\title\\0,1\Si,0,-1.142833,-1.089937,0.055
 675\C,0,-0.161874,0.485181,-0.35152\C,0,1.225178,0.553052,0.324934\C,0
 ,-1.000048,1.732216,-0.005318\H,0,-1.202285,1.790432,1.069441\H,0,-1.9
 62849,1.736806,-0.523406\H,0,-0.468038,2.647807,-0.285862\H,0,-0.00524
 9,0.47421,-1.43965\C,0,2.221861,-0.520936,-0.12274\H,0,1.099855,0.5065
 81,1.414007\H,0,1.65593,1.541382,0.118096\H,0,1.88812,-1.528328,0.1395

 Normal termination of Gaussian 16 at Tue Apr  8 23:57:47 2025.
