 Gaussian 16, Revision C.01,

 ----------------------------------------------------------------------
 #t hf aug-cc-pvdz symm=none int=(grid=ultrafine) guess=(read,tcheck) s
 table=(opt,rrhf)
 ----------------------------------------------------------------------
 -----
 title
 -----
 Symbolic Z-matrix:
 Charge =  0 Multiplicity = 1

 SCF Done:  E(RHF) =  -650.859212564     A.U. after   13 cycles
 Normal termination of Gaussian 16 at Tue Apr  8 22:37:26 2025.
 Gaussian 16:  ES64L-G16RevC.01  3-Jul-2019

 ----------------------------------------------------------------------
 #t hf aug-cc-pvdz iop(5/13=1,5/36=2,99/5=2) pseudo=read geom=check gue
 ss=(read,tcheck) scf=(maxcycle=1)
 ----------------------------------------------------------------------
 -----
 title
 -----
 Structure from the checkpoint file:  "BDE49_expt_1143_mol1.chk"
 Charge =  0 Multiplicity = 1

                         Standard orientation:
 ---------------------------------------------------------------------
 Center     Atomic      Atomic             Coordinates (Angstroms)
 Number     Number       Type             X           Y           Z
 ---------------------------------------------------------------------
      1          8           0        2.059374   -0.518689   -0.015772
      2          6           0        1.664477    0.850628   -0.191492
      3          6           0        0.776427   -0.109759    0.468800
      4          1           0        1.460026    1.148543   -1.217035
      5          1           0        2.211679    1.572072    0.408952
      6          6           0       -0.384925   -0.724166   -0.262517
      7          1           0        0.684126   -0.078218    1.552297
      8         17           0       -1.904235    0.228003    0.032068
      9          1           0       -0.209562   -0.732419   -1.336519
     10          1           0       -0.585140   -1.736727    0.084573
 ---------------------------------------------------------------------

 SCF Done:  E(RHF) =  -651.978777511     A.U. after    2 cycles

 The electronic state is 1-A.
 Alpha  occ. eigenvalues --  -99.88663 -21.07538 -11.50414 -11.45564 -11.42235
 Alpha  occ. eigenvalues --  -10.45886  -9.65786  -9.65059  -9.65018  -1.79190
 Alpha  occ. eigenvalues --   -1.33284  -1.08933  -0.97471  -0.86986  -0.71999
 Alpha  occ. eigenvalues --   -0.65627  -0.62391  -0.60022  -0.55546  -0.48837
 Alpha  occ. eigenvalues --   -0.48525  -0.45131  -0.38508  -0.32700
 Alpha virt. eigenvalues --    0.03614   0.05466   0.05739   0.06014   0.06467
 Alpha virt. eigenvalues --    0.07384   0.10416   0.11359   0.12138   0.13165
 Alpha virt. eigenvalues --    0.14385   0.14772   0.15508   0.16777   0.17060

 Mulliken charges:
               1
     1  O   -2.492307
     2  C   -1.950634
     3  C    1.480528
     4  H    1.458465
     5  H    1.416114
     6  C   -4.418765
     7  H    1.392357
     8  Cl   0.071732
     9  H    1.536729
    10  H    1.505781
 Sum of Mulliken charges =  -0.00000

 Dipole moment (field-independent basis, Debye):
    X=              1.9726    Y=             -0.6969    Z=             -0.2266  Tot=              2.1043

 Test job not archived.
 1\1\GINC-SE364\SP\RHF\Aug-CC-pVDZ\C3H5Cl1O1\OHZDE\08-Apr-2025\0\\#t hf
  aug-cc-pvdz iop(5/13=1,5/36=2,99/5=2) pseudo=read geom=check guess=(r
 ead,tcheck) scf=(maxcycle=1)\\title\\0,1\O,0,2.059374,-0.518689,-0.015
 772\C,0,1.664477,0.850628,-0.191492\C,0,0.776427,-0.109759,0.4688\H,0,
 1.460026,1.148543,-1.217035\H,0,2.211679,1.572072,0.408952\C,0,-0.3849
 25,-0.724166,-0.262517\H,0,0.684126,-0.078218,1.552297\Cl,0,-1.904235,
 0.228003,0.032068\H,0,-0.209562,-0.732419,-1.336519\H,0,-0.58514,-1.73
 6727,0.084573\\Version=ES64L-G16RevC.01\State=1-A\HF=-651.9787775\RMSD

 Normal termination of Gaussian 16 at Tue Apr  8 22:37:29 2025.
