 Gaussian 16, Revision C.01,

 ----------------------------------------------------------------------
 #t hf aug-cc-pvdz symm=none int=(grid=ultrafine) guess=(read,tcheck) s
 table=(opt,rrhf)
 ----------------------------------------------------------------------
 -----
 title
 -----
 Symbolic Z-matrix:
 Charge =  0 Multiplicity = 1

 SCF Done:  E(RHF) =  -832.926155609     A.U. after   14 cycles
 Normal termination of Gaussian 16 at Tue Apr  8 23:41:06 2025.
 Gaussian 16:  ES64L-G16RevC.01  3-Jul-2019

 ----------------------------------------------------------------------
 #t hf aug-cc-pvdz iop(5/13=1,5/36=2,99/5=2) pseudo=read geom=check gue
 ss=(read,tcheck) scf=(maxcycle=1)
 ----------------------------------------------------------------------
 -----
 title
 -----
 Structure from the checkpoint file:  "BDE49_nonexpt_1607_mol1.chk"
 Charge =  0 Multiplicity = 1

                         Standard orientation:
 ---------------------------------------------------------------------
 Center     Atomic      Atomic             Coordinates (Angstroms)
 Number     Number       Type             X           Y           Z
 ---------------------------------------------------------------------
      1          6           0        2.404012   -0.829242   -0.028223
      2          6           0        1.190597    0.060584   -0.012142
      3          8           0        0.040375   -0.664195   -0.113824
      4          8           0        1.201681    1.266406    0.074908
      5         15           0       -1.478724   -0.032903    0.115053
      6          8           0       -1.917021   -0.160809    1.499278
      7          6           0        3.722015   -0.060612   -0.005768
      8          1           0        2.320339   -1.474397   -0.908833
      9          1           0        2.312214   -1.500583    0.832678
     10          1           0        3.815474    0.588129   -0.878581
     11          1           0        4.562779   -0.757107   -0.004858
     12          1           0        3.795206    0.568103    0.883021
     13          8           0       -2.306337   -0.859862   -0.953134
     14          1           0       -2.910671   -1.478983   -0.526906
     15          8           0       -1.401969    1.382519   -0.568572
     16          1           0       -0.548059    1.811541   -0.354758
 ---------------------------------------------------------------------

 SCF Done:  E(RHF) =  -835.221898587     A.U. after    2 cycles

 The electronic state is 1-A.
 Alpha  occ. eigenvalues -- -105.34392 -21.13312 -21.12098 -21.11650 -21.08818
 Alpha  occ. eigenvalues --  -21.03584 -11.57060 -11.44348 -11.38913  -2.97508
 Alpha  occ. eigenvalues --   -2.03134  -1.94729  -1.94112  -1.79655  -1.71805
 Alpha  occ. eigenvalues --   -1.46886  -1.41228  -1.26205  -1.20426  -0.97260
 Alpha  occ. eigenvalues --   -0.78778  -0.72694  -0.67062  -0.65773  -0.60741
 Alpha  occ. eigenvalues --   -0.59361  -0.57052  -0.54705  -0.53585  -0.50557
 Alpha  occ. eigenvalues --   -0.49913  -0.45658  -0.43173  -0.40216  -0.35577
 Alpha  occ. eigenvalues --   -0.35037  -0.33461  -0.30514  -0.28134  -0.17076
 Alpha virt. eigenvalues --    0.03052   0.04796   0.05291   0.05681   0.05924
 Alpha virt. eigenvalues --    0.06391   0.07682   0.09941   0.10531   0.11282
 Alpha virt. eigenvalues --    0.11697   0.12674   0.13334   0.14053   0.14759

 Mulliken charges:
               1
     1  C   -4.125308
     2  C    5.904778
     3  O   -4.238627
     4  O   -2.991181
     5  P    8.663237
     6  O   -2.812742
     7  C   -3.422766
     8  H    1.478403
     9  H    1.467331
    10  H    1.272325
    11  H    1.077199
    12  H    1.290990
    13  O   -2.639688
    14  H    0.887174
    15  O   -3.048090
    16  H    1.236964
 Sum of Mulliken charges =  -0.00000

 Dipole moment (field-independent basis, Debye):
    X=              1.9701    Y=             -1.2730    Z=             -2.5800  Tot=              3.4868

 Test job not archived.
 1\1\GINC-SE393\SP\RHF\Aug-CC-pVDZ\C3H7O5P1\OHZDE\08-Apr-2025\0\\#t hf
 aug-cc-pvdz iop(5/13=1,5/36=2,99/5=2) pseudo=read geom=check guess=(re
 ad,tcheck) scf=(maxcycle=1)\\title\\0,1\C,0,2.404012,-0.829242,-0.0282
 23\C,0,1.190597,0.060584,-0.012142\O,0,0.040375,-0.664195,-0.113824\O,
 0,1.201681,1.266406,0.074908\P,0,-1.478724,-0.032903,0.115053\O,0,-1.9
 17021,-0.160809,1.499278\C,0,3.722015,-0.060612,-0.005768\H,0,2.320339
 ,-1.474397,-0.908833\H,0,2.312214,-1.500583,0.832678\H,0,3.815474,0.58
 8129,-0.878581\H,0,4.562779,-0.757107,-0.004858\H,0,3.795206,0.568103,

 Normal termination of Gaussian 16 at Tue Apr  8 23:41:13 2025.
