 Gaussian 16, Revision C.01,

 ----------------------------------------------------------------------
 #t hf aug-cc-pvdz symm=none int=(grid=ultrafine) guess=(read,tcheck) s
 table=(opt,rrhf)
 ----------------------------------------------------------------------
 -----
 title
 -----
 Symbolic Z-matrix:
 Charge =  0 Multiplicity = 1

 SCF Done:  E(RHF) =  -309.064640352     A.U. after   13 cycles

 1\1\GINC-SE165\Stability\RHF\Aug-CC-pVDZ\C6H12O1\OHZDE\08-Apr-2025\0\\
 #t hf aug-cc-pvdz symm=none int=(grid=ultrafine) guess=(read,tcheck) s
 table=(opt,rrhf)\\title\\0,1\C,0,3.347283,-0.324266,0.061219\C,0,1.863
 264,-0.297771,0.435886\H,0,3.819406,0.648442,0.232867\H,0,3.483321,-0.
 575489,-0.995266\H,0,3.892735,-1.06601,0.650637\C,0,1.062965,0.732421,
 -0.36893\H,0,1.758288,-0.077234,1.505341\H,0,1.42297,-1.286673,0.28060
 6\C,0,-0.418746,0.764201,-0.029173\H,0,1.169721,0.531689,-1.440937\H,0
 ,1.468366,1.736757,-0.195533\O,0,-0.988344,-0.49732,-0.389939\H,0,-0.9

 Normal termination of Gaussian 16 at Tue Apr  8 22:43:12 2025.
 Gaussian 16:  ES64L-G16RevC.01  3-Jul-2019

 ----------------------------------------------------------------------
 #t hf aug-cc-pvdz iop(5/13=1,5/36=2,99/5=2) pseudo=read geom=check gue
 ss=(read,tcheck) scf=(maxcycle=1)
 ----------------------------------------------------------------------
 -----
 title
 -----
 Structure from the checkpoint file:  "BDE49_expt_1379_mol1.chk"
 Charge =  0 Multiplicity = 1

                         Standard orientation:
 ---------------------------------------------------------------------
 Center     Atomic      Atomic             Coordinates (Angstroms)
 Number     Number       Type             X           Y           Z
 ---------------------------------------------------------------------
      1          6           0        3.347283   -0.324266    0.061219
      2          6           0        1.863264   -0.297771    0.435886
      3          1           0        3.819406    0.648442    0.232867
      4          1           0        3.483321   -0.575489   -0.995266
      5          1           0        3.892735   -1.066010    0.650637
      6          6           0        1.062965    0.732421   -0.368930
      7          1           0        1.758288   -0.077234    1.505341
      8          1           0        1.422970   -1.286673    0.280606
      9          6           0       -0.418746    0.764201   -0.029173
     10          1           0        1.169721    0.531689   -1.440937
     11          1           0        1.468366    1.736757   -0.195533
     12          8           0       -0.988344   -0.497320   -0.389939
     13          1           0       -0.931057    1.562510   -0.580164
     14          1           0       -0.573850    0.938865    1.043861
     15          6           0       -2.310139   -0.679887   -0.156807
     16          6           0       -3.186911    0.173500    0.374845
     17          1           0       -2.930750    1.171335    0.702614
     18          1           0       -4.215489   -0.140258    0.488905
     19          1           0       -2.603200   -1.674567   -0.475665
 ---------------------------------------------------------------------

 SCF Done:  E(RHF) =  -310.569229636     A.U. after    2 cycles

 The electronic state is 1-A.
 Alpha  occ. eigenvalues --  -21.06829 -11.45013 -11.44485 -11.40916 -11.37818
 Alpha  occ. eigenvalues --  -11.36658 -11.34719  -1.78157  -1.22564  -1.10669
 Alpha  occ. eigenvalues --   -1.05206  -0.92015  -0.83759  -0.77876  -0.67508
 Alpha  occ. eigenvalues --   -0.64800  -0.62263  -0.59444  -0.57884  -0.54088
 Alpha  occ. eigenvalues --   -0.52183  -0.48940  -0.46456  -0.45972  -0.44239
 Alpha  occ. eigenvalues --   -0.42943  -0.38946  -0.27420
 Alpha virt. eigenvalues --    0.04056   0.04921   0.05115   0.05608   0.05736
 Alpha virt. eigenvalues --    0.05901   0.06387   0.06433   0.07726   0.08167
 Alpha virt. eigenvalues --    0.08953   0.10222   0.10749   0.12861   0.13625

 Mulliken charges:
               1
     1  C   -3.974296
     2  C   -2.949815
     3  H    1.300998
     4  H    1.317091
     5  H    1.094918
     6  C   -2.283565
     7  H    1.439930
     8  H    1.579936
     9  C   -2.174407
    10  H    1.502074
    11  H    1.346363
    12  O   -3.636844
    13  H    1.522577
    14  H    1.788826
    15  C    1.012962
    16  C   -3.450889
    17  H    1.466128
    18  H    1.266278
    19  H    1.831735
 Sum of Mulliken charges =   0.00000

 Dipole moment (field-independent basis, Debye):
    X=              0.9204    Y=              0.0519    Z=             -0.1122  Tot=              0.9286

 Test job not archived.
 1\1\GINC-SE165\SP\RHF\Aug-CC-pVDZ\C6H12O1\OHZDE\08-Apr-2025\0\\#t hf a
 ug-cc-pvdz iop(5/13=1,5/36=2,99/5=2) pseudo=read geom=check guess=(rea
 d,tcheck) scf=(maxcycle=1)\\title\\0,1\C,0,3.347283,-0.324266,0.061219
 \C,0,1.863264,-0.297771,0.435886\H,0,3.819406,0.648442,0.232867\H,0,3.
 483321,-0.575489,-0.995266\H,0,3.892735,-1.06601,0.650637\C,0,1.062965
 ,0.732421,-0.36893\H,0,1.758288,-0.077234,1.505341\H,0,1.42297,-1.2866
 73,0.280606\C,0,-0.418746,0.764201,-0.029173\H,0,1.169721,0.531689,-1.
 440937\H,0,1.468366,1.736757,-0.195533\O,0,-0.988344,-0.49732,-0.38993

 Normal termination of Gaussian 16 at Tue Apr  8 22:43:20 2025.
