 Gaussian 16, Revision C.01,

 ----------------------------------------------------------------------
 #t hf aug-cc-pvdz symm=none int=(grid=ultrafine) guess=(read,tcheck) s
 table=(opt,rrhf)
 ----------------------------------------------------------------------
 -----
 title
 -----
 Symbolic Z-matrix:
 Charge =  0 Multiplicity = 1

 SCF Done:  E(RHF) =  -896.495957832     A.U. after   16 cycles
 Normal termination of Gaussian 16 at Tue Apr  8 23:11:47 2025.
 Gaussian 16:  ES64L-G16RevC.01  3-Jul-2019

 ----------------------------------------------------------------------
 #t hf aug-cc-pvdz iop(5/13=1,5/36=2,99/5=2) pseudo=read geom=check gue
 ss=(read,tcheck) scf=(maxcycle=1)
 ----------------------------------------------------------------------
 -----
 title
 -----
 Structure from the checkpoint file:  "BDE49_expt_486_mol1.chk"
 Charge =  0 Multiplicity = 1

                         Standard orientation:
 ---------------------------------------------------------------------
 Center     Atomic      Atomic             Coordinates (Angstroms)
 Number     Number       Type             X           Y           Z
 ---------------------------------------------------------------------
      1          6           0        1.319517   -1.104603    0.000001
      2          6           0       -0.060612   -0.925872   -0.000014
      3          6           0        2.168788   -0.004662   -0.000001
      4          6           0        1.652576    1.287012   -0.000017
      5          6           0        0.276326    1.467426   -0.000032
      6          6           0       -0.595217    0.369328   -0.000029
      7          1           0       -0.725451   -1.775160   -0.000014
      8          1           0        1.732107   -2.105360    0.000013
      9          1           0        2.318052    2.140443   -0.000018
     10          1           0       -0.124601    2.476349   -0.000044
     11          7           0       -1.978954    0.637382   -0.000046
     12          6           0       -3.032770   -0.252749   -0.000017
     13          8           0       -2.902941   -1.461435   -0.000008
     14          6           0       -4.405956    0.399968    0.000077
     15          1           0       -4.386957    1.491790   -0.000574
     16          1           0       -4.951370    0.054265    0.880438
     17          1           0       -4.951974    0.053199   -0.879479
     18          1           0       -2.222791    1.615481   -0.000049
     19         17           0        3.909016   -0.243311    0.000018
 ---------------------------------------------------------------------

 SCF Done:  E(RHF) =  -898.763050181     A.U. after    2 cycles

 The electronic state is 1-A.
 Alpha  occ. eigenvalues --  -99.89138 -21.03655 -15.79257 -11.53916 -11.52428
 Alpha  occ. eigenvalues --  -11.47722 -11.45817 -11.45020 -11.42547 -11.40359
 Alpha  occ. eigenvalues --  -11.38275 -10.46475  -9.66523  -9.65623  -9.65440
 Alpha  occ. eigenvalues --   -1.71974  -1.45651  -1.37177  -1.26014  -1.12205
 Alpha  occ. eigenvalues --   -1.11320  -1.05358  -0.90276  -0.88178  -0.80268
 Alpha  occ. eigenvalues --   -0.73429  -0.69406  -0.66815  -0.62708  -0.61517
 Alpha  occ. eigenvalues --   -0.60288  -0.59591  -0.57509  -0.56025  -0.54424
 Alpha  occ. eigenvalues --   -0.50552  -0.49893  -0.48806  -0.47653  -0.45788
 Alpha  occ. eigenvalues --   -0.38410  -0.34772  -0.29613  -0.28650
 Alpha virt. eigenvalues --    0.02736   0.04150   0.04676   0.06095   0.06128
 Alpha virt. eigenvalues --    0.06554   0.07606   0.07793   0.09288   0.09926
 Alpha virt. eigenvalues --    0.10169   0.10824   0.11166   0.11768   0.12134

 Mulliken charges:
               1
     1  C   -0.777611
     2  C   -1.207578
     3  C   -2.321038
     4  C   -1.497435
     5  C   -1.128103
     6  C    3.374263
     7  H    2.083171
     8  H    1.793309
     9  H    1.827278
    10  H    2.008916
    11  N   -4.817005
    12  C    5.243900
    13  O   -3.584763
    14  C   -4.945170
    15  H    1.500913
    16  H    1.249864
    17  H    1.249579
    18  H    0.816730
    19  Cl  -0.869220
 Sum of Mulliken charges =   0.00000

 Dipole moment (field-independent basis, Debye):
    X=             -3.0593    Y=              2.4201    Z=              0.0000  Tot=              3.9008

 Test job not archived.
 1\1\GINC-SE116\SP\RHF\Aug-CC-pVDZ\C8H8Cl1N1O1\OHZDE\08-Apr-2025\0\\#t
 hf aug-cc-pvdz iop(5/13=1,5/36=2,99/5=2) pseudo=read geom=check guess=
 (read,tcheck) scf=(maxcycle=1)\\title\\0,1\C,0,1.319517,-1.104603,0.00
 0001\C,0,-0.060612,-0.925872,-0.000014\C,0,2.168788,-0.004662,-0.00000
 1\C,0,1.652576,1.287012,-0.000017\C,0,0.276326,1.467426,-0.000032\C,0,
 -0.595217,0.369328,-0.000029\H,0,-0.725451,-1.77516,-0.000014\H,0,1.73
 2107,-2.10536,0.000013\H,0,2.318052,2.140443,-0.000018\H,0,-0.124601,2
 .476349,-0.000044\N,0,-1.978954,0.637382,-0.000046\C,0,-3.03277,-0.252

 Normal termination of Gaussian 16 at Tue Apr  8 23:12:01 2025.
