 Gaussian 16, Revision C.01,

 ----------------------------------------------------------------------
 #t hf aug-cc-pvdz symm=none int=(grid=ultrafine) guess=(read,tcheck) s
 table=(opt,rrhf)
 ----------------------------------------------------------------------
 -----
 title
 -----
 Symbolic Z-matrix:
 Charge =  0 Multiplicity = 1

 SCF Done:  E(RHF) =  -630.593775133     A.U. after   13 cycles
 Normal termination of Gaussian 16 at Tue Apr  8 23:38:35 2025.
 Gaussian 16:  ES64L-G16RevC.01  3-Jul-2019

 ----------------------------------------------------------------------
 #t hf aug-cc-pvdz iop(5/13=1,5/36=2,99/5=2) pseudo=read geom=check gue
 ss=(read,tcheck) scf=(maxcycle=1)
 ----------------------------------------------------------------------
 -----
 title
 -----
 Structure from the checkpoint file:  "BDE49_nonexpt_1530_mol1.chk"
 Charge =  0 Multiplicity = 1

                         Standard orientation:
 ---------------------------------------------------------------------
 Center     Atomic      Atomic             Coordinates (Angstroms)
 Number     Number       Type             X           Y           Z
 ---------------------------------------------------------------------
      1          6           0       -0.260673   -0.155812    0.244015
      2          6           0        0.667871   -1.341099   -0.078553
      3          6           0        2.110264   -1.072773    0.381086
      4          6           0        2.657376    0.239080   -0.198887
      5          6           0        1.731891    1.421843    0.119181
      6          6           0        0.293197    1.152474   -0.347059
      7          7           0       -2.881608    0.721040    0.428970
      8          1           0        0.662764   -1.518213   -1.162340
      9          1           0        0.292299   -2.257837    0.388703
     10          1           0        2.753808   -1.911557    0.095832
     11          1           0        2.133536   -1.020613    1.477258
     12          1           0        2.751581    0.139352   -1.288051
     13          1           0        3.665088    0.430045    0.184383
     14          1           0        2.110654    2.336444   -0.348933
     15          1           0        1.733944    1.602539    1.202028
     16          1           0        0.275393    1.082597   -1.443006
     17          1           0       -0.362216    1.984753   -0.076330
     18         15           0       -1.985771   -0.489973   -0.393676
     19          1           0       -0.316550   -0.046286    1.336045
     20          1           0       -2.202847   -1.644824    0.418067
     21          1           0       -3.004663    0.661248    1.431308
     22          1           0       -3.734528    1.002401   -0.031315
 ---------------------------------------------------------------------

 SCF Done:  E(RHF) =  -632.266334081     A.U. after    2 cycles

 The electronic state is 1-A.
 Alpha  occ. eigenvalues -- -105.17705 -15.73598 -11.43232 -11.42719 -11.41591
 Alpha  occ. eigenvalues --  -11.36997 -11.36708 -11.33394  -2.75406  -1.54473
 Alpha  occ. eigenvalues --   -1.48050  -1.43777  -1.29885  -1.16726  -1.09710
 Alpha  occ. eigenvalues --   -1.07829  -0.87933  -0.86159  -0.77591  -0.70406
 Alpha  occ. eigenvalues --   -0.64707  -0.63777  -0.60805  -0.60350  -0.57348
 Alpha  occ. eigenvalues --   -0.52218  -0.48150  -0.46904  -0.46446  -0.44458
 Alpha  occ. eigenvalues --   -0.42665  -0.40240  -0.38650  -0.27617  -0.19905
 Alpha  occ. eigenvalues --   -0.01019
 Alpha virt. eigenvalues --    0.04646   0.05066   0.05385   0.05634   0.05708
 Alpha virt. eigenvalues --    0.05836   0.06374   0.06594   0.07246   0.08573
 Alpha virt. eigenvalues --    0.08742   0.08761   0.08907   0.09365   0.11479

 Mulliken charges:
               1
     1  C    0.088612
     2  C   -3.259396
     3  C   -3.115769
     4  C   -2.978988
     5  C   -3.417380
     6  C   -3.574620
     7  N   -2.318562
     8  H    1.257843
     9  H    1.554446
    10  H    1.270283
    11  H    1.282705
    12  H    1.401165
    13  H    1.220135
    14  H    1.306420
    15  H    1.253777
    16  H    1.291935
    17  H    1.406548
    18  P    3.477457
    19  H    1.640634
    20  H   -0.855534
    21  H    0.418505
    22  H    0.649786
 Sum of Mulliken charges =  -0.00000

 Dipole moment (field-independent basis, Debye):
    X=             -0.5839    Y=              0.1381    Z=              1.3356  Tot=              1.4642

 Test job not archived.
 1\1\GINC-SE070\SP\RHF\Aug-CC-pVDZ\C6H14N1P1\OHZDE\08-Apr-2025\0\\#t hf
  aug-cc-pvdz iop(5/13=1,5/36=2,99/5=2) pseudo=read geom=check guess=(r
 ead,tcheck) scf=(maxcycle=1)\\title\\0,1\C,0,-0.260673,-0.155812,0.244
 015\C,0,0.667871,-1.341099,-0.078553\C,0,2.110264,-1.072773,0.381086\C
 ,0,2.657376,0.23908,-0.198887\C,0,1.731891,1.421843,0.119181\C,0,0.293
 197,1.152474,-0.347059\N,0,-2.881608,0.72104,0.42897\H,0,0.662764,-1.5
 18213,-1.16234\H,0,0.292299,-2.257837,0.388703\H,0,2.753808,-1.911557,
 0.095832\H,0,2.133536,-1.020613,1.477258\H,0,2.751581,0.139352,-1.2880

 Normal termination of Gaussian 16 at Tue Apr  8 23:38:46 2025.
