 Gaussian 16, Revision C.01,

 ----------------------------------------------------------------------
 #t hf aug-cc-pvdz symm=none int=(grid=ultrafine) guess=(read,tcheck) s
 table=opt
 ----------------------------------------------------------------------
 -----
 title
 -----
 Symbolic Z-matrix:
 Charge =  0 Multiplicity = 2

 SCF Done:  E(UHF) =  -1107.06756276     A.U. after   22 cycles
 Normal termination of Gaussian 16 at Tue Apr  8 23:10:49 2025.
 Gaussian 16:  ES64L-G16RevC.01  3-Jul-2019

 ----------------------------------------------------------------------
 #t hf aug-cc-pvdz iop(5/13=1,5/36=2,99/5=2) pseudo=read geom=check gue
 ss=(read,tcheck) scf=(maxcycle=1)
 ----------------------------------------------------------------------
 -----
 title
 -----
 Structure from the checkpoint file:  "BDE49_expt_620_mol2.chk"
 Charge =  0 Multiplicity = 2

                         Standard orientation:
 ---------------------------------------------------------------------
 Center     Atomic      Atomic             Coordinates (Angstroms)
 Number     Number       Type             X           Y           Z
 ---------------------------------------------------------------------
      1          6           0        0.006565   -0.091561    0.336115
      2          8           0        0.884644   -0.903472   -0.466269
      3          8           0        2.017565   -1.126577    0.174820
      4         17           0       -1.642860   -0.624536   -0.012455
      5          1           0        0.245823   -0.254883    1.380957
      6         17           0        0.260337    1.627162   -0.050254
 ---------------------------------------------------------------------

 SCF Done:  E(UHF) =  -1108.29394248     A.U. after    2 cycles

 The electronic state is 2-A.
 Alpha  occ. eigenvalues --  -99.92667 -99.92130 -21.18968 -21.17550 -11.54998
 Alpha  occ. eigenvalues --  -10.50069 -10.49509  -9.69899  -9.69351  -9.69062
 Alpha  occ. eigenvalues --   -9.69019  -9.68515  -9.68501  -2.09437  -1.47580
 Alpha  occ. eigenvalues --   -1.34357  -1.31445  -0.98002  -0.75217  -0.71940
 Alpha  occ. eigenvalues --   -0.68169  -0.60791  -0.56544  -0.54707  -0.52125
 Alpha  occ. eigenvalues --   -0.51722  -0.50066  -0.37989  -0.34350
 Alpha virt. eigenvalues --    0.02725   0.04381   0.06838   0.08392   0.10619
 Alpha virt. eigenvalues --    0.11456   0.12919   0.14301   0.14610   0.15061
 Alpha virt. eigenvalues --    0.15745   0.16913   0.18594   0.18986   0.21306

  Beta  occ. eigenvalues --  -99.92670 -99.92124 -21.16911 -21.15046 -11.55061
  Beta  occ. eigenvalues --  -10.50072 -10.49503  -9.69908  -9.69321  -9.69065
  Beta  occ. eigenvalues --   -9.69021  -9.68518  -9.68492  -2.04311  -1.43834
  Beta  occ. eigenvalues --   -1.31433  -1.29049  -0.97462  -0.74805  -0.70699
  Beta  occ. eigenvalues --   -0.67343  -0.56367  -0.55503  -0.51887  -0.51438
  Beta  occ. eigenvalues --   -0.49227  -0.45555  -0.35682
  Beta virt. eigenvalues --    0.02739   0.04262   0.06482   0.08163   0.09429
  Beta virt. eigenvalues --    0.10712   0.12746   0.13225   0.14601   0.14881
  Beta virt. eigenvalues --    0.15492   0.16323   0.17149   0.18983   0.19425

 Mulliken charges and spin densities:
               1          2
     1  C   -1.744573  -0.019666
     2  O   -0.901786   0.101137
     3  O   -0.176367   0.913009
     4  Cl   0.305504   0.001211
     5  H    2.143402  -0.008945
     6  Cl   0.373819   0.013253
 Sum of Mulliken charges =  -0.00000   1.00000

 Dipole moment (field-independent basis, Debye):
    X=              1.0585    Y=             -0.9577    Z=              0.7721  Tot=              1.6229
                          Isotropic Fermi Contact Couplings
        Atom                 a.u.       MegaHertz       Gauss      10(-4) cm-1
     1  C(13)             -0.01347     -15.14294      -5.40338      -5.05114
     2  O(17)              0.05671     -34.37869     -12.26717     -11.46750
     3  O(17)              0.19628    -118.98519     -42.45688     -39.68919
     4  Cl(35)             0.00762       3.34058       1.19200       1.11430
     5  H(1)               0.00023       1.03248       0.36841       0.34440
     6  Cl(35)             0.01122       4.91810       1.75490       1.64050
 --------------------------------------------------------
       Center         ----  Spin Dipole Couplings  ----

 Normal termination of Gaussian 16 at Tue Apr  8 23:10:51 2025.
