 Gaussian 16, Revision C.01,

 ----------------------------------------------------------------------
 #t hf aug-cc-pvdz symm=none int=(grid=ultrafine) guess=(read,tcheck) s
 table=(opt,rrhf)
 ----------------------------------------------------------------------
 -----
 title
 -----
 Symbolic Z-matrix:
 Charge =  0 Multiplicity = 1

 SCF Done:  E(RHF) =  -638.304483969     A.U. after   16 cycles
 Normal termination of Gaussian 16 at Wed Apr  9 00:38:14 2025.
 Gaussian 16:  ES64L-G16RevC.01  3-Jul-2019

 ----------------------------------------------------------------------
 #t hf aug-cc-pvdz iop(5/13=1,5/36=2,99/5=2) pseudo=read geom=check gue
 ss=(read,tcheck) scf=(maxcycle=1)
 ----------------------------------------------------------------------
 -----
 title
 -----
 Structure from the checkpoint file:  "BDE49_nonexpt_568_mol1.chk"
 Charge =  0 Multiplicity = 1

                         Standard orientation:
 ---------------------------------------------------------------------
 Center     Atomic      Atomic             Coordinates (Angstroms)
 Number     Number       Type             X           Y           Z
 ---------------------------------------------------------------------
      1          7           0        0.026918    0.057584    0.000047
      2          7           0       -0.205354    1.427400    0.000024
      3          5           0        1.339120   -0.636269    0.000021
      4          7           0       -1.241778   -0.747180    0.000012
      5          8           0       -1.660074   -1.023925   -1.088997
      6          8           0        1.221543   -1.982984    0.000012
      7          8           0        0.797446    2.135313   -0.000044
      8          8           0        2.506521    0.028707    0.000014
      9          8           0       -1.356066    1.799657   -0.000074
     10          8           0       -1.660117   -1.023946    1.089000
     11          1           0        2.070736   -2.435299   -0.000002
     12          1           0        2.381130    0.989435    0.000029
 ---------------------------------------------------------------------

 SCF Done:  E(RHF) =  -640.927920178     A.U. after    2 cycles

 The electronic state is 1-A.
 Alpha  occ. eigenvalues --  -21.15358 -21.15062 -21.14987 -21.13796 -21.10083
 Alpha  occ. eigenvalues --  -21.09306 -16.08648 -16.07986 -15.84690  -7.74446
 Alpha  occ. eigenvalues --   -2.08315  -2.05317  -1.87461  -1.76077  -1.75663
 Alpha  occ. eigenvalues --   -1.71446  -1.49479  -1.07489  -0.96783  -0.82448
 Alpha  occ. eigenvalues --   -0.78278  -0.77324  -0.75660  -0.68703  -0.67394
 Alpha  occ. eigenvalues --   -0.66421  -0.64921  -0.56383  -0.52423  -0.48151
 Alpha  occ. eigenvalues --   -0.46218  -0.40886  -0.40311  -0.39738  -0.38098
 Alpha  occ. eigenvalues --   -0.35720  -0.34561  -0.33826
 Alpha virt. eigenvalues --    0.02601   0.04755   0.04799   0.06561   0.07114
 Alpha virt. eigenvalues --    0.08456   0.10702   0.11680   0.12608   0.14201
 Alpha virt. eigenvalues --    0.15391   0.15554   0.16560   0.17455   0.18372

 Mulliken charges:
               1
     1  N   -2.002459
     2  N    7.273463
     3  B    6.638334
     4  N    6.803611
     5  O   -3.207073
     6  O   -4.689108
     7  O   -3.036972
     8  O   -3.991315
     9  O   -3.247518
    10  O   -3.207041
    11  H    0.943767
    12  H    1.722311
 Sum of Mulliken charges =  -0.00000

 Dipole moment (field-independent basis, Debye):
    X=              1.6616    Y=             -0.5645    Z=             -0.0001  Tot=              1.7549

 Test job not archived.
 1\1\GINC-SE455\SP\RHF\Aug-CC-pVDZ\B1H2N3O6\OHZDE\09-Apr-2025\0\\#t hf
 aug-cc-pvdz iop(5/13=1,5/36=2,99/5=2) pseudo=read geom=check guess=(re
 ad,tcheck) scf=(maxcycle=1)\\title\\0,1\N,0,-0.026918,0.057584,-0.0000
 47\N,0,0.205354,1.4274,-0.000024\B,0,-1.33912,-0.636269,-0.000021\N,0,
 1.241778,-0.74718,-0.000012\O,0,1.660074,-1.023925,1.088997\O,0,-1.221
 543,-1.982984,-0.000012\O,0,-0.797446,2.135313,0.000044\O,0,-2.506521,
 0.028707,-0.000014\O,0,1.356066,1.799657,0.000074\O,0,1.660117,-1.0239
 46,-1.089\H,0,-2.070736,-2.435299,0.000002\H,0,-2.38113,0.989435,-0.00

 Normal termination of Gaussian 16 at Wed Apr  9 00:38:21 2025.
