 Gaussian 16, Revision C.01,

 ----------------------------------------------------------------------
 #t hf aug-cc-pvdz symm=none int=(grid=ultrafine) guess=(read,tcheck) s
 table=(opt,rrhf)
 ----------------------------------------------------------------------
 -----
 title
 -----
 Symbolic Z-matrix:
 Charge =  0 Multiplicity = 1

 SCF Done:  E(RHF) =  -686.156444288     A.U. after   17 cycles
 Normal termination of Gaussian 16 at Wed Apr  9 00:22:11 2025.
 Gaussian 16:  ES64L-G16RevC.01  3-Jul-2019

 ----------------------------------------------------------------------
 #t hf aug-cc-pvdz iop(5/13=1,5/36=2,99/5=2) pseudo=read geom=check gue
 ss=(read,tcheck) scf=(maxcycle=1)
 ----------------------------------------------------------------------
 -----
 title
 -----
 Structure from the checkpoint file:  "BDE49_nonexpt_2651_mol1.chk"
 Charge =  0 Multiplicity = 1

                         Standard orientation:
 ---------------------------------------------------------------------
 Center     Atomic      Atomic             Coordinates (Angstroms)
 Number     Number       Type             X           Y           Z
 ---------------------------------------------------------------------
      1          9           0       -1.814926    1.015356    0.048150
      2         16           0       -1.198230   -0.522893   -0.099369
      3          8           0        0.213530   -0.459451    0.505303
      4          8           0        1.332472   -0.017306   -0.600843
      5          6           0        2.464937    0.307192    0.159334
      6          1           0        3.217390    0.586861   -0.588050
      7          1           0        2.841329   -0.549640    0.730364
      8          1           0        2.289657    1.161766    0.822557
 ---------------------------------------------------------------------

 SCF Done:  E(RHF) =  -687.537894164     A.U. after    2 cycles

 The electronic state is 1-A.
 Alpha  occ. eigenvalues --  -75.80421 -29.27557 -21.16498 -21.14071 -13.33483
 Alpha  occ. eigenvalues --  -13.20194 -13.13463 -11.42552  -8.14739  -1.90817
 Alpha  occ. eigenvalues --   -1.60872  -1.12080  -0.98224  -0.70670  -0.63872
 Alpha  occ. eigenvalues --   -0.62280  -0.59048  -0.53531  -0.46939  -0.44220
 Alpha  occ. eigenvalues --   -0.37817  -0.36126  -0.30677  -0.30268  -0.18412
 Alpha virt. eigenvalues --    0.03334   0.05808   0.06248   0.08095   0.09453
 Alpha virt. eigenvalues --    0.11051   0.11305   0.13156   0.14917   0.15607
 Alpha virt. eigenvalues --    0.16586   0.19112   0.21147   0.22864   0.23895

 Mulliken charges:
               1
     1  F   -0.206627
     2  S    1.698123
     3  O   -1.489825
     4  O   -1.493534
     5  C   -2.368982
     6  H    1.267299
     7  H    1.282322
     8  H    1.311224
 Sum of Mulliken charges =  -0.00000

 Dipole moment (field-independent basis, Debye):
    X=             -0.9233    Y=              2.2503    Z=             -0.0975  Tot=              2.4343

 Test job not archived.
 1\1\GINC-SE127\SP\RHF\Aug-CC-pVDZ\C1H3F1O2S1\OHZDE\09-Apr-2025\0\\#t h
 f aug-cc-pvdz iop(5/13=1,5/36=2,99/5=2) pseudo=read geom=check guess=(
 read,tcheck) scf=(maxcycle=1)\\title\\0,1\F,0,-1.814926,1.015356,0.048
 15\S,0,-1.19823,-0.522893,-0.099369\O,0,0.21353,-0.459451,0.505303\O,0
 ,1.332472,-0.017306,-0.600843\C,0,2.464937,0.307192,0.159334\H,0,3.217
 39,0.586861,-0.58805\H,0,2.841329,-0.54964,0.730364\H,0,2.289657,1.161
 766,0.822557\\Version=ES64L-G16RevC.01\State=1-A\HF=-687.5378942\RMSD=
 4.810e-02\Dipole=-0.3632529,0.8853545,-0.0383736\Quadrupole=4.3246722,

 Normal termination of Gaussian 16 at Wed Apr  9 00:22:13 2025.
