 Gaussian 16, Revision C.01,

 ----------------------------------------------------------------------
 #t hf aug-cc-pvdz symm=none int=(grid=ultrafine) guess=(read,tcheck) s
 table=(opt,rrhf)
 ----------------------------------------------------------------------
 -----
 title
 -----
 Symbolic Z-matrix:
 Charge =  0 Multiplicity = 1

 SCF Done:  E(RHF) =  -1551.92916168     A.U. after   16 cycles
 Normal termination of Gaussian 16 at Wed Apr  9 00:54:44 2025.
 Gaussian 16:  ES64L-G16RevC.01  3-Jul-2019

 ----------------------------------------------------------------------
 #t hf aug-cc-pvdz iop(5/13=1,5/36=2,99/5=2) pseudo=read geom=check gue
 ss=(read,tcheck) scf=(maxcycle=1)
 ----------------------------------------------------------------------
 -----
 title
 -----
 Structure from the checkpoint file:  "BDE49_nonexpt_938_mol1.chk"
 Charge =  0 Multiplicity = 1

                         Standard orientation:
 ---------------------------------------------------------------------
 Center     Atomic      Atomic             Coordinates (Angstroms)
 Number     Number       Type             X           Y           Z
 ---------------------------------------------------------------------
      1         17           0        3.262031   -0.557364   -0.130702
      2          7           0        1.536855   -0.839464   -0.064972
      3          6           0        0.832656    0.229728    0.110268
      4          7           0        1.258485    1.495331    0.323155
      5          1           0        2.264347    1.576429    0.250015
      6          6           0        0.510245    2.742098    0.179032
      7          1           0        1.060686    3.523031    0.703456
      8          1           0       -0.470757    2.666442    0.645502
      9          1           0        0.387703    3.027448   -0.868911
     10          6           0       -0.656383   -0.088660    0.187938
     11         17           0       -1.369145    0.335016    1.731709
     12          7           0       -1.450606    0.589649   -0.984666
     13          8           0       -2.651308    0.640508   -0.867474
     14          8           0       -0.775330    0.971662   -1.917505
     15          7           0       -0.881785   -1.646445   -0.081623
     16          8           0       -1.008557   -1.943202   -1.245984
     17          8           0       -0.912404   -2.357208    0.886731
 ---------------------------------------------------------------------

 SCF Done:  E(RHF) =  -1555.17374865     A.U. after    2 cycles

 The electronic state is 1-A.
 Alpha  occ. eigenvalues --  -99.96329 -99.92722 -21.14757 -21.14471 -21.13822
 Alpha  occ. eigenvalues --  -21.13334 -16.05099 -16.04612 -15.80943 -15.80368
 Alpha  occ. eigenvalues --  -11.65118 -11.54210 -11.44265 -10.53743 -10.49877
 Alpha  occ. eigenvalues --   -9.73889  -9.72947  -9.72769  -9.69853  -9.69053
 Alpha  occ. eigenvalues --   -9.68740  -2.05848  -2.03122  -1.75004  -1.74331
 Alpha  occ. eigenvalues --   -1.55233  -1.43034  -1.40276  -1.27015  -1.19658
 Alpha  occ. eigenvalues --   -1.05368  -1.02240  -0.95461  -0.81650  -0.78786
 Alpha  occ. eigenvalues --   -0.77519  -0.75558  -0.72879  -0.69385  -0.66849
 Alpha  occ. eigenvalues --   -0.65571  -0.65203  -0.64024  -0.61355  -0.60625
 Alpha  occ. eigenvalues --   -0.60255  -0.58035  -0.56603  -0.54500  -0.50538
 Alpha  occ. eigenvalues --   -0.45093  -0.41947  -0.38811  -0.37279  -0.35876
 Alpha  occ. eigenvalues --   -0.35666  -0.34816  -0.33086
 Alpha virt. eigenvalues --    0.02500   0.02827   0.04510   0.05548   0.05981
 Alpha virt. eigenvalues --    0.06421   0.08873   0.09018   0.09416   0.09922
 Alpha virt. eigenvalues --    0.10489   0.11428   0.11928   0.12913   0.13847

 Mulliken charges:
               1
     1  Cl   0.367734
     2  N   -3.281963
     3  C    5.428017
     4  N   -2.829414
     5  H    0.679298
     6  C   -3.628236
     7  H    1.370569
     8  H    1.466915
     9  H    1.471108
    10  C    0.723862
    11  Cl   0.308464
    12  N    5.563574
    13  O   -3.085878
    14  O   -3.169766
    15  N    4.577626
    16  O   -2.904999
    17  O   -3.056911
 Sum of Mulliken charges =  -0.00000

 Dipole moment (field-independent basis, Debye):
    X=             -0.2270    Y=              3.6661    Z=              0.0952  Tot=              3.6743

 Test job not archived.
 1\1\GINC-SE339\SP\RHF\Aug-CC-pVDZ\C3H4Cl2N4O4\OHZDE\09-Apr-2025\0\\#t
 hf aug-cc-pvdz iop(5/13=1,5/36=2,99/5=2) pseudo=read geom=check guess=
 (read,tcheck) scf=(maxcycle=1)\\title\\0,1\Cl,0,3.262031,-0.557365,-0.
 130702\N,0,1.536855,-0.839464,-0.064972\C,0,0.832656,0.229728,0.110268
 \N,0,1.258485,1.495331,0.323155\H,0,2.264347,1.576428,0.250015\C,0,0.5
 10245,2.742098,0.179032\H,0,1.060687,3.523031,0.703456\H,0,-0.470757,2
 .666442,0.645502\H,0,0.387704,3.027448,-0.868911\C,0,-0.656383,-0.0886
 6,0.187938\Cl,0,-1.369145,0.335016,1.731709\N,0,-1.450606,0.589649,-0.

 Normal termination of Gaussian 16 at Wed Apr  9 00:54:56 2025.
