 Gaussian 16, Revision C.01,

 ----------------------------------------------------------------------
 #t hf aug-cc-pvdz symm=none int=(grid=ultrafine) guess=(read,tcheck) s
 table=(opt,rrhf)
 ----------------------------------------------------------------------
 -----
 title
 -----
 Symbolic Z-matrix:
 Charge =  0 Multiplicity = 1

 SCF Done:  E(RHF) =  -918.376779821     A.U. after   14 cycles
 Normal termination of Gaussian 16 at Wed Apr  9 00:16:19 2025.
 Gaussian 16:  ES64L-G16RevC.01  3-Jul-2019

 ----------------------------------------------------------------------
 #t hf aug-cc-pvdz iop(5/13=1,5/36=2,99/5=2) pseudo=read geom=check gue
 ss=(read,tcheck) scf=(maxcycle=1)
 ----------------------------------------------------------------------
 -----
 title
 -----
 Structure from the checkpoint file:  "BDE49_nonexpt_2508_mol1.chk"
 Charge =  0 Multiplicity = 1

                         Standard orientation:
 ---------------------------------------------------------------------
 Center     Atomic      Atomic             Coordinates (Angstroms)
 Number     Number       Type             X           Y           Z
 ---------------------------------------------------------------------
      1         14           0        1.575401   -2.142341    0.000000
      2         16           0       -0.539737   -1.700903    0.000000
      3          6           0       -0.472589    0.103951    0.000000
      4          6           0       -0.477205    0.804899    1.209229
      5          6           0       -0.477205    2.197928    1.205363
      6          6           0       -0.477205    0.804899   -1.209229
      7          6           0       -0.477205    2.197928   -1.205363
      8          6           0       -0.476154    2.896857   -0.000000
      9          1           0       -0.478029    3.980822   -0.000000
     10          1           0       -0.480875    2.735812    2.146728
     11          1           0       -0.484964    0.258430    2.144371
     12          1           0       -0.484964    0.258430   -2.144371
     13          1           0       -0.480875    2.735812   -2.146728
     14          1           0        1.666161   -3.618926    0.000000
     15          1           0        2.234554   -1.590961    1.204767
     16          1           0        2.234554   -1.590961   -1.204767
 ---------------------------------------------------------------------

 SCF Done:  E(RHF) =  -919.876478671     A.U. after    2 cycles

 The electronic state is 1-A'.
 Alpha  occ. eigenvalues --  -76.24259 -75.67952 -13.15948 -13.08553 -13.06271
 Alpha  occ. eigenvalues --  -11.52142 -11.44621 -11.43726 -11.41828 -11.41191
 Alpha  occ. eigenvalues --  -11.37148  -8.02103  -5.57537  -2.19632  -2.19543
 Alpha  occ. eigenvalues --   -2.19364  -1.35923  -1.16245  -1.09899  -1.03070
 Alpha  occ. eigenvalues --   -0.87214  -0.84493  -0.76219  -0.71183  -0.64280
 Alpha  occ. eigenvalues --   -0.59002  -0.58006  -0.54534  -0.52288  -0.48503
 Alpha  occ. eigenvalues --   -0.48462  -0.45817  -0.40690  -0.38912  -0.33716
 Alpha  occ. eigenvalues --   -0.29611  -0.26398
 Alpha virt. eigenvalues --    0.03144   0.04366   0.04965   0.05031   0.05776
 Alpha virt. eigenvalues --    0.05791   0.06997   0.08361   0.08616   0.08844
 Alpha virt. eigenvalues --    0.09936   0.10585   0.11029   0.11410   0.12516

 Mulliken charges:
               1
     1  Si   6.418903
     2  S   -1.023086
     3  C    2.869796
     4  C   -3.670875
     5  C   -0.780893
     6  C   -3.670875
     7  C   -0.780893
     8  C   -2.381036
     9  H    1.526460
    10  H    1.541306
    11  H    1.828029
    12  H    1.828029
    13  H    1.541306
    14  H   -1.708699
    15  H   -1.768735
    16  H   -1.768735
 Sum of Mulliken charges =   0.00000

 Dipole moment (field-independent basis, Debye):
    X=             -1.5111    Y=              0.6914    Z=             -0.0000  Tot=              1.6618

 Test job not archived.
 1\1\GINC-SE424\SP\RHF\Aug-CC-pVDZ\C6H8S1Si1\OHZDE\09-Apr-2025\0\\#t hf
  aug-cc-pvdz iop(5/13=1,5/36=2,99/5=2) pseudo=read geom=check guess=(r
 ead,tcheck) scf=(maxcycle=1)\\title\\0,1\Si,0,-1.575401,-2.142341,0.\S
 ,0,0.539737,-1.700903,0.\C,0,0.472589,0.103951,0.\C,0,0.477205,0.80489
 9,-1.209229\C,0,0.477205,2.197928,-1.205363\C,0,0.477205,0.804899,1.20
 9229\C,0,0.477205,2.197928,1.205363\C,0,0.476154,2.896857,0.\H,0,0.478
 029,3.980822,0.\H,0,0.480875,2.735812,-2.146728\H,0,0.484964,0.25843,-
 2.144371\H,0,0.484964,0.25843,2.144371\H,0,0.480875,2.735812,2.146728\

 Normal termination of Gaussian 16 at Wed Apr  9 00:16:24 2025.
