 Gaussian 16, Revision C.01,

 ----------------------------------------------------------------------
 #t hf aug-cc-pvdz symm=none int=(grid=ultrafine) guess=(read,tcheck) s
 table=opt
 ----------------------------------------------------------------------
 -----
 title
 -----
 Symbolic Z-matrix:
 Charge =  0 Multiplicity = 2

 SCF Done:  E(UHF) =  -647.069618819     a.u. after   13 cycles

 1\1\GINC-SE344\Stability\UHF\Aug-CC-pVDZ\C1Cl1O2\OHZDE\08-Apr-2025\0\\
 #t hf aug-cc-pvdz symm=none int=(grid=ultrafine) guess=(read,tcheck) s
 table=opt\\title\\0,2\O,0,1.123052,-1.076803,-0.000047\C,0,0.523404,0.
 ,0.000191\O,0,1.123051,1.076804,-0.000047\Cl,0,-1.24172,0.,-0.000024\\
 Version=ES64L-G16RevC.01\HF=-647.0696188\S2=0.762308\S2-1=0.\S2A=0.750
 123\RMSD=1.802e-09\Dipole=-0.4836363,-0.7461246,0.0002196\Quadrupole=0
 .3512233,-1.4388053,1.087582,-1.7739868,0.0005331,-0.0001007\PG=Unknow
 n\\@

 Normal termination of Gaussian 16 at Tue Apr  8 23:20:56 2025.
 Gaussian 16:  ES64L-G16RevC.01  3-Jul-2019

 ----------------------------------------------------------------------
 #t hf aug-cc-pvdz iop(5/13=1,5/36=2,99/5=2) pseudo=read geom=check gue
 ss=(read,tcheck) scf=(maxcycle=1)
 ----------------------------------------------------------------------
 -----
 title
 -----
 Structure from the checkpoint file:  "BDE49_nonexpt_1133_mol2.chk"
 Charge =  0 Multiplicity = 2

                         Standard orientation:
 ---------------------------------------------------------------------
 Center     Atomic      Atomic             Coordinates (Angstroms)
 Number     Number       Type             X           Y           Z
 ---------------------------------------------------------------------
      1          8           0        1.123052   -1.076803   -0.000047
      2          6           0        0.523404   -0.000000    0.000191
      3          8           0        1.123051    1.076804   -0.000047
      4         17           0       -1.241720   -0.000000   -0.000024
 ---------------------------------------------------------------------

 SCF Done:  E(UHF) =  -648.008548972     A.U. after    2 cycles

 The electronic state is 2-A.
 Alpha  occ. eigenvalues --  -99.95327 -21.25062 -21.09632 -11.59232 -10.52663
 Alpha  occ. eigenvalues --   -9.72548  -9.71669  -9.71555  -1.92666  -1.69534
 Alpha  occ. eigenvalues --   -1.36986  -0.87097  -0.73221  -0.67687  -0.65537
 Alpha  occ. eigenvalues --   -0.54971  -0.54663  -0.49763  -0.38317  -0.36258
 Alpha virt. eigenvalues --    0.05024   0.06929   0.09535   0.10538   0.11165
 Alpha virt. eigenvalues --    0.12048   0.14305   0.14930   0.16987   0.19162
 Alpha virt. eigenvalues --    0.21625   0.23496   0.24012   0.26918   0.28222

  Beta  occ. eigenvalues --  -99.95241 -21.21243 -21.09232 -11.59579 -10.52578
  Beta  occ. eigenvalues --   -9.72263  -9.71518  -9.71499  -1.84789  -1.64550
  Beta  occ. eigenvalues --   -1.36037  -0.85334  -0.68432  -0.67104  -0.61467
  Beta  occ. eigenvalues --   -0.53737  -0.52671  -0.36422  -0.36043
  Beta virt. eigenvalues --    0.02417   0.06472   0.07859   0.09722   0.10498
  Beta virt. eigenvalues --    0.11873   0.12346   0.14412   0.14886   0.17608
  Beta virt. eigenvalues --    0.19629   0.21843   0.23619   0.25737   0.28032

 Mulliken charges and spin densities:
               1          2
     1  O   -1.575192   1.099045
     2  C    3.314250  -0.251641
     3  O   -1.821693   0.082660
     4  Cl   0.082636   0.069937
 Sum of Mulliken charges =   0.00000   1.00000

 Dipole moment (field-independent basis, Debye):
    X=              0.8157    Y=             -0.6686    Z=             -0.0001  Tot=              1.0547
                          Isotropic Fermi Contact Couplings
        Atom                 a.u.       MegaHertz       Gauss      10(-4) cm-1
     1  O(17)              0.18672    -113.18651     -40.38776     -37.75496
     2  C(13)             -0.03148     -35.38579     -12.62653     -11.80343
     3  O(17)              0.02196     -13.31246      -4.75022      -4.44056
     4  Cl(35)            -0.01795      -7.87182      -2.80886      -2.62576
 --------------------------------------------------------
       Center         ----  Spin Dipole Couplings  ----
                      3XX-RR        3YY-RR        3ZZ-RR
 --------------------------------------------------------

 Normal termination of Gaussian 16 at Tue Apr  8 23:20:58 2025.
