 Gaussian 16, Revision C.01,

 ----------------------------------------------------------------------
 #t hf aug-cc-pvdz symm=none int=(grid=ultrafine) guess=(read,tcheck) s
 table=(opt,rrhf)
 ----------------------------------------------------------------------
 -----
 title
 -----
 Symbolic Z-matrix:
 Charge =  0 Multiplicity = 1

 SCF Done:  E(RHF) =  -865.271224575     A.U. after   12 cycles
 Normal termination of Gaussian 16 at Wed Apr  9 00:32:24 2025.
 Gaussian 16:  ES64L-G16RevC.01  3-Jul-2019

 ----------------------------------------------------------------------
 #t hf aug-cc-pvdz iop(5/13=1,5/36=2,99/5=2) pseudo=read geom=check gue
 ss=(read,tcheck) scf=(maxcycle=1)
 ----------------------------------------------------------------------
 -----
 title
 -----
 Structure from the checkpoint file:  "BDE49_nonexpt_380_mol1.chk"
 Charge =  0 Multiplicity = 1

                         Standard orientation:
 ---------------------------------------------------------------------
 Center     Atomic      Atomic             Coordinates (Angstroms)
 Number     Number       Type             X           Y           Z
 ---------------------------------------------------------------------
      1          9           0       -1.855866    1.197611    0.083044
      2          9           0       -2.732502   -0.898627   -0.035238
      3          5           0       -1.677118   -0.109836    0.010449
      4         15           0        1.006803    0.011779    0.098738
      5          8           0        1.298810    0.662145    1.371741
      6          8           0        1.959486   -1.195564   -0.302451
      7          1           0        2.326889   -1.638939    0.471429
      8          8           0        1.016944    0.913350   -1.209398
      9          1           0        1.572009    1.695777   -1.108857
     10          8           0       -0.440245   -0.676831   -0.025659
 ---------------------------------------------------------------------

 SCF Done:  E(RHF) =  -867.470878809     A.U. after    2 cycles

 The electronic state is 1-A.
 Alpha  occ. eigenvalues -- -105.35459 -29.27605 -29.27234 -21.14056 -21.13810
 Alpha  occ. eigenvalues --  -21.09301 -21.04739  -7.75432  -2.98782  -2.04192
 Alpha  occ. eigenvalues --   -1.96446  -1.95096  -1.78842  -1.50292  -1.42899
 Alpha  occ. eigenvalues --   -1.28258  -1.08063  -0.81069  -0.72970  -0.63634
 Alpha  occ. eigenvalues --   -0.61961  -0.59895  -0.57577  -0.50417  -0.47982
 Alpha  occ. eigenvalues --   -0.46735  -0.44836  -0.42613  -0.41049  -0.36753
 Alpha  occ. eigenvalues --   -0.35684  -0.34905  -0.30865  -0.28815  -0.25992
 Alpha  occ. eigenvalues --   -0.18088
 Alpha virt. eigenvalues --   -0.00967   0.03545   0.04744   0.05302   0.06342
 Alpha virt. eigenvalues --    0.06596   0.10565   0.11835   0.12526   0.14153
 Alpha virt. eigenvalues --    0.14947   0.19192   0.19798   0.20420   0.20852

 Mulliken charges:
               1
     1  F   -0.893127
     2  F   -0.432588
     3  B    2.559112
     4  P    8.610684
     5  O   -2.679263
     6  O   -2.619687
     7  H    0.810685
     8  O   -2.462439
     9  H    0.840749
    10  O   -3.734125
 Sum of Mulliken charges =  -0.00000

 Dipole moment (field-independent basis, Debye):
    X=             -1.8652    Y=             -0.0353    Z=             -2.1165  Tot=              2.8214

 Test job not archived.
 1\1\GINC-SE322\SP\RHF\Aug-CC-pVDZ\B1F2H2O4P1\OHZDE\09-Apr-2025\0\\#t h
 f aug-cc-pvdz iop(5/13=1,5/36=2,99/5=2) pseudo=read geom=check guess=(
 read,tcheck) scf=(maxcycle=1)\\title\\0,1\F,0,-1.855866,1.197611,0.083
 044\F,0,-2.732502,-0.898627,-0.035238\B,0,-1.677118,-0.109836,0.010449
 \P,0,1.006803,0.011779,0.098738\O,0,1.29881,0.662145,1.371741\O,0,1.95
 9486,-1.195564,-0.302451\H,0,2.326889,-1.638939,0.471429\O,0,1.016944,
 0.91335,-1.209398\H,0,1.572009,1.695777,-1.108857\O,0,-0.440245,-0.676
 831,-0.025659\\Version=ES64L-G16RevC.01\State=1-A\HF=-867.4708788\RMSD

 Normal termination of Gaussian 16 at Wed Apr  9 00:32:29 2025.
