 Gaussian 16, Revision C.01,

 ----------------------------------------------------------------------
 #t hf aug-cc-pvdz symm=none int=(grid=ultrafine) guess=(read,tcheck) s
 table=(opt,rrhf)
 ----------------------------------------------------------------------
 -----
 title
 -----
 Symbolic Z-matrix:
 Charge =  0 Multiplicity = 1

 SCF Done:  E(RHF) =  -432.150146607     A.U. after   16 cycles
 Normal termination of Gaussian 16 at Tue Apr  8 22:40:41 2025.
 Gaussian 16:  ES64L-G16RevC.01  3-Jul-2019

 ----------------------------------------------------------------------
 #t hf aug-cc-pvdz iop(5/13=1,5/36=2,99/5=2) pseudo=read geom=check gue
 ss=(read,tcheck) scf=(maxcycle=1)
 ----------------------------------------------------------------------
 -----
 title
 -----
 Structure from the checkpoint file:  "BDE49_expt_1274_mol1.chk"
 Charge =  0 Multiplicity = 1

                         Standard orientation:
 ---------------------------------------------------------------------
 Center     Atomic      Atomic             Coordinates (Angstroms)
 Number     Number       Type             X           Y           Z
 ---------------------------------------------------------------------
      1          8           0        0.698917   -1.071050   -0.000045
      2          6           0        2.008754   -0.716127    0.000004
      3          6           0        0.002958    0.085568   -0.000069
      4          6           0        2.143889    0.641181    0.000021
      5          6           0        0.822570    1.173561   -0.000029
      6          1           0        3.070155    1.192521    0.000061
      7          1           0        2.710654   -1.532623    0.000024
      8          1           0        0.507454    2.202931   -0.000036
      9          7           0       -1.430548   -0.002895   -0.000126
     10          8           0       -2.030793    1.068079    0.000115
     11          8           0       -1.936056   -1.115487    0.000090
 ---------------------------------------------------------------------

 SCF Done:  E(RHF) =  -434.011008292     A.U. after    2 cycles

 The electronic state is 1-A.
 Alpha  occ. eigenvalues --  -21.16116 -21.10252 -21.09560 -16.01443 -11.53481
 Alpha  occ. eigenvalues --  -11.49266 -11.47742 -11.41758  -2.00965  -1.88934
 Alpha  occ. eigenvalues --   -1.69662  -1.25004  -1.18332  -0.99563  -0.85304
 Alpha  occ. eigenvalues --   -0.79868  -0.76160  -0.70149  -0.65364  -0.62870
 Alpha  occ. eigenvalues --   -0.59688  -0.57109  -0.55550  -0.47636  -0.37595
 Alpha  occ. eigenvalues --   -0.36322  -0.35628  -0.31821  -0.31648
 Alpha virt. eigenvalues --    0.02733   0.04291   0.05182   0.08002   0.09111
 Alpha virt. eigenvalues --    0.10417   0.10533   0.11038   0.12610   0.12886
 Alpha virt. eigenvalues --    0.13801   0.13924   0.14231   0.14885   0.15143

 Mulliken charges:
               1
     1  O   -3.630331
     2  C    0.163181
     3  C    3.881726
     4  C   -0.463434
     5  C   -1.725687
     6  H    1.303231
     7  H    1.493442
     8  H    1.454161
     9  N    3.101994
    10  O   -2.785481
    11  O   -2.792803
 Sum of Mulliken charges =  -0.00000

 Dipole moment (field-independent basis, Debye):
    X=              3.2512    Y=              0.0374    Z=              0.0002  Tot=              3.2514

 Test job not archived.
 1\1\GINC-SE058\SP\RHF\Aug-CC-pVDZ\C4H3N1O3\OHZDE\08-Apr-2025\0\\#t hf
 aug-cc-pvdz iop(5/13=1,5/36=2,99/5=2) pseudo=read geom=check guess=(re
 ad,tcheck) scf=(maxcycle=1)\\title\\0,1\O,0,0.698917,-1.07105,-0.00004
 5\C,0,2.008754,-0.716127,0.000004\C,0,0.002958,0.085568,-0.000069\C,0,
 2.143889,0.641181,0.000021\C,0,0.82257,1.173561,-0.000029\H,0,3.070155
 ,1.192521,0.000061\H,0,2.710654,-1.532623,0.000024\H,0,0.507454,2.2029
 31,-0.000036\N,0,-1.430548,-0.002895,-0.000126\O,0,-2.030793,1.068079,
 0.000115\O,0,-1.936056,-1.115487,0.00009\\Version=ES64L-G16RevC.01\Sta

 Normal termination of Gaussian 16 at Tue Apr  8 22:40:46 2025.
