 Gaussian 16, Revision C.01,

 ----------------------------------------------------------------------
 #t hf aug-cc-pvdz symm=none int=(grid=ultrafine) guess=(read,tcheck) s
 table=(opt,rrhf)
 ----------------------------------------------------------------------
 -----
 title
 -----
 Symbolic Z-matrix:
 Charge =  0 Multiplicity = 1

 SCF Done:  E(RHF) =  -1010.70090527     A.U. after   16 cycles
 Normal termination of Gaussian 16 at Tue Apr  8 22:59:16 2025.
 Gaussian 16:  ES64L-G16RevC.01  3-Jul-2019

 ----------------------------------------------------------------------
 #t hf aug-cc-pvdz iop(5/13=1,5/36=2,99/5=2) pseudo=read geom=check gue
 ss=(read,tcheck) scf=(maxcycle=1)
 ----------------------------------------------------------------------
 -----
 title
 -----
 Structure from the checkpoint file:  "BDE49_expt_1588_mol1.chk"
 Charge =  0 Multiplicity = 1

                         Standard orientation:
 ---------------------------------------------------------------------
 Center     Atomic      Atomic             Coordinates (Angstroms)
 Number     Number       Type             X           Y           Z
 ---------------------------------------------------------------------
      1          6           0        2.606478    0.884411   -0.448090
      2          6           0        1.262762    0.627419   -0.722424
      3          6           0        3.415221   -0.133508    0.064815
      4          6           0        2.866915   -1.402920    0.294227
      5          6           0        1.532034   -1.646349    0.016634
      6          6           0        0.705824   -0.631485   -0.491735
      7          1           0        0.638879    1.415496   -1.125572
      8          1           0        3.005655    1.871036   -0.641345
      9          8           0        4.735787    0.002859    0.366847
     10          1           0        3.513172   -2.180533    0.683203
     11          1           0        1.117757   -2.633565    0.184314
     12         16           0       -1.008400   -0.956164   -0.877497
     13          6           0       -1.836502   -0.574863    0.789640
     14          6           0       -3.210843   -1.169571    0.775022
     15          6           0       -1.830180    0.879238    1.151096
     16          1           0       -1.225091   -1.120341    1.507530
     17          6           0       -2.588867    1.850498    0.601499
     18          6           0       -4.281039   -0.676629    0.118845
     19          6           0       -4.390770    0.581910   -0.579235
     20          6           0       -3.650682    1.698535   -0.360660
     21          1           0       -3.322904   -2.114286    1.298444
     22          1           0       -5.179789   -1.288518    0.118356
     23          1           0       -1.111803    1.169653    1.912101
     24          1           0       -2.385712    2.870813    0.917620
     25          1           0       -5.219056    0.663492   -1.277243
     26          1           0       -3.939128    2.598086   -0.897027
     27          6           0        5.357084    1.261682    0.146101
     28          1           0        5.321847    1.547011   -0.911092
     29          1           0        6.394943    1.137586    0.450473
     30          1           0        4.894722    2.049620    0.750999
 ---------------------------------------------------------------------

 SCF Done:  E(RHF) =  -1013.84205948     A.U. after    2 cycles

 The electronic state is 1-A.
 Alpha  occ. eigenvalues --  -75.67101 -21.07852 -13.19078 -13.10171 -13.07282
 Alpha  occ. eigenvalues --  -11.53346 -11.48089 -11.46781 -11.46374 -11.44187
 Alpha  occ. eigenvalues --  -11.43460 -11.42995 -11.42778 -11.41825 -11.40847
 Alpha  occ. eigenvalues --  -11.40684 -11.40139 -11.36934 -11.36867  -8.01016
 Alpha  occ. eigenvalues --   -1.79223  -1.35086  -1.31134  -1.18079  -1.13811
 Alpha  occ. eigenvalues --   -1.11220  -1.09962  -1.03404  -0.97758  -0.92638
 Alpha  occ. eigenvalues --   -0.91106  -0.87733  -0.81694  -0.73268  -0.71447
 Alpha  occ. eigenvalues --   -0.71174  -0.69096  -0.64575  -0.63493  -0.62781
 Alpha  occ. eigenvalues --   -0.61859  -0.61547  -0.58868  -0.57777  -0.53973
 Alpha  occ. eigenvalues --   -0.52957  -0.51465  -0.50698  -0.49702  -0.47444
 Alpha  occ. eigenvalues --   -0.46367  -0.45562  -0.43268  -0.40277  -0.39274
 Alpha  occ. eigenvalues --   -0.36384  -0.35208  -0.33669  -0.28021  -0.24351
 Alpha  occ. eigenvalues --   -0.22073
 Alpha virt. eigenvalues --    0.03157   0.04377   0.04846   0.04967   0.05275
 Alpha virt. eigenvalues --    0.05551   0.05892   0.06172   0.06352   0.06685
 Alpha virt. eigenvalues --    0.07299   0.07566   0.08243   0.08821   0.09062

 Mulliken charges:
               1
     1  C   -3.326933
     2  C   -2.431208
     3  C    4.803373
     4  C   -4.127785
     5  C   -2.509325
     6  C    3.327530
     7  H    1.992017
     8  H    1.916218
     9  O   -4.754625
    10  H    1.997093
    11  H    1.961574
    12  S    0.208683
    13  C    0.667251
    14  C   -2.443272
    15  C   -2.613115
    16  H    1.491700
    17  C   -1.548856
    18  C   -0.779210
    19  C   -1.611138
    20  C   -0.888135
    21  H    1.261601
    22  H    1.418214
    23  H    1.350752
    24  H    1.437217
    25  H    1.383384
    26  H    1.411480
    27  C   -3.828686
    28  H    1.418358
    29  H    1.407598
    30  H    1.408248
 Sum of Mulliken charges =   0.00000

 Dipole moment (field-independent basis, Debye):
    X=              1.3583    Y=              0.6620    Z=             -0.1500  Tot=              1.5185

 Test job not archived.
 1\1\GINC-SE099\SP\RHF\Aug-CC-pVDZ\C14H14O1S1\OHZDE\08-Apr-2025\0\\#t h
 f aug-cc-pvdz iop(5/13=1,5/36=2,99/5=2) pseudo=read geom=check guess=(
 read,tcheck) scf=(maxcycle=1)\\title\\0,1\C,0,2.606478,0.884411,-0.448
 09\C,0,1.262762,0.627419,-0.722424\C,0,3.415221,-0.133508,0.064815\C,0
 ,2.866915,-1.40292,0.294227\C,0,1.532034,-1.646349,0.016634\C,0,0.7058
 24,-0.631485,-0.491735\H,0,0.638879,1.415496,-1.125572\H,0,3.005655,1.
 871036,-0.641345\O,0,4.735787,0.002859,0.366847\H,0,3.513172,-2.180533
 ,0.683203\H,0,1.117757,-2.633565,0.184314\S,0,-1.0084,-0.956164,-0.877

 Normal termination of Gaussian 16 at Tue Apr  8 22:59:55 2025.
