 Gaussian 16, Revision C.01,

 ----------------------------------------------------------------------
 #t hf aug-cc-pvdz symm=none int=(grid=ultrafine) guess=(read,tcheck) s
 table=(opt,rrhf)
 ----------------------------------------------------------------------
 -----
 title
 -----
 Symbolic Z-matrix:
 Charge =  0 Multiplicity = 1

 SCF Done:  E(RHF) =  -396.604949313     A.U. after   15 cycles
 Normal termination of Gaussian 16 at Tue Apr  8 22:53:59 2025.
 Gaussian 16:  ES64L-G16RevC.01  3-Jul-2019

 ----------------------------------------------------------------------
 #t hf aug-cc-pvdz iop(5/13=1,5/36=2,99/5=2) pseudo=read geom=check gue
 ss=(read,tcheck) scf=(maxcycle=1)
 ----------------------------------------------------------------------
 -----
 title
 -----
 Structure from the checkpoint file:  "BDE49_expt_1791_mol1.chk"
 Charge =  0 Multiplicity = 1

                         Standard orientation:
 ---------------------------------------------------------------------
 Center     Atomic      Atomic             Coordinates (Angstroms)
 Number     Number       Type             X           Y           Z
 ---------------------------------------------------------------------
      1          6           0        0.646538    0.829308   -0.086759
      2          8           0       -0.209667   -0.321920   -0.305607
      3          7           0       -1.573203   -0.109366    0.022368
      4          8           0       -1.883035    0.984103    0.432077
      5          8           0       -2.251046   -1.080032   -0.163175
      6          6           0        2.055498    0.380253   -0.443758
      7          1           0        0.570329    1.137973    0.958623
      8          1           0        0.307312    1.650162   -0.721865
      9          6           0        2.609467   -0.713203    0.473499
     10          1           0        2.691533    1.270978   -0.396182
     11          1           0        2.065099    0.045444   -1.485453
     12          1           0        2.640909   -0.376151    1.514042
     13          1           0        3.625931   -0.985861    0.180814
     14          1           0        1.992273   -1.612346    0.429189
 ---------------------------------------------------------------------

 SCF Done:  E(RHF) =  -398.355557434     A.U. after    2 cycles

 The electronic state is 1-A.
 Alpha  occ. eigenvalues --  -21.13541 -21.12183 -21.11977 -16.05551 -11.47274
 Alpha  occ. eigenvalues --  -11.41646 -11.37278  -2.08165  -1.76189  -1.73543
 Alpha  occ. eigenvalues --   -1.21417  -1.03282  -0.91618  -0.84714  -0.74049
 Alpha  occ. eigenvalues --   -0.73158  -0.66770  -0.65267  -0.62094  -0.58684
 Alpha  occ. eigenvalues --   -0.52375  -0.49471  -0.49259  -0.46497  -0.37663
 Alpha  occ. eigenvalues --   -0.36756  -0.33837  -0.32457
 Alpha virt. eigenvalues --    0.03468   0.04929   0.05346   0.05596   0.05757
 Alpha virt. eigenvalues --    0.06925   0.07399   0.10177   0.11682   0.13304
 Alpha virt. eigenvalues --    0.13535   0.14634   0.15177   0.15494   0.16260

 Mulliken charges:
               1
     1  C   -1.756232
     2  O   -2.693578
     3  N    6.629216
     4  O   -2.683765
     5  O   -2.801020
     6  C   -2.986323
     7  H    1.767026
     8  H    1.571097
     9  C   -3.587255
    10  H    1.267352
    11  H    1.430215
    12  H    1.285279
    13  H    1.153362
    14  H    1.404626
 Sum of Mulliken charges =  -0.00000

 Dipole moment (field-independent basis, Debye):
    X=              2.7707    Y=              0.6552    Z=             -0.2511  Tot=              2.8582

 Test job not archived.
 1\1\GINC-SE457\SP\RHF\Aug-CC-pVDZ\C3H7N1O3\OHZDE\08-Apr-2025\0\\#t hf
 aug-cc-pvdz iop(5/13=1,5/36=2,99/5=2) pseudo=read geom=check guess=(re
 ad,tcheck) scf=(maxcycle=1)\\title\\0,1\C,0,0.646538,0.829308,-0.08675
 9\O,0,-0.209667,-0.32192,-0.305607\N,0,-1.573203,-0.109366,0.022368\O,
 0,-1.883035,0.984103,0.432077\O,0,-2.251046,-1.080032,-0.163175\C,0,2.
 055498,0.380253,-0.443758\H,0,0.570329,1.137973,0.958623\H,0,0.307312,
 1.650162,-0.721865\C,0,2.609467,-0.713203,0.473499\H,0,2.691533,1.2709
 78,-0.396182\H,0,2.065099,0.045444,-1.485453\H,0,2.640909,-0.376151,1.

 Normal termination of Gaussian 16 at Tue Apr  8 22:54:03 2025.
