 Gaussian 16, Revision C.01,

 ----------------------------------------------------------------------
 #t hf aug-cc-pvdz symm=none int=(grid=ultrafine) guess=(read,tcheck) s
 table=(opt,rrhf)
 ----------------------------------------------------------------------
 -----
 title
 -----
 Symbolic Z-matrix:
 Charge =  0 Multiplicity = 1

 SCF Done:  E(RHF) =  -135.287434052     A.U. after   13 cycles
 Normal termination of Gaussian 16 at Wed Apr  9 00:36:47 2025.
 Gaussian 16:  ES64L-G16RevC.01  3-Jul-2019

 ----------------------------------------------------------------------
 #t hf aug-cc-pvdz iop(5/13=1,5/36=2,99/5=2) pseudo=read geom=check gue
 ss=(read,tcheck) scf=(maxcycle=1)
 ----------------------------------------------------------------------
 -----
 title
 -----
 Structure from the checkpoint file:  "BDE49_nonexpt_522_mol1.chk"
 Charge =  0 Multiplicity = 1

                         Standard orientation:
 ---------------------------------------------------------------------
 Center     Atomic      Atomic             Coordinates (Angstroms)
 Number     Number       Type             X           Y           Z
 ---------------------------------------------------------------------
      1          1           0       -1.878972   -1.053742    0.017894
      2          5           0       -1.327677    0.000229    0.004586
      3          1           0       -1.877536    1.054960    0.018025
      4          7           0        0.020719   -0.000603    0.024527
      5          7           0        1.220777    0.000234   -0.143934
      6          1           0        1.704419    0.000224    0.777002
 ---------------------------------------------------------------------

 SCF Done:  E(RHF) =  -135.903406325     A.U. after    2 cycles

 The electronic state is 1-A.
 Alpha  occ. eigenvalues --  -15.83514 -15.79333  -7.62744  -1.54514  -1.12525
 Alpha  occ. eigenvalues --   -0.78678  -0.63407  -0.58728  -0.57331  -0.44897
 Alpha  occ. eigenvalues --   -0.34824
 Alpha virt. eigenvalues --    0.03327   0.03773   0.04587   0.05202   0.08438
 Alpha virt. eigenvalues --    0.10583   0.11004   0.12484   0.14495   0.15758
 Alpha virt. eigenvalues --    0.18705   0.20307   0.20950   0.21904   0.23184

 Mulliken charges:
               1
     1  H   -2.566239
     2  B    6.318846
     3  H   -2.566206
     4  N   -2.637516
     5  N    0.638294
     6  H    0.812821
 Sum of Mulliken charges =  -0.00000

 Dipole moment (field-independent basis, Debye):
    X=              0.8255    Y=              0.0000    Z=              1.0333  Tot=              1.3225

 Test job not archived.
 1\1\GINC-SE090\SP\RHF\Aug-CC-pVDZ\B1H3N2\OHZDE\09-Apr-2025\0\\#t hf au
 g-cc-pvdz iop(5/13=1,5/36=2,99/5=2) pseudo=read geom=check guess=(read
 ,tcheck) scf=(maxcycle=1)\\title\\0,1\H,0,-1.878972,-1.053742,0.017894
 \B,0,-1.327677,0.000229,0.004586\H,0,-1.877536,1.05496,0.018025\N,0,0.
 020719,-0.000603,0.024527\N,0,1.220777,0.000234,-0.143934\H,0,1.704419
 ,0.000224,0.777002\\Version=ES64L-G16RevC.01\State=1-A\HF=-135.9034063
 \RMSD=3.000e-01\Dipole=0.3247923,0.0000008,0.4065133\Quadrupole=-0.311
 3166,-0.1706725,0.4819892,-0.0001222,1.9480376,0.0005083\PG=C01 [X(B1H

 Normal termination of Gaussian 16 at Wed Apr  9 00:36:48 2025.
