 Gaussian 16, Revision C.01,

 ----------------------------------------------------------------------
 #t hf aug-cc-pvdz symm=none int=(grid=ultrafine) guess=(read,tcheck) s
 table=(opt,rrhf)
 ----------------------------------------------------------------------
 -----
 title
 -----
 Symbolic Z-matrix:
 Charge =  0 Multiplicity = 1

 SCF Done:  E(RHF) =  -626.582175336     A.U. after   14 cycles
 Normal termination of Gaussian 16 at Tue Apr  8 23:18:48 2025.
 Gaussian 16:  ES64L-G16RevC.01  3-Jul-2019

 ----------------------------------------------------------------------
 #t hf aug-cc-pvdz iop(5/13=1,5/36=2,99/5=2) pseudo=read geom=check gue
 ss=(read,tcheck) scf=(maxcycle=1)
 ----------------------------------------------------------------------
 -----
 title
 -----
 Structure from the checkpoint file:  "BDE49_nonexpt_1051_mol1.chk"
 Charge =  0 Multiplicity = 1

                         Standard orientation:
 ---------------------------------------------------------------------
 Center     Atomic      Atomic             Coordinates (Angstroms)
 Number     Number       Type             X           Y           Z
 ---------------------------------------------------------------------
      1         17           0       -1.335747   -0.400181    0.000000
      2          8           0        0.000000    0.798017    0.000000
      3          6           0        1.161570    0.250466    0.000000
      4          7           0        2.248327   -0.154837    0.000000
 ---------------------------------------------------------------------

 SCF Done:  E(RHF) =  -627.507904905     A.U. after    2 cycles

 The electronic state is 1-A'.
 Alpha  occ. eigenvalues -- -100.01200 -21.22287 -15.78451 -11.50030 -10.57691
 Alpha  occ. eigenvalues --   -9.77444  -9.76723  -9.76623  -1.87900  -1.33842
 Alpha  occ. eigenvalues --   -1.29030  -0.78838  -0.68152  -0.66082  -0.57819
 Alpha  occ. eigenvalues --   -0.56043  -0.53283  -0.45432  -0.38355
 Alpha virt. eigenvalues --   -0.04219   0.05150   0.09587   0.10144   0.10195
 Alpha virt. eigenvalues --    0.12517   0.13586   0.14110   0.17567   0.18974
 Alpha virt. eigenvalues --    0.19192   0.20153   0.21136   0.23483   0.25143

 Mulliken charges:
               1
     1  Cl   0.551787
     2  O   -1.853707
     3  C    3.481623
     4  N   -2.179703
 Sum of Mulliken charges =  -0.00000

 Dipole moment (field-independent basis, Debye):
    X=             -1.3175    Y=              1.2330    Z=              0.0000  Tot=              1.8044

 Test job not archived.
 1\1\GINC-SE184\SP\RHF\Aug-CC-pVDZ\C1Cl1N1O1\OHZDE\08-Apr-2025\0\\#t hf
  aug-cc-pvdz iop(5/13=1,5/36=2,99/5=2) pseudo=read geom=check guess=(r
 ead,tcheck) scf=(maxcycle=1)\\title\\0,1\Cl,0,-1.335747,-0.400181,0.\O
 ,0,0.,0.798017,0.\C,0,1.16157,0.250466,0.\N,0,2.248327,-0.154836,0.\\V
 ersion=ES64L-G16RevC.01\State=1-A'\HF=-627.5079049\RMSD=4.200e-02\Dipo
 le=-0.5183286,0.4850891,0.\Quadrupole=-2.4887983,2.0406429,0.4481553,1
 .7443899,0.,0.\PG=CS [SG(C1Cl1N1O1)]\\@

 Normal termination of Gaussian 16 at Tue Apr  8 23:18:50 2025.
