 Gaussian 16, Revision C.01,

 ----------------------------------------------------------------------
 #t hf aug-cc-pvdz symm=none int=(grid=ultrafine) guess=(read,tcheck) s
 table=(opt,rrhf)
 ----------------------------------------------------------------------
 -----
 title
 -----
 Symbolic Z-matrix:
 Charge =  0 Multiplicity = 1

 SCF Done:  E(RHF) =  -1181.17202721     A.U. after   13 cycles
 Normal termination of Gaussian 16 at Wed Apr  9 00:32:16 2025.
 Gaussian 16:  ES64L-G16RevC.01  3-Jul-2019

 ----------------------------------------------------------------------
 #t hf aug-cc-pvdz iop(5/13=1,5/36=2,99/5=2) pseudo=read geom=check gue
 ss=(read,tcheck) scf=(maxcycle=1)
 ----------------------------------------------------------------------
 -----
 title
 -----
 Structure from the checkpoint file:  "BDE49_nonexpt_364_mol1.chk"
 Charge =  0 Multiplicity = 1

                         Standard orientation:
 ---------------------------------------------------------------------
 Center     Atomic      Atomic             Coordinates (Angstroms)
 Number     Number       Type             X           Y           Z
 ---------------------------------------------------------------------
      1          9           0       -2.214458    0.071984   -0.816892
      2          9           0       -1.437126   -0.670607    1.177348
      3          5           0       -1.194282   -0.202924   -0.025798
      4          6           0        0.277099    0.056177   -0.539236
      5         17           0        1.385319   -1.283667   -0.106798
      6         17           0        0.780706    1.628784    0.208731
      7          1           0        0.350649    0.198177   -1.612566
 ---------------------------------------------------------------------

 SCF Done:  E(RHF) =  -1182.62282741     A.U. after    2 cycles

 The electronic state is 1-A.
 Alpha  occ. eigenvalues --  -99.91972 -99.91731 -29.28388 -29.27864 -11.48628
 Alpha  occ. eigenvalues --  -10.49226 -10.48962  -9.69063  -9.68859  -9.68366
 Alpha  occ. eigenvalues --   -9.68294  -9.68094  -9.68029  -7.73491  -1.42569
 Alpha  occ. eigenvalues --   -1.30245  -1.18741  -0.97978  -0.80102  -0.70878
 Alpha  occ. eigenvalues --   -0.67713  -0.66827  -0.55741  -0.53308  -0.51360
 Alpha  occ. eigenvalues --   -0.51022  -0.50583  -0.48656  -0.46653  -0.36439
 Alpha  occ. eigenvalues --   -0.35525  -0.29443
 Alpha virt. eigenvalues --    0.00833   0.03868   0.04239   0.04902   0.06820
 Alpha virt. eigenvalues --    0.07215   0.08313   0.11304   0.13132   0.13366
 Alpha virt. eigenvalues --    0.14455   0.14967   0.15490   0.16303   0.17403

 Mulliken charges:
               1
     1  F   -0.372338
     2  F   -0.238553
     3  B    2.256073
     4  C   -3.603698
     5  Cl   0.032247
     6  Cl   0.105921
     7  H    1.820347
 Sum of Mulliken charges =  -0.00000

 Dipole moment (field-independent basis, Debye):
    X=             -3.8695    Y=             -0.5612    Z=             -0.1271  Tot=              3.9120

 Test job not archived.
 1\1\GINC-SE159\SP\RHF\Aug-CC-pVDZ\C1H1B1Cl2F2\OHZDE\09-Apr-2025\0\\#t
 hf aug-cc-pvdz iop(5/13=1,5/36=2,99/5=2) pseudo=read geom=check guess=
 (read,tcheck) scf=(maxcycle=1)\\title\\0,1\F,0,-2.214458,0.071985,-0.8
 16892\F,0,-1.437126,-0.670606,1.177348\B,0,-1.194282,-0.202924,-0.0257
 98\C,0,0.277099,0.056177,-0.539236\Cl,0,1.385319,-1.283667,-0.106798\C
 l,0,0.780706,1.628784,0.208731\H,0,0.350649,0.198177,-1.612566\\Versio
 n=ES64L-G16RevC.01\State=1-A\HF=-1182.6228274\RMSD=2.446e-01\Dipole=-1
 .5223665,-0.2207823,-0.050009\Quadrupole=1.0706354,-2.9809585,1.910323

 Normal termination of Gaussian 16 at Wed Apr  9 00:32:19 2025.
