 Gaussian 16, Revision C.01,

 ----------------------------------------------------------------------
 #t hf aug-cc-pvdz symm=none int=(grid=ultrafine) guess=(read,tcheck) s
 table=(opt,rrhf)
 ----------------------------------------------------------------------
 -----
 title
 -----
 Symbolic Z-matrix:
 Charge =  0 Multiplicity = 1

 SCF Done:  E(RHF) =  -987.161488856     A.U. after   11 cycles
 Normal termination of Gaussian 16 at Tue Apr  8 23:46:15 2025.
 Gaussian 16:  ES64L-G16RevC.01  3-Jul-2019

 ----------------------------------------------------------------------
 #t hf aug-cc-pvdz iop(5/13=1,5/36=2,99/5=2) pseudo=read geom=check gue
 ss=(read,tcheck) scf=(maxcycle=1)
 ----------------------------------------------------------------------
 -----
 title
 -----
 Structure from the checkpoint file:  "BDE49_nonexpt_1757_mol1.chk"
 Charge =  0 Multiplicity = 1

                         Standard orientation:
 ---------------------------------------------------------------------
 Center     Atomic      Atomic             Coordinates (Angstroms)
 Number     Number       Type             X           Y           Z
 ---------------------------------------------------------------------
      1         14           0       -0.324797   -0.076975    0.000001
      2          6           0       -1.292083    1.486659    0.000001
      3         17           0        1.701018    0.238508   -0.000004
      4          9           0       -0.674172   -0.962523   -1.275611
      5          9           0       -0.674167   -0.962520    1.275616
      6          1           0       -2.362743    1.265101    0.000010
      7          1           0       -1.059930    2.081673   -0.886302
      8          1           0       -1.059916    2.081682    0.886294
 ---------------------------------------------------------------------

 SCF Done:  E(RHF) =  -988.441998557     A.U. after    2 cycles

 The electronic state is 1-A.
 Alpha  occ. eigenvalues --  -99.90226 -76.31844 -29.29130 -29.29130 -11.38265
 Alpha  occ. eigenvalues --  -10.47761  -9.67621  -9.67005  -9.66929  -5.67761
 Alpha  occ. eigenvalues --   -2.32115  -2.30997  -2.28710  -1.31626  -1.09142
 Alpha  occ. eigenvalues --   -0.91651  -0.71958  -0.64192  -0.59072  -0.58785
 Alpha  occ. eigenvalues --   -0.57585  -0.55293  -0.50371  -0.42390  -0.37852
 Alpha  occ. eigenvalues --   -0.35533  -0.34714  -0.34162  -0.29365
 Alpha virt. eigenvalues --    0.03233   0.05875   0.06108   0.06666   0.07676
 Alpha virt. eigenvalues --    0.09065   0.11446   0.13463   0.14254   0.14545
 Alpha virt. eigenvalues --    0.15159   0.17470   0.17529   0.18788   0.19345

 Mulliken charges:
               1
     1  Si   3.940110
     2  C   -4.826514
     3  Cl  -0.902561
     4  F   -0.824463
     5  F   -0.824464
     6  H    1.177076
     7  H    1.130409
     8  H    1.130408
 Sum of Mulliken charges =  -0.00000

 Dipole moment (field-independent basis, Debye):
    X=             -2.6260    Y=             -1.6940    Z=              0.0000  Tot=              3.1250

 Test job not archived.
 1\1\GINC-SE396\SP\RHF\Aug-CC-pVDZ\C1H3Cl1F2Si1\OHZDE\08-Apr-2025\0\\#t
  hf aug-cc-pvdz iop(5/13=1,5/36=2,99/5=2) pseudo=read geom=check guess
 =(read,tcheck) scf=(maxcycle=1)\\title\\0,1\Si,0,-0.324797,-0.076975,0
 .000001\C,0,-1.292082,1.48666,0.000001\Cl,0,1.701018,0.238507,-0.00000
 4\F,0,-0.674172,-0.962523,-1.275611\F,0,-0.674167,-0.96252,1.275616\H,
 0,-2.362742,1.265102,0.00001\H,0,-1.059929,2.081673,-0.886302\H,0,-1.0
 59915,2.081682,0.886294\\Version=ES64L-G16RevC.01\State=1-A\HF=-988.44
 19986\RMSD=5.576e-02\Dipole=-1.0331343,-0.6664807,0.0000037\Quadrupole

 Normal termination of Gaussian 16 at Tue Apr  8 23:46:17 2025.
