 Gaussian 16, Revision C.01,

 ----------------------------------------------------------------------
 #t hf aug-cc-pvdz symm=none int=(grid=ultrafine) guess=(read,tcheck) s
 table=(opt,rrhf)
 ----------------------------------------------------------------------
 -----
 title
 -----
 Symbolic Z-matrix:
 Charge =  0 Multiplicity = 1

 SCF Done:  E(RHF) =  -1644.44365811     A.U. after   15 cycles
 Normal termination of Gaussian 16 at Tue Apr  8 22:41:50 2025.
 Gaussian 16:  ES64L-G16RevC.01  3-Jul-2019

 ----------------------------------------------------------------------
 #t hf aug-cc-pvdz iop(5/13=1,5/36=2,99/5=2) pseudo=read geom=check gue
 ss=(read,tcheck) scf=(maxcycle=1)
 ----------------------------------------------------------------------
 -----
 title
 -----
 Structure from the checkpoint file:  "BDE49_expt_1344_mol1.chk"
 Charge =  0 Multiplicity = 1

                         Standard orientation:
 ---------------------------------------------------------------------
 Center     Atomic      Atomic             Coordinates (Angstroms)
 Number     Number       Type             X           Y           Z
 ---------------------------------------------------------------------
      1          6           0       -0.706378    0.745612    0.104714
      2          6           0       -0.716920   -0.746462    0.095445
      3          6           0        0.539007    1.184873    0.295745
      4          6           0        1.442289   -0.023122    0.430698
      5          6           0        0.520762   -1.206771    0.286551
      6          8           0        2.186543   -0.113961    1.584087
      7          1           0        2.710921    0.690011    1.684267
      8          1           0        0.860523   -2.227860    0.347335
      9          1           0        0.887433    2.205154    0.338287
     10         17           0        2.600964    0.007291   -1.059046
     11         17           0       -2.148580   -1.674559   -0.135407
     12         17           0       -2.124371    1.697832   -0.118577
 ---------------------------------------------------------------------

 SCF Done:  E(RHF) =  -1646.38270466     A.U. after    2 cycles

 The electronic state is 1-A.
 Alpha  occ. eigenvalues --  -99.92187 -99.92003 -99.88853 -21.12577 -11.56653
 Alpha  occ. eigenvalues --  -11.52267 -11.48833 -11.45213 -11.41840 -10.49594
 Alpha  occ. eigenvalues --  -10.49414 -10.46020  -9.69776  -9.69452  -9.68648
 Alpha  occ. eigenvalues --   -9.68505  -9.68422  -9.68319  -9.65991  -9.65331
 Alpha  occ. eigenvalues --   -9.65217  -1.79049  -1.45311  -1.34891  -1.31771
 Alpha  occ. eigenvalues --   -1.24715  -1.07871  -1.00206  -0.84307  -0.82234
 Alpha  occ. eigenvalues --   -0.74321  -0.69011  -0.63772  -0.62614  -0.60594
 Alpha  occ. eigenvalues --   -0.59702  -0.58478  -0.56867  -0.53737  -0.52776
 Alpha  occ. eigenvalues --   -0.49898  -0.48288  -0.44953  -0.43629  -0.37594
 Alpha  occ. eigenvalues --   -0.34027
 Alpha virt. eigenvalues --    0.02864   0.03564   0.05377   0.06203   0.06743
 Alpha virt. eigenvalues --    0.07496   0.08862   0.09467   0.10357   0.10874
 Alpha virt. eigenvalues --    0.11301   0.12099   0.13056   0.13523   0.13908

 Mulliken charges:
               1
     1  C    0.434258
     2  C    0.696246
     3  C   -0.310965
     4  C   -0.304827
     5  C   -0.609331
     6  O   -3.347023
     7  H    0.829788
     8  H    1.617637
     9  H    1.569793
    10  Cl  -0.118457
    11  Cl  -0.221738
    12  Cl  -0.235381
 Sum of Mulliken charges =   0.00000

 Dipole moment (field-independent basis, Debye):
    X=              1.0745    Y=              0.3985    Z=              2.5161  Tot=              2.7648

 Test job not archived.
 1\1\GINC-SE454\SP\RHF\Aug-CC-pVDZ\C5H3Cl3O1\OHZDE\08-Apr-2025\0\\#t hf
  aug-cc-pvdz iop(5/13=1,5/36=2,99/5=2) pseudo=read geom=check guess=(r
 ead,tcheck) scf=(maxcycle=1)\\title\\0,1\C,0,-0.706378,0.745612,0.1047
 14\C,0,-0.71692,-0.746462,0.095445\C,0,0.539007,1.184873,0.295745\C,0,
 1.442289,-0.023122,0.430698\C,0,0.520762,-1.206771,0.286551\O,0,2.1865
 43,-0.113961,1.584087\H,0,2.710921,0.690012,1.684267\H,0,0.860523,-2.2
 2786,0.347335\H,0,0.887433,2.205154,0.338287\Cl,0,2.600964,0.007292,-1
 .059046\Cl,0,-2.14858,-1.674559,-0.135407\Cl,0,-2.124371,1.697832,-0.1

 Normal termination of Gaussian 16 at Tue Apr  8 22:41:58 2025.
