 Gaussian 16, Revision C.01,

 ----------------------------------------------------------------------
 #t hf aug-cc-pvdz symm=none int=(grid=ultrafine) guess=(read,tcheck) s
 table=(opt,rrhf)
 ----------------------------------------------------------------------
 -----
 title
 -----
 Symbolic Z-matrix:
 Charge =  0 Multiplicity = 1

 SCF Done:  E(RHF) =  -518.948116267     A.U. after   13 cycles
 Normal termination of Gaussian 16 at Tue Apr  8 23:51:29 2025.
 Gaussian 16:  ES64L-G16RevC.01  3-Jul-2019

 ----------------------------------------------------------------------
 #t hf aug-cc-pvdz iop(5/13=1,5/36=2,99/5=2) pseudo=read geom=check gue
 ss=(read,tcheck) scf=(maxcycle=1)
 ----------------------------------------------------------------------
 -----
 title
 -----
 Structure from the checkpoint file:  "BDE49_nonexpt_1889_mol1.chk"
 Charge =  0 Multiplicity = 1

                         Standard orientation:
 ---------------------------------------------------------------------
 Center     Atomic      Atomic             Coordinates (Angstroms)
 Number     Number       Type             X           Y           Z
 ---------------------------------------------------------------------
      1          6           0        0.567446    0.722512    0.000001
      2         14           0        2.203788   -0.241363   -0.000001
      3          8           0       -0.468813   -0.233035   -0.000002
      4          1           0        3.297057    0.759003    0.000006
      5          1           0        2.310436   -1.087336   -1.208581
      6          1           0        2.310433   -1.087348    1.208571
      7          8           0       -1.731026    0.533243   -0.000004
      8          6           0       -2.751198   -0.443348    0.000005
      9          1           0       -3.681388    0.129244    0.000002
     10          1           0       -2.703165   -1.070452    0.896722
     11          1           0       -2.703168   -1.070464   -0.896705
     12          1           0        0.508993    1.364898   -0.889146
     13          1           0        0.508992    1.364893    0.889152
 ---------------------------------------------------------------------

 SCF Done:  E(RHF) =  -520.122987759     A.U. after    2 cycles

 The electronic state is 1-A.
 Alpha  occ. eigenvalues --  -76.21687 -21.09262 -21.08843 -11.40455 -11.38919
 Alpha  occ. eigenvalues --   -5.55234  -2.19031  -2.17530  -2.17397  -1.93494
 Alpha  occ. eigenvalues --   -1.48286  -0.97767  -0.95379  -0.75918  -0.64112
 Alpha  occ. eigenvalues --   -0.63428  -0.60181  -0.57429  -0.51113  -0.47054
 Alpha  occ. eigenvalues --   -0.46717  -0.41353  -0.41326  -0.35573  -0.25625
 Alpha virt. eigenvalues --    0.03851   0.04957   0.05205   0.05558   0.06312
 Alpha virt. eigenvalues --    0.06525   0.07144   0.08243   0.08962   0.09450
 Alpha virt. eigenvalues --    0.10774   0.11871   0.14165   0.15317   0.15861

 Mulliken charges:
               1
     1  C   -2.272394
     2  Si   5.844329
     3  O   -1.580522
     4  H   -1.626726
     5  H   -1.665958
     6  H   -1.665958
     7  O   -1.458241
     8  C   -2.488119
     9  H    1.274585
    10  H    1.358812
    11  H    1.358811
    12  H    1.460691
    13  H    1.460691
 Sum of Mulliken charges =   0.00000

 Dipole moment (field-independent basis, Debye):
    X=             -0.5897    Y=              0.2132    Z=              0.0000  Tot=              0.6270

 Test job not archived.
 1\1\GINC-SE339\SP\RHF\Aug-CC-pVDZ\C2H8O2Si1\OHZDE\08-Apr-2025\0\\#t hf
  aug-cc-pvdz iop(5/13=1,5/36=2,99/5=2) pseudo=read geom=check guess=(r
 ead,tcheck) scf=(maxcycle=1)\\title\\0,1\C,0,0.567446,0.722512,0.00000
 1\Si,0,2.203788,-0.241363,-0.000001\O,0,-0.468813,-0.233035,-0.000002\
 H,0,3.297057,0.759003,0.000006\H,0,2.310436,-1.087336,-1.208581\H,0,2.
 310433,-1.087348,1.208571\O,0,-1.731026,0.533243,-0.000004\C,0,-2.7511
 98,-0.443348,0.000005\H,0,-3.681388,0.129244,0.000002\H,0,-2.703165,-1
 .070452,0.896722\H,0,-2.703168,-1.070464,-0.896705\H,0,0.508993,1.3648

 Normal termination of Gaussian 16 at Tue Apr  8 23:51:32 2025.
