 Gaussian 16, Revision C.01,

 ----------------------------------------------------------------------
 #t hf aug-cc-pvdz symm=none int=(grid=ultrafine) guess=(read,tcheck) s
 table=opt
 ----------------------------------------------------------------------
 -----
 title
 -----
 Symbolic Z-matrix:
 Charge =  0 Multiplicity = 2

 SCF Done:  E(UHF) =  -466.027784313     A.U. after   18 cycles
 Normal termination of Gaussian 16 at Wed Apr  9 00:31:13 2025.
 Gaussian 16:  ES64L-G16RevC.01  3-Jul-2019

 ----------------------------------------------------------------------
 #t hf aug-cc-pvdz iop(5/13=1,5/36=2,99/5=2) pseudo=read geom=check gue
 ss=(read,tcheck) scf=(maxcycle=1)
 ----------------------------------------------------------------------
 -----
 title
 -----
 Structure from the checkpoint file:  "BDE49_nonexpt_361_mol2.chk"
 Charge =  0 Multiplicity = 2

                         Standard orientation:
 ---------------------------------------------------------------------
 Center     Atomic      Atomic             Coordinates (Angstroms)
 Number     Number       Type             X           Y           Z
 ---------------------------------------------------------------------
      1          9           0        1.759791   -0.181455   -0.002983
      2          5           0        0.697299    0.586155    0.050418
      3         15           0       -1.106355   -0.069954   -0.119675
      4          1           0       -1.698695    0.877997    0.743404
      5          1           0       -1.030594   -1.126368    0.826477
 ---------------------------------------------------------------------

 SCF Done:  E(UHF) =  -466.639006836     A.U. after    2 cycles

 The electronic state is 2-A.
 Alpha  occ. eigenvalues -- -105.18440 -29.27430  -7.69837  -2.75908  -1.50692
 Alpha  occ. eigenvalues --   -1.45239  -1.43288  -0.96062  -0.74231  -0.49781
 Alpha  occ. eigenvalues --   -0.44348  -0.41744  -0.34292  -0.26394  -0.12238
 Alpha  occ. eigenvalues --   -0.01961
 Alpha virt. eigenvalues --    0.04547   0.04773   0.06288   0.06689   0.09759
 Alpha virt. eigenvalues --    0.10523   0.11029   0.12252   0.15595   0.17166
 Alpha virt. eigenvalues --    0.20183   0.21348   0.22211   0.24748   0.25203

  Beta  occ. eigenvalues -- -105.18342 -29.27130  -7.68033  -2.75593  -1.47804
  Beta  occ. eigenvalues --   -1.44994  -1.42901  -0.92559  -0.73493  -0.43755
  Beta  occ. eigenvalues --   -0.42067  -0.41331  -0.26717  -0.21670  -0.06084
  Beta virt. eigenvalues --    0.03862   0.04820   0.05511   0.06588   0.09894
  Beta virt. eigenvalues --    0.10438   0.11361   0.12371   0.14919   0.17480
  Beta virt. eigenvalues --    0.17865   0.20922   0.22281   0.23334   0.25163

 Mulliken charges and spin densities:
               1          2
     1  F   -0.023059  -0.013197
     2  B   -0.344799   1.178111
     3  P    1.378907  -0.147859
     4  H   -0.370897  -0.048088
     5  H   -0.640151   0.031034
 Sum of Mulliken charges =   0.00000   1.00000

 Dipole moment (field-independent basis, Debye):
    X=              0.3691    Y=             -4.9093    Z=             -3.6852  Tot=              6.1496
                          Isotropic Fermi Contact Couplings
        Atom                 a.u.       MegaHertz       Gauss      10(-4) cm-1
     1  F(19)              0.00908      38.19068      13.62738      12.73904
     2  B(11)              0.08433     120.95755      43.16066      40.34710
     3  P(31)              0.09599     173.84657      62.03278      57.98897
     4  H(1)              -0.00050      -2.21810      -0.79147      -0.73988
     5  H(1)               0.00475      21.23434       7.57694       7.08301
 --------------------------------------------------------
       Center         ----  Spin Dipole Couplings  ----
                      3XX-RR        3YY-RR        3ZZ-RR

 Normal termination of Gaussian 16 at Wed Apr  9 00:31:14 2025.
