 Gaussian 16, Revision C.01,

 ----------------------------------------------------------------------
 #t hf aug-cc-pvdz symm=none int=(grid=ultrafine) guess=(read,tcheck) s
 table=(opt,rrhf)
 ----------------------------------------------------------------------
 -----
 title
 -----
 Symbolic Z-matrix:
 Charge =  0 Multiplicity = 1

 SCF Done:  E(RHF) =  -253.783494555     A.U. after   12 cycles
 Normal termination of Gaussian 16 at Tue Apr  8 22:54:33 2025.
 Gaussian 16:  ES64L-G16RevC.01  3-Jul-2019

 ----------------------------------------------------------------------
 #t hf aug-cc-pvdz iop(5/13=1,5/36=2,99/5=2) pseudo=read geom=check gue
 ss=(read,tcheck) scf=(maxcycle=1)
 ----------------------------------------------------------------------
 -----
 title
 -----
 Structure from the checkpoint file:  "BDE49_expt_1813_mol1.chk"
 Charge =  0 Multiplicity = 1

                         Standard orientation:
 ---------------------------------------------------------------------
 Center     Atomic      Atomic             Coordinates (Angstroms)
 Number     Number       Type             X           Y           Z
 ---------------------------------------------------------------------
      1          7           0       -0.000032    0.564353   -0.166313
      2          9           0       -1.101991   -0.278753    0.024130
      3          1           0       -0.000379    1.066447    0.729648
      4          9           0        1.102059   -0.278682    0.024153
 ---------------------------------------------------------------------

 SCF Done:  E(RHF) =  -254.697460436     A.U. after    2 cycles

 The electronic state is 1-A.
 Alpha  occ. eigenvalues --  -29.30877 -29.30844 -15.91598  -1.50385  -0.82154
 Alpha  occ. eigenvalues --   -0.78729  -0.64081  -0.44921  -0.40909  -0.31800
 Alpha  occ. eigenvalues --   -0.30865  -0.23403  -0.22666
 Alpha virt. eigenvalues --    0.04402   0.13096   0.14109   0.15619   0.19426
 Alpha virt. eigenvalues --    0.24198   0.24887   0.27538   0.29402   0.30900
 Alpha virt. eigenvalues --    0.32342   0.34660   0.38648   0.39569   0.45478

 Mulliken charges:
               1
     1  N   -0.900020
     2  F    0.088859
     3  H    0.722270
     4  F    0.088891
 Sum of Mulliken charges =  -0.00000

 Dipole moment (field-independent basis, Debye):
    X=              0.0000    Y=             -0.9615    Z=              1.1412  Tot=              1.4923

 Test job not archived.
 1\1\GINC-SE457\SP\RHF\Aug-CC-pVDZ\F2H1N1\OHZDE\08-Apr-2025\0\\#t hf au
 g-cc-pvdz iop(5/13=1,5/36=2,99/5=2) pseudo=read geom=check guess=(read
 ,tcheck) scf=(maxcycle=1)\\title\\0,1\N,0,-0.000032,0.564353,-0.166313
 \F,0,-1.101991,-0.278753,0.02413\H,0,-0.000379,1.066447,0.729648\F,0,1
 .102059,-0.278682,0.024153\\Version=ES64L-G16RevC.01\State=1-A\HF=-254
 .6974604\RMSD=2.679e-02\Dipole=0.0000084,-0.3782718,0.4489982\Quadrupo
 le=0.2146872,-0.1872814,-0.0274057,-0.0004613,-0.000338,1.2724385\PG=C
 01 [X(F2H1N1)]\\@

 Normal termination of Gaussian 16 at Tue Apr  8 22:54:34 2025.
