 Gaussian 16, Revision C.01,

 ----------------------------------------------------------------------
 #t hf aug-cc-pvdz symm=none int=(grid=ultrafine) guess=(read,tcheck) s
 table=(opt,rrhf)
 ----------------------------------------------------------------------
 -----
 title
 -----
 Symbolic Z-matrix:
 Charge =  0 Multiplicity = 1

 SCF Done:  E(RHF) =  -647.133991866     A.U. after   16 cycles
 Normal termination of Gaussian 16 at Wed Apr  9 00:22:07 2025.
 Gaussian 16:  ES64L-G16RevC.01  3-Jul-2019

 ----------------------------------------------------------------------
 #t hf aug-cc-pvdz iop(5/13=1,5/36=2,99/5=2) pseudo=read geom=check gue
 ss=(read,tcheck) scf=(maxcycle=1)
 ----------------------------------------------------------------------
 -----
 title
 -----
 Structure from the checkpoint file:  "BDE49_nonexpt_2650_mol1.chk"
 Charge =  0 Multiplicity = 1

                         Standard orientation:
 ---------------------------------------------------------------------
 Center     Atomic      Atomic             Coordinates (Angstroms)
 Number     Number       Type             X           Y           Z
 ---------------------------------------------------------------------
      1          9           0       -1.462459    0.839509    0.076143
      2         16           0       -0.597849   -0.558557   -0.179647
      3          8           0        0.751759   -0.334942    0.562646
      4          8           0        1.820910    0.382123   -0.331300
      5          1           0        2.146361    1.003879    0.338303
 ---------------------------------------------------------------------

 SCF Done:  E(RHF) =  -648.304184448     A.U. after    2 cycles

 The electronic state is 1-A.
 Alpha  occ. eigenvalues --  -75.81139 -29.28420 -21.17681 -21.16578 -13.32495
 Alpha  occ. eigenvalues --  -13.20542 -13.13266  -8.15344  -1.93321  -1.55777
 Alpha  occ. eigenvalues --   -1.12665  -0.70499  -0.65216  -0.57116  -0.51867
 Alpha  occ. eigenvalues --   -0.44631  -0.39339  -0.38981  -0.31943  -0.30915
 Alpha  occ. eigenvalues --   -0.19198
 Alpha virt. eigenvalues --    0.04094   0.07837   0.09493   0.11160   0.12211
 Alpha virt. eigenvalues --    0.16480   0.19691   0.21065   0.22381   0.22475
 Alpha virt. eigenvalues --    0.23105   0.24081   0.26967   0.28539   0.30952

 Mulliken charges:
               1
     1  F   -0.166642
     2  S    1.611332
     3  O   -1.464638
     4  O   -0.965496
     5  H    0.985444
 Sum of Mulliken charges =   0.00000

 Dipole moment (field-independent basis, Debye):
    X=             -1.9048    Y=              2.2018    Z=              0.0069  Tot=              2.9115

 Test job not archived.
 1\1\GINC-SE105\SP\RHF\Aug-CC-pVDZ\F1H1O2S1\OHZDE\09-Apr-2025\0\\#t hf
 aug-cc-pvdz iop(5/13=1,5/36=2,99/5=2) pseudo=read geom=check guess=(re
 ad,tcheck) scf=(maxcycle=1)\\title\\0,1\F,0,-1.462459,0.839509,0.07614
 3\S,0,-0.597849,-0.558557,-0.179647\O,0,0.751759,-0.334942,0.562646\O,
 0,1.82091,0.382123,-0.3313\H,0,2.146361,1.00388,0.338303\\Version=ES64
 L-G16RevC.01\State=1-A\HF=-648.3041844\RMSD=4.021e-02\Dipole=-0.749425
 1,0.8662735,0.0027091\Quadrupole=2.0605395,0.1479057,-2.2084452,0.5327
 181,1.0727977,1.3394076\PG=C01 [X(F1H1O2S1)]\\@

 Normal termination of Gaussian 16 at Wed Apr  9 00:22:08 2025.
