 Gaussian 16, Revision C.01,

 ----------------------------------------------------------------------
 #t hf aug-cc-pvdz symm=none int=(grid=ultrafine) guess=(read,tcheck) s
 table=(opt,rrhf)
 ----------------------------------------------------------------------
 -----
 title
 -----
 Symbolic Z-matrix:
 Charge =  0 Multiplicity = 1

 SCF Done:  E(RHF) =  -553.805071719     A.U. after   13 cycles
 Normal termination of Gaussian 16 at Wed Apr  9 00:07:31 2025.
 Gaussian 16:  ES64L-G16RevC.01  3-Jul-2019

 ----------------------------------------------------------------------
 #t hf aug-cc-pvdz iop(5/13=1,5/36=2,99/5=2) pseudo=read geom=check gue
 ss=(read,tcheck) scf=(maxcycle=1)
 ----------------------------------------------------------------------
 -----
 title
 -----
 Structure from the checkpoint file:  "BDE49_nonexpt_2248_mol1.chk"
 Charge =  0 Multiplicity = 1

                         Standard orientation:
 ---------------------------------------------------------------------
 Center     Atomic      Atomic             Coordinates (Angstroms)
 Number     Number       Type             X           Y           Z
 ---------------------------------------------------------------------
      1         14           0       -0.830429   -0.691958   -0.000002
      2          6           0        0.957655   -0.018805   -0.000041
      3          8           0       -1.707843    0.718066   -0.000010
      4          1           0       -2.667305    0.729038   -0.000004
      5          8           0        1.908813   -0.754997    0.000017
      6          8           0        1.104916    1.330723    0.000020
      7          1           0        0.222869    1.734700    0.000032
      8          1           0       -1.061270   -1.506902    1.210353
      9          1           0       -1.061302   -1.506930   -1.210331
 ---------------------------------------------------------------------

 SCF Done:  E(RHF) =  -555.042130606     A.U. after    2 cycles

 The electronic state is 1-A.
 Alpha  occ. eigenvalues --  -76.26768 -21.11943 -21.11139 -21.05849 -11.48433
 Alpha  occ. eigenvalues --   -5.60616  -2.27185  -2.23724  -2.22090  -1.81216
 Alpha  occ. eigenvalues --   -1.69619  -1.65308  -0.86974  -0.76103  -0.64779
 Alpha  occ. eigenvalues --   -0.63021  -0.56032  -0.52618  -0.51089  -0.45447
 Alpha  occ. eigenvalues --   -0.44105  -0.41488  -0.33357  -0.27936
 Alpha virt. eigenvalues --    0.02627   0.05163   0.05415   0.05936   0.06974
 Alpha virt. eigenvalues --    0.07484   0.08878   0.11123   0.12676   0.13875
 Alpha virt. eigenvalues --    0.14222   0.15378   0.15905   0.17701   0.19946

 Mulliken charges:
               1
     1  Si   6.056839
     2  C    2.956730
     3  O   -2.617726
     4  H    1.112154
     5  O   -2.533291
     6  O   -2.660063
     7  H    1.123337
     8  H   -1.718991
     9  H   -1.718990
 Sum of Mulliken charges =  -0.00000

 Dipole moment (field-independent basis, Debye):
    X=             -3.0478    Y=              1.1108    Z=              0.0001  Tot=              3.2439

 Test job not archived.
 1\1\GINC-SE165\SP\RHF\Aug-CC-pVDZ\C1H4O3Si1\OHZDE\09-Apr-2025\0\\#t hf
  aug-cc-pvdz iop(5/13=1,5/36=2,99/5=2) pseudo=read geom=check guess=(r
 ead,tcheck) scf=(maxcycle=1)\\title\\0,1\Si,0,0.830429,-0.691958,0.000
 002\C,0,-0.957655,-0.018805,0.000041\O,0,1.707843,0.718066,0.00001\H,0
 ,2.667305,0.729038,0.000004\O,0,-1.908813,-0.754997,-0.000017\O,0,-1.1
 04916,1.330723,-0.00002\H,0,-0.222869,1.7347,-0.000032\H,0,1.06127,-1.
 506902,-1.210353\H,0,1.061302,-1.50693,1.210331\\Version=ES64L-G16RevC
 .01\State=1-A\HF=-555.0421306\RMSD=7.098e-02\Dipole=1.1990888,0.437017

 Normal termination of Gaussian 16 at Wed Apr  9 00:07:34 2025.
