 Gaussian 16, Revision C.01,

 ----------------------------------------------------------------------
 #t hf aug-cc-pvdz symm=none int=(grid=ultrafine) guess=(read,tcheck) s
 table=opt
 ----------------------------------------------------------------------
 -----
 title
 -----
 Symbolic Z-matrix:
 Charge =  0 Multiplicity = 2

 SCF Done:  E(UHF) =  -706.000709288     A.U. after   18 cycles
 Normal termination of Gaussian 16 at Tue Apr  8 23:08:47 2025.
 Gaussian 16:  ES64L-G16RevC.01  3-Jul-2019

 ----------------------------------------------------------------------
 #t hf aug-cc-pvdz iop(5/13=1,5/36=2,99/5=2) pseudo=read geom=check gue
 ss=(read,tcheck) scf=(maxcycle=1)
 ----------------------------------------------------------------------
 -----
 title
 -----
 Structure from the checkpoint file:  "BDE49_expt_388_mol2.chk"
 Charge =  0 Multiplicity = 2

                         Standard orientation:
 ---------------------------------------------------------------------
 Center     Atomic      Atomic             Coordinates (Angstroms)
 Number     Number       Type             X           Y           Z
 ---------------------------------------------------------------------
      1          8           0        0.668535   -1.262878   -0.439977
      2          6           0        2.046809   -0.891202   -0.456345
      3          6           0        2.206847    0.287501    0.503445
      4          1           0        2.336724   -0.601443   -1.472682
      5          1           0        2.616971   -1.767686   -0.146763
      6         16           0        0.691328    1.281941    0.215162
      7          1           0        3.089287    0.886024    0.279423
      8          1           0        2.236340   -0.039017    1.543996
      9          6           0       -0.134254   -0.146089   -0.506717
     10          6           0       -1.596758   -0.418165   -0.288998
     11          6           0       -1.890315   -0.943134    1.133104
     12          6           0       -2.452800    0.809404   -0.628400
     13          1           0       -1.849189   -1.218086   -0.996753
     14          1           0       -2.245762    1.637007    0.057457
     15          1           0       -3.515586    0.569310   -0.541533
     16          1           0       -2.261872    1.156705   -1.646500
     17          1           0       -1.673936   -0.174460    1.880358
     18          1           0       -1.277167   -1.819085    1.354142
     19          1           0       -2.942517   -1.227189    1.229549
 ---------------------------------------------------------------------

 SCF Done:  E(UHF) =  -707.702984942     A.U. after    2 cycles

 The electronic state is 2-A.
 Alpha  occ. eigenvalues --  -75.68013 -21.07112 -13.13160 -13.11925 -13.02953
 Alpha  occ. eigenvalues --  -11.46667 -11.44515 -11.40644 -11.39973 -11.37896
 Alpha  occ. eigenvalues --  -11.35241  -8.02187  -1.79744  -1.25003  -1.20641
 Alpha  occ. eigenvalues --   -1.07664  -0.99772  -0.90091  -0.86880  -0.75870
 Alpha  occ. eigenvalues --   -0.68506  -0.65867  -0.62128  -0.59170  -0.58033
 Alpha  occ. eigenvalues --   -0.55295  -0.53237  -0.50801  -0.49367  -0.44855
 Alpha  occ. eigenvalues --   -0.44211  -0.42029  -0.41433  -0.35088  -0.28012
 Alpha  occ. eigenvalues --   -0.18090
 Alpha virt. eigenvalues --    0.03636   0.04554   0.05295   0.05494   0.05821
 Alpha virt. eigenvalues --    0.06207   0.06373   0.06753   0.06861   0.08265
 Alpha virt. eigenvalues --    0.08931   0.09895   0.11425   0.12204   0.12950

  Beta  occ. eigenvalues --  -75.67960 -21.06717 -13.13268 -13.12007 -13.02440
  Beta  occ. eigenvalues --  -11.46175 -11.43509 -11.40192 -11.39761 -11.37805
  Beta  occ. eigenvalues --  -11.34985  -8.02117  -1.78419  -1.23840  -1.20345
  Beta  occ. eigenvalues --   -1.06110  -0.99462  -0.88729  -0.86270  -0.72759
  Beta  occ. eigenvalues --   -0.67766  -0.65551  -0.61412  -0.57734  -0.56050
  Beta  occ. eigenvalues --   -0.54892  -0.53054  -0.49646  -0.46259  -0.44206
  Beta  occ. eigenvalues --   -0.43276  -0.41070  -0.37695  -0.33573  -0.24320
  Beta virt. eigenvalues --    0.03597   0.04549   0.05287   0.05496   0.05838
  Beta virt. eigenvalues --    0.06102   0.06387   0.06758   0.06832   0.08263
  Beta virt. eigenvalues --    0.08937   0.09950   0.11201   0.11746   0.12807

 Mulliken charges and spin densities:
               1          2
     1  O   -3.440684   0.053734
     2  C   -1.901213  -0.025105
     3  C   -3.731738   0.013867
     4  H    1.610809  -0.019023
     5  H    1.432165   0.001102
     6  S    1.060144  -0.029831
     7  H    1.333175  -0.000982
     8  H    1.463677  -0.002148
     9  C    2.247939   1.385103
    10  C   -0.787982  -0.391584
    11  C   -4.635573   0.037208
    12  C   -4.070792   0.035496
    13  H    1.684481  -0.018733
    14  H    1.455866  -0.009497
    15  H    1.161468   0.000515
    16  H    1.286979  -0.010666
    17  H    1.385704  -0.010510
    18  H    1.223653  -0.009233
    19  H    1.221921   0.000288
 Sum of Mulliken charges =  -0.00000   1.00000

 Dipole moment (field-independent basis, Debye):
    X=              0.6554    Y=              0.3443    Z=              0.4723  Tot=              0.8782
                          Isotropic Fermi Contact Couplings
        Atom                 a.u.       MegaHertz       Gauss      10(-4) cm-1
     1  O(17)              0.03135     -19.00196      -6.78037      -6.33837
     2  C(13)             -0.00169      -1.90255      -0.67888      -0.63462
     3  C(13)              0.00034       0.38769       0.13834       0.12932
     4  H(1)               0.00060       2.68619       0.95850       0.89602
     5  H(1)              -0.00058      -2.60367      -0.92905      -0.86849
     6  S(33)              0.13157      45.18947      16.12473      15.07359
     7  H(1)              -0.00065      -2.88696      -1.03014      -0.96299
     8  H(1)               0.00194       8.69307       3.10191       2.89970

 Normal termination of Gaussian 16 at Tue Apr  8 23:09:00 2025.
