 Gaussian 16, Revision C.01,

 ----------------------------------------------------------------------
 #t hf aug-cc-pvdz symm=none int=(grid=ultrafine) guess=(read,tcheck) s
 table=opt
 ----------------------------------------------------------------------
 -----
 title
 -----
 Symbolic Z-matrix:
 Charge =  0 Multiplicity = 2

 SCF Done:  E(UHF) =  -561.308522445     A.U. after   17 cycles
 Normal termination of Gaussian 16 at Wed Apr  9 00:30:44 2025.
 Gaussian 16:  ES64L-G16RevC.01  3-Jul-2019

 ----------------------------------------------------------------------
 #t hf aug-cc-pvdz iop(5/13=1,5/36=2,99/5=2) pseudo=read geom=check gue
 ss=(read,tcheck) scf=(maxcycle=1)
 ----------------------------------------------------------------------
 -----
 title
 -----
 Structure from the checkpoint file:  "BDE49_nonexpt_349_mol2.chk"
 Charge =  0 Multiplicity = 2

                         Standard orientation:
 ---------------------------------------------------------------------
 Center     Atomic      Atomic             Coordinates (Angstroms)
 Number     Number       Type             X           Y           Z
 ---------------------------------------------------------------------
      1          9           0       -2.201958    0.166685    0.000018
      2         16           0        0.427374   -0.605375   -0.000027
      3          5           0       -0.942937    0.551621    0.000035
      4          6           0        1.868570    0.534963    0.000010
      5          1           0        2.757701   -0.095282   -0.000357
      6          1           0        1.862782    1.156354    0.893370
      7          1           0        1.862416    1.156880   -0.892981
 ---------------------------------------------------------------------

 SCF Done:  E(UHF) =  -562.156283756     A.U. after    2 cycles

 The electronic state is 2-A.
 Alpha  occ. eigenvalues --  -75.69283 -29.26643 -13.13218 -13.08406 -13.02616
 Alpha  occ. eigenvalues --  -11.41128  -8.03428  -7.69922  -1.23202  -1.01734
 Alpha  occ. eigenvalues --   -0.88610  -0.61345  -0.60031  -0.51369  -0.49555
 Alpha  occ. eigenvalues --   -0.45039  -0.41625  -0.37368  -0.26152  -0.20100
 Alpha virt. eigenvalues --    0.02436   0.03429   0.03979   0.06680   0.07295
 Alpha virt. eigenvalues --    0.08501   0.09898   0.12262   0.12510   0.13584
 Alpha virt. eigenvalues --    0.14689   0.17031   0.17878   0.18187   0.19035

  Beta  occ. eigenvalues --  -75.69195 -29.26340 -13.12641 -13.08237 -13.02719
  Beta  occ. eigenvalues --  -11.41072  -8.03327  -7.67970  -1.22122  -1.00308
  Beta  occ. eigenvalues --   -0.86479  -0.60897  -0.60001  -0.49736  -0.44082
  Beta  occ. eigenvalues --   -0.40896  -0.40655  -0.34674  -0.26324
  Beta virt. eigenvalues --    0.01111   0.03466   0.04069   0.06380   0.07049
  Beta virt. eigenvalues --    0.08003   0.08523   0.11663   0.13619   0.13840
  Beta virt. eigenvalues --    0.14156   0.15623   0.17994   0.18080   0.19412

 Mulliken charges and spin densities:
               1          2
     1  F    0.078108  -0.095454
     2  S   -0.627466   0.152787
     3  B    0.690760   1.073134
     4  C   -4.418184  -0.085915
     5  H    1.363746   0.002342
     6  H    1.456502  -0.023449
     7  H    1.456534  -0.023446
 Sum of Mulliken charges =  -0.00000   1.00000

 Dipole moment (field-independent basis, Debye):
    X=             -2.0185    Y=             -1.9669    Z=             -0.0001  Tot=              2.8183
                          Isotropic Fermi Contact Couplings
        Atom                 a.u.       MegaHertz       Gauss      10(-4) cm-1
     1  F(19)              0.03763     158.34103      56.50002      52.81688
     2  S(33)              0.09718      33.37820      11.91017      11.13377
     3  B(11)              0.16074     230.56688      82.27200      76.90883
     4  C(13)              0.02700      30.35394      10.83104      10.12498
     5  H(1)              -0.00054      -2.42654      -0.86585      -0.80941
     6  H(1)              -0.00043      -1.90692      -0.68044      -0.63608
     7  H(1)              -0.00043      -1.90702      -0.68047      -0.63611
 --------------------------------------------------------

 Normal termination of Gaussian 16 at Wed Apr  9 00:30:46 2025.
