 Gaussian 16, Revision C.01,

 ----------------------------------------------------------------------
 #t hf aug-cc-pvdz symm=none int=(grid=ultrafine) guess=(read,tcheck) s
 table=opt
 ----------------------------------------------------------------------
 -----
 title
 -----
 Symbolic Z-matrix:
 Charge =  0 Multiplicity = 2

 SCF Done:  E(UHF) =  -788.478601359     A.U. after   26 cycles
 Normal termination of Gaussian 16 at Tue Apr  8 23:21:40 2025.
 Gaussian 16:  ES64L-G16RevC.01  3-Jul-2019

 ----------------------------------------------------------------------
 #t hf aug-cc-pvdz iop(5/13=1,5/36=2,99/5=2) pseudo=read geom=check gue
 ss=(read,tcheck) scf=(maxcycle=1)
 ----------------------------------------------------------------------
 -----
 title
 -----
 Structure from the checkpoint file:  "BDE49_expt_833_mol2.chk"
 Charge =  0 Multiplicity = 2

                         Standard orientation:
 ---------------------------------------------------------------------
 Center     Atomic      Atomic             Coordinates (Angstroms)
 Number     Number       Type             X           Y           Z
 ---------------------------------------------------------------------
      1          6           0        6.740012   -0.103233   -0.257507
      2          6           0        5.400662   -0.631124    0.264614
      3          1           0        6.907503    0.931352    0.058150
      4          1           0        6.773778   -0.123560   -1.351340
      5          1           0        7.577321   -0.702074    0.111225
      6          6           0        4.195778    0.178886   -0.227577
      7          1           0        5.410958   -0.631261    1.361354
      8          1           0        5.278336   -1.678342   -0.037462
      9          6           0        2.850577   -0.342119    0.290484
     10          1           0        4.185856    0.178960   -1.325351
     11          1           0        4.318924    1.227278    0.074087
     12          6           0        1.646353    0.468239   -0.202648
     13          1           0        2.861466   -0.341912    1.388133
     14          1           0        2.728586   -1.390420   -0.011147
     15          6           0        0.301400   -0.053215    0.316059
     16          1           0        1.635187    0.467480   -1.300198
     17          1           0        1.768376    1.516715    0.098615
     18          6           0       -0.902297    0.757459   -0.177889
     19          1           0        0.312257   -0.052418    1.413661
     20          1           0        0.178854   -1.101258    0.014513
     21          6           0       -2.245836    0.233030    0.339590
     22          1           0       -0.913799    0.756073   -1.275196
     23          1           0       -0.780480    1.805941    0.123711
     24          6           0       -3.446839    1.046547   -0.152347
     25          1           0       -2.237098    0.229781    1.437619
     26          1           0       -2.372920   -0.811101    0.028621
     27          6           0       -4.792355    0.521513    0.352486
     28          1           0       -3.458569    1.064015   -1.247249
     29          1           0       -3.341975    2.087891    0.179479
     30          1           0       -4.821099    0.471155    1.447039
     31         16           0       -5.305349   -1.097324   -0.283047
     32          1           0       -5.610597    1.196995    0.068900
 ---------------------------------------------------------------------

 SCF Done:  E(UHF) =  -790.721888244     A.U. after    2 cycles

 The electronic state is 2-A.
 Alpha  occ. eigenvalues --  -75.69832 -13.11434 -13.06220 -13.03587 -11.43673
 Alpha  occ. eigenvalues --  -11.42921 -11.42199 -11.41356 -11.40654 -11.39078
 Alpha  occ. eigenvalues --  -11.37382 -11.36121 -11.35165 -11.33622  -8.03422
 Alpha  occ. eigenvalues --   -1.30274  -1.25309  -1.18835  -1.12153  -1.05610
 Alpha  occ. eigenvalues --   -0.99144  -0.92841  -0.86972  -0.82692  -0.81953
 Alpha  occ. eigenvalues --   -0.81411  -0.67132  -0.64972  -0.62553  -0.61269
 Alpha  occ. eigenvalues --   -0.58702  -0.58195  -0.56773  -0.54477  -0.53649
 Alpha  occ. eigenvalues --   -0.52699  -0.50224  -0.48852  -0.46679  -0.46106
 Alpha  occ. eigenvalues --   -0.45057  -0.45016  -0.44703  -0.44385  -0.43947
 Alpha  occ. eigenvalues --   -0.39572  -0.36279  -0.28778  -0.23996
 Alpha virt. eigenvalues --    0.03735   0.04343   0.04481   0.05071   0.05257
 Alpha virt. eigenvalues --    0.05744   0.05871   0.06013   0.06244   0.06499
 Alpha virt. eigenvalues --    0.06660   0.06699   0.07571   0.08532   0.08784

  Beta  occ. eigenvalues --  -75.68851 -13.10827 -13.03889 -12.99441 -11.43708
  Beta  occ. eigenvalues --  -11.42923 -11.42224 -11.41359 -11.40676 -11.39094
  Beta  occ. eigenvalues --  -11.37388 -11.36121 -11.35165 -11.33622  -8.02324
  Beta  occ. eigenvalues --   -1.30007  -1.24739  -1.17902  -1.10759  -1.03940
  Beta  occ. eigenvalues --   -0.97552  -0.91403  -0.85948  -0.82177  -0.81797
  Beta  occ. eigenvalues --   -0.80864  -0.67089  -0.64869  -0.61824  -0.60913
  Beta  occ. eigenvalues --   -0.58682  -0.58113  -0.56693  -0.54390  -0.53473
  Beta  occ. eigenvalues --   -0.52617  -0.50103  -0.48774  -0.46601  -0.46082
  Beta  occ. eigenvalues --   -0.45037  -0.44909  -0.44702  -0.44350  -0.43929
  Beta  occ. eigenvalues --   -0.38838  -0.36228  -0.22437
  Beta virt. eigenvalues --    0.03673   0.04240   0.04389   0.04579   0.05156
  Beta virt. eigenvalues --    0.05608   0.05847   0.05911   0.06097   0.06250
  Beta virt. eigenvalues --    0.06537   0.06770   0.06968   0.07598   0.08543

 Mulliken charges and spin densities:
               1          2
     1  C   -4.807019   0.000082
     2  C   -3.670282   0.000001
     3  H    1.358182   0.000008
     4  H    1.359956  -0.000005
     5  H    1.081106   0.000003
     6  C   -2.979647  -0.000197
     7  H    1.498505   0.000002
     8  H    1.495287   0.000002
     9  C   -2.597969   0.003074
    10  H    1.608418   0.000012
    11  H    1.612503   0.000014
    12  C   -2.384141  -0.002454
    13  H    1.656355   0.000009
    14  H    1.662067  -0.000085
    15  C   -1.948850  -0.057643
    16  H    1.605173   0.000138
    17  H    1.603142  -0.000000
    18  C   -3.288309   0.005656
    19  H    1.621702  -0.000735
    20  H    1.640007  -0.005901
    21  C   -3.026655  -0.032339
    22  H    1.715952  -0.000608
    23  H    1.628059   0.000774
    24  C   -3.278507   0.017136
    25  H    1.597468  -0.006296
    26  H    1.584200   0.011866
    27  C   -4.629052  -0.097106
    28  H    1.432477  -0.000592
    29  H    1.488682   0.004151
    30  H    1.533929   0.002933
    31  S    0.522488   1.152157
    32  H    1.304770   0.005943
 Sum of Mulliken charges =  -0.00000   1.00000

 Dipole moment (field-independent basis, Debye):
    X=              0.1271    Y=              0.1088    Z=              0.1105  Tot=              0.2005
                          Isotropic Fermi Contact Couplings
        Atom                 a.u.       MegaHertz       Gauss      10(-4) cm-1
     1  C(13)              0.00000       0.00151       0.00054       0.00050
     2  C(13)             -0.00000      -0.00056      -0.00020      -0.00019
     3  H(1)              -0.00000      -0.00004      -0.00002      -0.00001
     4  H(1)               0.00000       0.00000       0.00000       0.00000
     5  H(1)               0.00000       0.00043       0.00016       0.00014
     6  C(13)              0.00000       0.00111       0.00040       0.00037
     7  H(1)               0.00000       0.00003       0.00001       0.00001
     8  H(1)              -0.00000      -0.00002      -0.00001      -0.00001

 Normal termination of Gaussian 16 at Tue Apr  8 23:22:03 2025.
