 Gaussian 16, Revision C.01,

 ----------------------------------------------------------------------
 #t hf aug-cc-pvdz symm=none int=(grid=ultrafine) guess=(read,tcheck) s
 table=(opt,rrhf)
 ----------------------------------------------------------------------
 -----
 title
 -----
 Symbolic Z-matrix:
 Charge =  0 Multiplicity = 1

 SCF Done:  E(RHF) =  -1028.40634297     A.U. after   16 cycles
 Normal termination of Gaussian 16 at Tue Apr  8 23:13:42 2025.
 Gaussian 16:  ES64L-G16RevC.01  3-Jul-2019

 ----------------------------------------------------------------------
 #t hf aug-cc-pvdz iop(5/13=1,5/36=2,99/5=2) pseudo=read geom=check gue
 ss=(read,tcheck) scf=(maxcycle=1)
 ----------------------------------------------------------------------
 -----
 title
 -----
 Structure from the checkpoint file:  "BDE49_expt_441_mol1.chk"
 Charge =  0 Multiplicity = 1

                         Standard orientation:
 ---------------------------------------------------------------------
 Center     Atomic      Atomic             Coordinates (Angstroms)
 Number     Number       Type             X           Y           Z
 ---------------------------------------------------------------------
      1          6           0       -2.171246   -1.180112    0.302618
      2          6           0       -0.847094   -0.770949    0.342323
      3          6           0       -3.162964   -0.254740   -0.017132
      4          6           0       -2.839256    1.066359   -0.295964
      5          6           0       -1.506143    1.465111   -0.247311
      6          6           0       -0.484574    0.559419    0.070618
      7          1           0       -2.439184   -2.205513    0.522637
      8          1           0       -0.071013   -1.482351    0.590999
      9          1           0       -3.617158    1.774322   -0.550674
     10          1           0       -1.273592    2.495478   -0.485053
     11          6           0        0.940287    0.969946    0.101595
     12          6           0        1.319831    2.426207    0.242200
     13          1           0        1.743207    2.824478   -0.687174
     14          1           0        2.072092    2.551504    1.028277
     15          1           0        0.469384    3.045355    0.516953
     16          7           0        1.812553    0.024868    0.006603
     17          7           0        3.129356    0.334915    0.020457
     18          6           0        4.129028   -0.624085   -0.089611
     19          6           0        3.678552   -2.061298   -0.193612
     20          1           0        3.004550   -2.197800   -1.041162
     21          1           0        3.129638   -2.357665    0.702947
     22          1           0        4.564694   -2.681822   -0.309497
     23          8           0        5.289231   -0.266595   -0.093086
     24          1           0        3.463270    1.292754    0.071579
     25         17           0       -4.840683   -0.765860   -0.064642
 ---------------------------------------------------------------------

 SCF Done:  E(RHF) =  -1031.31168636     A.U. after    2 cycles

 The electronic state is 1-A.
 Alpha  occ. eigenvalues --  -99.90100 -21.03153 -15.79184 -15.78072 -11.53812
 Alpha  occ. eigenvalues --  -11.51794 -11.49758 -11.46792 -11.46204 -11.45134
 Alpha  occ. eigenvalues --  -11.43451 -11.41937 -11.39058 -11.38837 -10.47442
 Alpha  occ. eigenvalues --   -9.67475  -9.66582  -9.66402  -1.71483  -1.54438
 Alpha  occ. eigenvalues --   -1.41175  -1.31211  -1.23321  -1.12468  -1.10741
 Alpha  occ. eigenvalues --   -1.08259  -1.07704  -0.90929  -0.89549  -0.82137
 Alpha  occ. eigenvalues --   -0.80614  -0.73084  -0.68824  -0.65861  -0.64698
 Alpha  occ. eigenvalues --   -0.64234  -0.61537  -0.60698  -0.60165  -0.59982
 Alpha  occ. eigenvalues --   -0.57978  -0.55830  -0.54225  -0.53940  -0.51008
 Alpha  occ. eigenvalues --   -0.50497  -0.49259  -0.47318  -0.46255  -0.43659
 Alpha  occ. eigenvalues --   -0.40454  -0.36278  -0.35336  -0.29411  -0.27560
 Alpha virt. eigenvalues --    0.02700   0.04361   0.04908   0.05192   0.05727
 Alpha virt. eigenvalues --    0.05896   0.06427   0.06748   0.07278   0.07544
 Alpha virt. eigenvalues --    0.07804   0.08260   0.09064   0.09671   0.10155

 Mulliken charges:
               1
     1  C   -2.177430
     2  C   -0.070392
     3  C   -3.528354
     4  C   -2.836628
     5  C    0.217658
     6  C    4.800870
     7  H    1.696603
     8  H    1.916410
     9  H    1.719612
    10  H    2.079610
    11  C    2.142506
    12  C   -5.042967
    13  H    1.068724
    14  H    0.942573
    15  H    1.289794
    16  N   -2.922418
    17  N   -2.544394
    18  C    4.891695
    19  C   -4.529894
    20  H    1.342167
    21  H    1.377854
    22  H    1.161719
    23  O   -3.275407
    24  H    1.171730
    25  Cl  -0.891638
 Sum of Mulliken charges =  -0.00000

 Dipole moment (field-independent basis, Debye):
    X=              0.3753    Y=              1.7805    Z=              0.1588  Tot=              1.8266

 Test job not archived.
 1\1\GINC-SE071\SP\RHF\Aug-CC-pVDZ\C10H11Cl1N2O1\OHZDE\08-Apr-2025\0\\#
 t hf aug-cc-pvdz iop(5/13=1,5/36=2,99/5=2) pseudo=read geom=check gues
 s=(read,tcheck) scf=(maxcycle=1)\\title\\0,1\C,0,-2.171246,-1.180112,0
 .302618\C,0,-0.847094,-0.770949,0.342323\C,0,-3.162964,-0.25474,-0.017
 132\C,0,-2.839256,1.066359,-0.295964\C,0,-1.506143,1.465111,-0.247311\
 C,0,-0.484574,0.559419,0.070618\H,0,-2.439184,-2.205513,0.522637\H,0,-
 0.071013,-1.482351,0.590999\H,0,-3.617158,1.774322,-0.550674\H,0,-1.27
 3592,2.495478,-0.485053\C,0,0.940287,0.969946,0.101595\C,0,1.319831,2.

 Normal termination of Gaussian 16 at Tue Apr  8 23:14:04 2025.
