 Gaussian 16, Revision C.01,

 ----------------------------------------------------------------------
 #t hf aug-cc-pvdz symm=none int=(grid=ultrafine) guess=(read,tcheck) s
 table=(opt,rrhf)
 ----------------------------------------------------------------------
 -----
 title
 -----
 Symbolic Z-matrix:
 Charge =  0 Multiplicity = 1

 SCF Done:  E(RHF) =  -457.894645350     A.U. after   15 cycles
 Normal termination of Gaussian 16 at Wed Apr  9 00:28:11 2025.
 Gaussian 16:  ES64L-G16RevC.01  3-Jul-2019

 ----------------------------------------------------------------------
 #t hf aug-cc-pvdz iop(5/13=1,5/36=2,99/5=2) pseudo=read geom=check gue
 ss=(read,tcheck) scf=(maxcycle=1)
 ----------------------------------------------------------------------
 -----
 title
 -----
 Structure from the checkpoint file:  "BDE49_nonexpt_286_mol1.chk"
 Charge =  0 Multiplicity = 1

                         Standard orientation:
 ---------------------------------------------------------------------
 Center     Atomic      Atomic             Coordinates (Angstroms)
 Number     Number       Type             X           Y           Z
 ---------------------------------------------------------------------
      1          6           0        0.080964    0.510912    0.484041
      2          5           0       -1.262075   -0.241833    0.005102
      3          7           0        1.305183   -0.262058    0.018883
      4          8           0       -1.340675   -1.581053   -0.163425
      5          8           0       -2.352354    0.548728   -0.179938
      6          8           0        1.350009   -1.458460    0.321342
      7          8           0        2.165147    0.314450   -0.613614
      8          1           0        0.121357    0.377745    1.571933
      9          6           0        0.176064    1.986198    0.123044
     10          1           0        0.191805    2.130757   -0.957688
     11          1           0        1.071575    2.445803    0.542859
     12          1           0       -0.705078    2.493819    0.517902
     13          1           0       -0.491546   -2.011731    0.025569
     14          1           0       -3.133204    0.035199   -0.415695
 ---------------------------------------------------------------------

 SCF Done:  E(RHF) =  -459.851789048     A.U. after    2 cycles

 The electronic state is 1-A.
 Alpha  occ. eigenvalues --  -21.11247 -21.09387 -21.07584 -21.06435 -15.99916
 Alpha  occ. eigenvalues --  -11.46208 -11.39106  -7.66661  -2.00614  -1.83526
 Alpha  occ. eigenvalues --   -1.70017  -1.67443  -1.25032  -1.03046  -0.86961
 Alpha  occ. eigenvalues --   -0.77563  -0.73194  -0.69035  -0.64750  -0.62930
 Alpha  occ. eigenvalues --   -0.59113  -0.57108  -0.55428  -0.52992  -0.49097
 Alpha  occ. eigenvalues --   -0.45374  -0.39256  -0.38022  -0.35033  -0.32342
 Alpha  occ. eigenvalues --   -0.32022
 Alpha virt. eigenvalues --    0.03130   0.04152   0.04690   0.05340   0.06586
 Alpha virt. eigenvalues --    0.07155   0.07538   0.08608   0.08899   0.09749
 Alpha virt. eigenvalues --    0.12282   0.13064   0.13716   0.14029   0.15714

 Mulliken charges:
               1
     1  C   -2.470419
     2  B    7.532623
     3  N    3.920490
     4  O   -4.085982
     5  O   -3.970762
     6  O   -2.884486
     7  O   -2.637328
     8  H    1.459266
     9  C   -3.275696
    10  H    1.239252
    11  H    1.214305
    12  H    1.325044
    13  H    1.561316
    14  H    1.072376
 Sum of Mulliken charges =   0.00000

 Dipole moment (field-independent basis, Debye):
    X=             -1.2901    Y=              0.9316    Z=              0.5865  Tot=              1.6959

 Test job not archived.
 1\1\GINC-SE249\SP\RHF\Aug-CC-pVDZ\C2H6B1N1O4\OHZDE\09-Apr-2025\0\\#t h
 f aug-cc-pvdz iop(5/13=1,5/36=2,99/5=2) pseudo=read geom=check guess=(
 read,tcheck) scf=(maxcycle=1)\\title\\0,1\C,0,0.080964,0.510912,0.4840
 41\B,0,-1.262075,-0.241833,0.005102\N,0,1.305183,-0.262058,0.018883\O,
 0,-1.340675,-1.581053,-0.163425\O,0,-2.352354,0.548728,-0.179938\O,0,1
 .350009,-1.45846,0.321342\O,0,2.165147,0.31445,-0.613614\H,0,0.121357,
 0.377745,1.571933\C,0,0.176064,1.986198,0.123044\H,0,0.191805,2.130757
 ,-0.957688\H,0,1.071575,2.445803,0.542859\H,0,-0.705078,2.493819,0.517

 Normal termination of Gaussian 16 at Wed Apr  9 00:28:16 2025.
