 Gaussian 16, Revision C.01,

 ----------------------------------------------------------------------
 #t hf aug-cc-pvdz symm=none int=(grid=ultrafine) guess=(read,tcheck) s
 table=(opt,rrhf)
 ----------------------------------------------------------------------
 -----
 title
 -----
 Symbolic Z-matrix:
 Charge =  0 Multiplicity = 1

 SCF Done:  E(RHF) =  -271.219912313     A.U. after   12 cycles

 1\1\GINC-SE159\Stability\RHF\Aug-CC-pVDZ\C5H12O1\OHZDE\08-Apr-2025\0\\
 #t hf aug-cc-pvdz symm=none int=(grid=ultrafine) guess=(read,tcheck) s
 table=(opt,rrhf)\\title\\0,1\C,0,2.229983,-0.838166,-0.166316\C,0,0.82
 8051,-0.67804,0.429769\C,0,-0.044899,0.386544,-0.257367\H,0,0.907045,-
 0.431144,1.496666\H,0,0.298483,-1.633125,0.37527\C,0,-1.510028,0.26494
 7,0.186123\O,0,-2.087047,-1.009814,-0.087241\H,0,-2.103403,1.066574,-0
 .276717\H,0,-1.582143,0.390256,1.270807\H,0,-2.092723,-1.128729,-1.042
 357\H,0,2.826223,0.073659,-0.073185\H,0,2.178913,-1.093437,-1.229903\H

 Normal termination of Gaussian 16 at Tue Apr  8 22:36:12 2025.
 Gaussian 16:  ES64L-G16RevC.01  3-Jul-2019

 ----------------------------------------------------------------------
 #t hf aug-cc-pvdz iop(5/13=1,5/36=2,99/5=2) pseudo=read geom=check gue
 ss=(read,tcheck) scf=(maxcycle=1)
 ----------------------------------------------------------------------
 -----
 title
 -----
 Structure from the checkpoint file:  "BDE49_expt_1060_mol1.chk"
 Charge =  0 Multiplicity = 1

                         Standard orientation:
 ---------------------------------------------------------------------
 Center     Atomic      Atomic             Coordinates (Angstroms)
 Number     Number       Type             X           Y           Z
 ---------------------------------------------------------------------
      1          6           0        2.229983   -0.838166   -0.166316
      2          6           0        0.828051   -0.678040    0.429769
      3          6           0       -0.044899    0.386544   -0.257367
      4          1           0        0.907045   -0.431144    1.496666
      5          1           0        0.298483   -1.633125    0.375270
      6          6           0       -1.510028    0.264947    0.186123
      7          8           0       -2.087047   -1.009814   -0.087241
      8          1           0       -2.103403    1.066574   -0.276717
      9          1           0       -1.582143    0.390256    1.270807
     10          1           0       -2.092723   -1.128729   -1.042357
     11          1           0        2.826223    0.073659   -0.073185
     12          1           0        2.178913   -1.093437   -1.229903
     13          1           0        2.778512   -1.638574    0.337592
     14          6           0        0.456067    1.817219   -0.018481
     15          1           0       -0.020048    0.194672   -1.341981
     16          1           0        0.444813    2.059463    1.049780
     17          1           0       -0.172545    2.550588   -0.532626
     18          1           0        1.478201    1.953283   -0.377791
 ---------------------------------------------------------------------

 SCF Done:  E(RHF) =  -272.558721867     A.U. after    2 cycles

 The electronic state is 1-A.
 Alpha  occ. eigenvalues --  -21.06322 -11.43174 -11.41535 -11.39303 -11.37022
 Alpha  occ. eigenvalues --  -11.34287  -1.70283  -1.25100  -1.08327  -0.97161
 Alpha  occ. eigenvalues --   -0.90163  -0.80257  -0.65134  -0.62932  -0.61355
 Alpha  occ. eigenvalues --   -0.57188  -0.55030  -0.53388  -0.52123  -0.48638
 Alpha  occ. eigenvalues --   -0.46127  -0.44877  -0.42165  -0.38408  -0.30832
 Alpha virt. eigenvalues --    0.04207   0.05147   0.05241   0.05442   0.05919
 Alpha virt. eigenvalues --    0.06200   0.06255   0.06502   0.07098   0.08678
 Alpha virt. eigenvalues --    0.09183   0.09632   0.12812   0.13166   0.14099

 Mulliken charges:
               1
     1  C   -3.885867
     2  C   -3.226769
     3  C   -1.122573
     4  H    1.405856
     5  H    1.559467
     6  C   -1.107262
     7  O   -2.563795
     8  H    1.275940
     9  H    1.424682
    10  H    0.679914
    11  H    1.425122
    12  H    1.243726
    13  H    1.080319
    14  C   -3.876302
    15  H    1.856345
    16  H    1.274950
    17  H    1.215108
    18  H    1.341139
 Sum of Mulliken charges =   0.00000

 Dipole moment (field-independent basis, Debye):
    X=              0.2601    Y=              0.3409    Z=             -0.4725  Tot=              0.6381

 Test job not archived.
 1\1\GINC-SE159\SP\RHF\Aug-CC-pVDZ\C5H12O1\OHZDE\08-Apr-2025\0\\#t hf a
 ug-cc-pvdz iop(5/13=1,5/36=2,99/5=2) pseudo=read geom=check guess=(rea
 d,tcheck) scf=(maxcycle=1)\\title\\0,1\C,0,2.229983,-0.838166,-0.16631
 6\C,0,0.828051,-0.67804,0.429769\C,0,-0.044899,0.386544,-0.257367\H,0,
 0.907045,-0.431144,1.496666\H,0,0.298483,-1.633125,0.37527\C,0,-1.5100
 28,0.264947,0.186123\O,0,-2.087047,-1.009814,-0.087241\H,0,-2.103403,1
 .066574,-0.276717\H,0,-1.582143,0.390256,1.270807\H,0,-2.092723,-1.128
 729,-1.042357\H,0,2.826223,0.073659,-0.073185\H,0,2.178913,-1.093437,-

 Normal termination of Gaussian 16 at Tue Apr  8 22:36:18 2025.
