 Gaussian 16, Revision C.01,

 ----------------------------------------------------------------------
 #t hf aug-cc-pvdz symm=none int=(grid=ultrafine) guess=(read,tcheck) s
 table=(opt,rrhf)
 ----------------------------------------------------------------------
 -----
 title
 -----
 Symbolic Z-matrix:
 Charge =  0 Multiplicity = 1

 SCF Done:  E(RHF) =  -721.125661193     A.U. after   17 cycles
 Normal termination of Gaussian 16 at Wed Apr  9 00:43:30 2025.
 Gaussian 16:  ES64L-G16RevC.01  3-Jul-2019

 ----------------------------------------------------------------------
 #t hf aug-cc-pvdz iop(5/13=1,5/36=2,99/5=2) pseudo=read geom=check gue
 ss=(read,tcheck) scf=(maxcycle=1)
 ----------------------------------------------------------------------
 -----
 title
 -----
 Structure from the checkpoint file:  "BDE49_nonexpt_723_mol1.chk"
 Charge =  0 Multiplicity = 1

                         Standard orientation:
 ---------------------------------------------------------------------
 Center     Atomic      Atomic             Coordinates (Angstroms)
 Number     Number       Type             X           Y           Z
 ---------------------------------------------------------------------
      1         15           0        0.087441   -1.038307   -0.449192
      2          7           0        1.477438    0.097985    0.049883
      3          5           0       -1.432529    0.114989    0.043026
      4          8           0        1.370151    1.288739   -0.265626
      5          8           0        2.458899   -0.387303    0.571036
      6          8           0       -2.574988   -0.567990    0.299692
      7          8           0       -1.362449    1.457997    0.033473
      8          1           0       -0.458416    1.773182   -0.145595
      9          1           0       -3.325220    0.013030    0.476776
     10          1           0        0.159694   -1.803995    0.733787
 ---------------------------------------------------------------------

 SCF Done:  E(RHF) =  -722.863635349     A.U. after    2 cycles

 The electronic state is 1-A.
 Alpha  occ. eigenvalues -- -105.24428 -21.11753 -21.10257 -21.08981 -21.07465
 Alpha  occ. eigenvalues --  -15.99495  -7.68809  -2.81758  -2.00139  -1.84251
 Alpha  occ. eigenvalues --   -1.70660  -1.68797  -1.53403  -1.51193  -1.49441
 Alpha  occ. eigenvalues --   -0.96889  -0.78614  -0.76111  -0.66525  -0.65415
 Alpha  occ. eigenvalues --   -0.61782  -0.57610  -0.52596  -0.51978  -0.45106
 Alpha  occ. eigenvalues --   -0.38980  -0.34143  -0.32992  -0.27619  -0.19585
 Alpha  occ. eigenvalues --   -0.06105
 Alpha virt. eigenvalues --    0.03440   0.05149   0.05265   0.05784   0.08307
 Alpha virt. eigenvalues --    0.08907   0.09521   0.10013   0.10420   0.12051
 Alpha virt. eigenvalues --    0.14482   0.14900   0.16291   0.17777   0.19102

 Mulliken charges:
               1
     1  P    1.328530
     2  N    4.295008
     3  B    4.953964
     4  O   -2.608731
     5  O   -2.597884
     6  O   -3.517670
     7  O   -3.625498
     8  H    1.950803
     9  H    1.105951
    10  H   -1.284474
 Sum of Mulliken charges =   0.00000

 Dipole moment (field-independent basis, Debye):
    X=             -0.3945    Y=             -2.6149    Z=             -3.9184  Tot=              4.7273

 Test job not archived.
 1\1\GINC-SE016\SP\RHF\Aug-CC-pVDZ\B1H3N1O4P1\OHZDE\09-Apr-2025\0\\#t h
 f aug-cc-pvdz iop(5/13=1,5/36=2,99/5=2) pseudo=read geom=check guess=(
 read,tcheck) scf=(maxcycle=1)\\title\\0,1\P,0,0.087441,-1.038307,-0.44
 9192\N,0,1.477438,0.097985,0.049883\B,0,-1.432529,0.114989,0.043026\O,
 0,1.370151,1.288739,-0.265626\O,0,2.458899,-0.387303,0.571036\O,0,-2.5
 74988,-0.567989,0.299692\O,0,-1.362449,1.457997,0.033473\H,0,-0.458416
 ,1.773182,-0.145595\H,0,-3.32522,0.013031,0.476776\H,0,0.159694,-1.803
 995,0.733787\\Version=ES64L-G16RevC.01\State=1-A\HF=-722.8636353\RMSD=

 Normal termination of Gaussian 16 at Wed Apr  9 00:43:34 2025.
