 Gaussian 16, Revision C.01,

 ----------------------------------------------------------------------
 #t hf aug-cc-pvdz symm=none int=(grid=ultrafine) guess=(read,tcheck) s
 table=(opt,rrhf)
 ----------------------------------------------------------------------
 -----
 title
 -----
 Symbolic Z-matrix:
 Charge =  0 Multiplicity = 1

 SCF Done:  E(RHF) =  -1187.61205467     A.U. after   15 cycles

 1\1\GINC-SE036\Stability\RHF\Aug-CC-pVDZ\C7H6Cl2\OHZDE\08-Apr-2025\0\\
 #t hf aug-cc-pvdz symm=none int=(grid=ultrafine) guess=(read,tcheck) s
 table=(opt,rrhf)\\title\\0,1\C,0,1.210887,1.438013,0.\C,0,1.473715,0.0
 73766,0.\C,0,0.440118,-0.854762,0.\C,0,-0.870917,-0.390409,0.\C,0,-1.1
 89481,0.973418,0.\C,0,-0.112679,1.866233,0.\H,0,0.647056,-1.915605,0.\
 C,0,-2.611305,1.46708,0.\H,0,-3.155369,1.108812,0.878364\H,0,-3.155368
 ,1.108812,-0.878364\H,0,-2.639366,2.557521,0.000001\H,0,-0.32003,2.930
 634,0.\H,0,2.025216,2.150308,0.\Cl,0,-2.159579,-1.586386,0.\Cl,0,3.133

 Normal termination of Gaussian 16 at Tue Apr  8 23:17:45 2025.
 Gaussian 16:  ES64L-G16RevC.01  3-Jul-2019

 ----------------------------------------------------------------------
 #t hf aug-cc-pvdz iop(5/13=1,5/36=2,99/5=2) pseudo=read geom=check gue
 ss=(read,tcheck) scf=(maxcycle=1)
 ----------------------------------------------------------------------
 -----
 title
 -----
 Structure from the checkpoint file:  "BDE49_expt_91_mol1.chk"
 Charge =  0 Multiplicity = 1

                         Standard orientation:
 ---------------------------------------------------------------------
 Center     Atomic      Atomic             Coordinates (Angstroms)
 Number     Number       Type             X           Y           Z
 ---------------------------------------------------------------------
      1          6           0       -1.210887    1.438013    0.000000
      2          6           0       -1.473715    0.073766    0.000000
      3          6           0       -0.440118   -0.854762    0.000000
      4          6           0        0.870917   -0.390409    0.000000
      5          6           0        1.189481    0.973418    0.000000
      6          6           0        0.112679    1.866233    0.000000
      7          1           0       -0.647056   -1.915605    0.000000
      8          6           0        2.611305    1.467080    0.000000
      9          1           0        3.155369    1.108812   -0.878364
     10          1           0        3.155368    1.108812    0.878364
     11          1           0        2.639366    2.557521   -0.000001
     12          1           0        0.320030    2.930634    0.000000
     13          1           0       -2.025216    2.150308    0.000000
     14         17           0        2.159579   -1.586386    0.000000
     15         17           0       -3.133452   -0.494821    0.000000
 ---------------------------------------------------------------------

 SCF Done:  E(RHF) =  -1189.40452039     A.U. after    2 cycles

 The electronic state is 1-A.
 Alpha  occ. eigenvalues --  -99.90104 -99.90052 -11.52972 -11.48261 -11.46708
 Alpha  occ. eigenvalues --  -11.45929 -11.44338 -11.40451 -11.39365 -10.47465
 Alpha  occ. eigenvalues --  -10.47396  -9.67458  -9.67418  -9.66717  -9.66525
 Alpha  occ. eigenvalues --   -9.66447  -9.66352  -1.43865  -1.34545  -1.26858
 Alpha  occ. eigenvalues --   -1.14867  -1.10333  -1.00590  -0.89677  -0.85495
 Alpha  occ. eigenvalues --   -0.71999  -0.67588  -0.66189  -0.61015  -0.60931
 Alpha  occ. eigenvalues --   -0.58686  -0.57332  -0.56568  -0.55111  -0.53021
 Alpha  occ. eigenvalues --   -0.49074  -0.48124  -0.47224  -0.46451  -0.35172
 Alpha  occ. eigenvalues --   -0.33779
 Alpha virt. eigenvalues --    0.02992   0.04758   0.05098   0.06206   0.06813
 Alpha virt. eigenvalues --    0.06997   0.07138   0.08519   0.09437   0.09967
 Alpha virt. eigenvalues --    0.10309   0.11187   0.11746   0.11833   0.12714

 Mulliken charges:
               1
     1  C   -3.213164
     2  C   -2.088515
     3  C   -0.075617
     4  C   -0.916534
     5  C    4.120100
     6  C   -0.536331
     7  H    1.807601
     8  C   -4.375706
     9  H    1.097497
    10  H    1.097498
    11  H    1.306218
    12  H    1.765200
    13  H    1.750734
    14  Cl  -0.878755
    15  Cl  -0.860225
 Sum of Mulliken charges =   0.00000

 Dipole moment (field-independent basis, Debye):
    X=              0.9863    Y=              2.4532    Z=              0.0000  Tot=              2.6441

 Test job not archived.
 1\1\GINC-SE036\SP\RHF\Aug-CC-pVDZ\C7H6Cl2\OHZDE\08-Apr-2025\0\\#t hf a
 ug-cc-pvdz iop(5/13=1,5/36=2,99/5=2) pseudo=read geom=check guess=(rea
 d,tcheck) scf=(maxcycle=1)\\title\\0,1\C,0,1.210887,1.438013,0.\C,0,1.
 473715,0.073766,0.\C,0,0.440118,-0.854762,0.\C,0,-0.870917,-0.390409,0
 .\C,0,-1.189481,0.973418,0.\C,0,-0.112679,1.866233,0.\H,0,0.647056,-1.
 915605,0.\C,0,-2.611305,1.46708,0.\H,0,-3.155369,1.108812,0.878364\H,0
 ,-3.155368,1.108812,-0.878364\H,0,-2.639366,2.557521,0.000001\H,0,-0.3
 2003,2.930634,0.\H,0,2.025216,2.150308,0.\Cl,0,-2.159579,-1.586386,0.\

 Normal termination of Gaussian 16 at Tue Apr  8 23:17:52 2025.
