 Gaussian 16, Revision C.01,

 ----------------------------------------------------------------------
 #t hf aug-cc-pvdz symm=none int=(grid=ultrafine) guess=(read,tcheck) s
 table=(opt,rrhf)
 ----------------------------------------------------------------------
 -----
 title
 -----
 Symbolic Z-matrix:
 Charge =  0 Multiplicity = 1

 SCF Done:  E(RHF) =  -346.313911798     A.U. after   11 cycles

 1\1\GINC-SE096\Stability\RHF\Aug-CC-pVDZ\H5N1Si1\OHZDE\08-Apr-2025\0\\
 #t hf aug-cc-pvdz symm=none int=(grid=ultrafine) guess=(read,tcheck) s
 table=(opt,rrhf)\\title\\0,1\N,0,-1.147542,0.,-0.05859\Si,0,0.575922,0
 .,0.00325\H,0,-1.662198,0.830684,0.196234\H,0,-1.662199,-0.830684,0.19
 6235\H,0,1.052816,1.216048,-0.694282\H,0,1.052821,-1.216032,-0.694307\
 H,0,1.188648,-0.000013,1.360747\\Version=ES64L-G16RevC.01\HF=-346.3139
 118\RMSD=3.183e-09\Dipole=-0.3856611,-0.0000011,0.2998203\Quadrupole=0
 .9136716,0.8274823,-1.7411539,0.0000041,-1.3350721,-0.0000009\PG=Unkno

 Normal termination of Gaussian 16 at Tue Apr  8 23:56:52 2025.
 Gaussian 16:  ES64L-G16RevC.01  3-Jul-2019

 ----------------------------------------------------------------------
 #t hf aug-cc-pvdz iop(5/13=1,5/36=2,99/5=2) pseudo=read geom=check gue
 ss=(read,tcheck) scf=(maxcycle=1)
 ----------------------------------------------------------------------
 -----
 title
 -----
 Structure from the checkpoint file:  "BDE49_nonexpt_2010_mol1.chk"
 Charge =  0 Multiplicity = 1

                         Standard orientation:
 ---------------------------------------------------------------------
 Center     Atomic      Atomic             Coordinates (Angstroms)
 Number     Number       Type             X           Y           Z
 ---------------------------------------------------------------------
      1          7           0       -1.147542   -0.000000   -0.058590
      2         14           0        0.575922    0.000000    0.003250
      3          1           0       -1.662198    0.830684    0.196234
      4          1           0       -1.662199   -0.830684    0.196235
      5          1           0        1.052816    1.216048   -0.694282
      6          1           0        1.052821   -1.216032   -0.694307
      7          1           0        1.188648   -0.000013    1.360747
 ---------------------------------------------------------------------

 SCF Done:  E(RHF) =  -346.755481267     A.U. after    2 cycles

 The electronic state is 1-A.
 Alpha  occ. eigenvalues --  -76.21994 -15.73030  -5.55614  -2.20508  -2.17564
 Alpha  occ. eigenvalues --   -2.17080  -1.25185  -0.76271  -0.64875  -0.51407
 Alpha  occ. eigenvalues --   -0.47391  -0.46496  -0.37742
 Alpha virt. eigenvalues --    0.03767   0.05179   0.05606   0.06683   0.08024
 Alpha virt. eigenvalues --    0.08303   0.09988   0.10067   0.15000   0.17303
 Alpha virt. eigenvalues --    0.17939   0.18900   0.21084   0.21482   0.21762

 Mulliken charges:
               1
     1  N   -2.094555
     2  Si   5.541364
     3  H    0.651019
     4  H    0.651018
     5  H   -1.577510
     6  H   -1.577510
     7  H   -1.593827
 Sum of Mulliken charges =  -0.00000

 Dipole moment (field-independent basis, Debye):
    X=             -1.2879    Y=             -0.0000    Z=              0.6160  Tot=              1.4276

 Test job not archived.
 1\1\GINC-SE096\SP\RHF\Aug-CC-pVDZ\H5N1Si1\OHZDE\08-Apr-2025\0\\#t hf a
 ug-cc-pvdz iop(5/13=1,5/36=2,99/5=2) pseudo=read geom=check guess=(rea
 d,tcheck) scf=(maxcycle=1)\\title\\0,1\N,0,-1.147542,0.,-0.05859\Si,0,
 0.575922,0.,0.00325\H,0,-1.662198,0.830684,0.196234\H,0,-1.662199,-0.8
 30684,0.196235\H,0,1.052816,1.216048,-0.694282\H,0,1.052821,-1.216032,
 -0.694307\H,0,1.188648,-0.000013,1.360747\\Version=ES64L-G16RevC.01\St
 ate=1-A\HF=-346.7554813\RMSD=8.308e-02\Dipole=-0.5066875,-0.0000016,0.
 2423592\Quadrupole=0.9438203,0.7897442,-1.7335646,0.0000062,-1.254395,

 Normal termination of Gaussian 16 at Tue Apr  8 23:56:54 2025.
