 Gaussian 16, Revision C.01,

 ----------------------------------------------------------------------
 #t hf aug-cc-pvdz symm=none int=(grid=ultrafine) guess=(read,tcheck) s
 table=opt
 ----------------------------------------------------------------------
 -----
 title
 -----
 Symbolic Z-matrix:
 Charge =  0 Multiplicity = 2

 SCF Done:  E(UHF) =  -177.470148649     A.U. after   15 cycles
 Normal termination of Gaussian 16 at Tue Apr  8 22:40:25 2025.
 Gaussian 16:  ES64L-G16RevC.01  3-Jul-2019

 ----------------------------------------------------------------------
 #t hf aug-cc-pvdz iop(5/13=1,5/36=2,99/5=2) pseudo=read geom=check gue
 ss=(read,tcheck) scf=(maxcycle=1)
 ----------------------------------------------------------------------
 -----
 title
 -----
 Structure from the checkpoint file:  "BDE49_expt_127_mol2.chk"
 Charge =  0 Multiplicity = 2

                         Standard orientation:
 ---------------------------------------------------------------------
 Center     Atomic      Atomic             Coordinates (Angstroms)
 Number     Number       Type             X           Y           Z
 ---------------------------------------------------------------------
      1          6           0        1.222759   -0.250935   -0.029215
      2          6           0       -0.032762    0.520938    0.064175
      3          1           0        2.134691    0.218215   -0.374546
      4          1           0        1.262983   -1.251379    0.381317
      5          1           0       -0.097290    1.285012   -0.718678
      6          1           0       -0.133146    1.026896    1.037507
      7          9           0       -1.145247   -0.322084   -0.059484
 ---------------------------------------------------------------------

 SCF Done:  E(UHF) =  -178.183537184     A.U. after    2 cycles

 The electronic state is 2-A.
 Alpha  occ. eigenvalues --  -29.24599 -11.45136 -11.38828  -1.22470  -0.94050
 Alpha  occ. eigenvalues --   -0.69696  -0.65492  -0.59350  -0.54651  -0.37129
 Alpha  occ. eigenvalues --   -0.33564  -0.24687  -0.24589
 Alpha virt. eigenvalues --    0.03942   0.05514   0.05944   0.06403   0.12179
 Alpha virt. eigenvalues --    0.12913   0.13173   0.13630   0.16114   0.17387
 Alpha virt. eigenvalues --    0.19261   0.20499   0.25392   0.26453   0.30395

  Beta  occ. eigenvalues --  -29.24531 -11.45251 -11.36774  -1.19923  -0.87923
  Beta  occ. eigenvalues --   -0.68905  -0.63274  -0.58232  -0.53719  -0.36078
  Beta  occ. eigenvalues --   -0.24708  -0.24239
  Beta virt. eigenvalues --    0.04068   0.05551   0.05957   0.06418   0.08472
  Beta virt. eigenvalues --    0.12249   0.12954   0.13673   0.16397   0.16449
  Beta virt. eigenvalues --    0.19361   0.19849   0.20906   0.25532   0.27608

 Mulliken charges and spin densities:
               1          2
     1  C   -2.860796   1.439263
     2  C   -2.885641  -0.311930
     3  H    1.330608  -0.079915
     4  H    1.369114  -0.069695
     5  H    1.355919   0.009558
     6  H    1.380702   0.018197
     7  F    0.310094  -0.005477
 Sum of Mulliken charges =  -0.00000   1.00000

 Dipole moment (field-independent basis, Debye):
    X=             -0.6566    Y=             -0.3672    Z=              0.0036  Tot=              0.7523
                          Isotropic Fermi Contact Couplings
        Atom                 a.u.       MegaHertz       Gauss      10(-4) cm-1
     1  C(13)              0.12955     145.63923      51.96770      48.58002
     2  C(13)             -0.03426     -38.51916     -13.74459     -12.84861
     3  H(1)              -0.01842     -82.31289     -29.37129     -27.45663
     4  H(1)              -0.01828     -81.71537     -29.15807     -27.25731
     5  H(1)               0.00733      32.77280      11.69415      10.93183
     6  H(1)               0.01954      87.33470      31.16319      29.13172
     7  F(19)              0.01012      42.56540      15.18839      14.19829
 --------------------------------------------------------

 Normal termination of Gaussian 16 at Tue Apr  8 22:40:26 2025.
