 Gaussian 16, Revision C.01,

 ----------------------------------------------------------------------
 #t hf aug-cc-pvdz symm=none int=(grid=ultrafine) guess=(read,tcheck) s
 table=(opt,rrhf)
 ----------------------------------------------------------------------
 -----
 title
 -----
 Symbolic Z-matrix:
 Charge =  0 Multiplicity = 1

 SCF Done:  E(RHF) =  -1063.54965566     A.U. after   13 cycles
 Normal termination of Gaussian 16 at Tue Apr  8 23:44:15 2025.
 Gaussian 16:  ES64L-G16RevC.01  3-Jul-2019

 ----------------------------------------------------------------------
 #t hf aug-cc-pvdz iop(5/13=1,5/36=2,99/5=2) pseudo=read geom=check gue
 ss=(read,tcheck) scf=(maxcycle=1)
 ----------------------------------------------------------------------
 -----
 title
 -----
 Structure from the checkpoint file:  "BDE49_nonexpt_1705_mol1.chk"
 Charge =  0 Multiplicity = 1

                         Standard orientation:
 ---------------------------------------------------------------------
 Center     Atomic      Atomic             Coordinates (Angstroms)
 Number     Number       Type             X           Y           Z
 ---------------------------------------------------------------------
      1          9           0       -2.068603   -0.728808    0.006215
      2         16           0       -1.271139    0.750223   -0.024740
      3         15           0        0.721284    0.088618   -0.019476
      4          8           0        1.522048    1.309537   -0.045921
      5          8           0        0.923278   -0.930064   -1.217176
      6          1           0        0.749131   -1.852294   -0.991129
      7          8           0        0.881155   -0.930626    1.207158
      8          1           0        0.775429   -0.512038    2.070686
 ---------------------------------------------------------------------

 SCF Done:  E(RHF) =  -1065.23124347     A.U. after    2 cycles

 The electronic state is 1-A.
 Alpha  occ. eigenvalues -- -105.34591 -75.78780 -29.29615 -21.15117 -21.14635
 Alpha  occ. eigenvalues --  -21.05447 -13.22247 -13.15813 -13.10606  -8.12818
 Alpha  occ. eigenvalues --   -2.97384  -2.03729  -1.93122  -1.81571  -1.57133
 Alpha  occ. eigenvalues --   -1.43316  -1.28309  -1.16860  -0.74081  -0.65652
 Alpha  occ. eigenvalues --   -0.65279  -0.53758  -0.48437  -0.45957  -0.42135
 Alpha  occ. eigenvalues --   -0.41807  -0.39351  -0.37033  -0.34276  -0.30806
 Alpha  occ. eigenvalues --   -0.21810  -0.21049  -0.14775
 Alpha virt. eigenvalues --    0.03177   0.05317   0.07596   0.10108   0.11303
 Alpha virt. eigenvalues --    0.11908   0.12895   0.13087   0.14183   0.18355
 Alpha virt. eigenvalues --    0.19724   0.20646   0.21410   0.22801   0.23595

 Mulliken charges:
               1
     1  F   -0.301288
     2  S   -1.254684
     3  P    7.553721
     4  O   -2.670348
     5  O   -2.528370
     6  H    0.869592
     7  O   -2.636758
     8  H    0.968136
 Sum of Mulliken charges =  -0.00000

 Dipole moment (field-independent basis, Debye):
    X=             -1.5699    Y=             -5.5178    Z=              0.7029  Tot=              5.7797

 Test job not archived.
 1\1\GINC-SE109\SP\RHF\Aug-CC-pVDZ\F1H2O3P1S1\OHZDE\08-Apr-2025\0\\#t h
 f aug-cc-pvdz iop(5/13=1,5/36=2,99/5=2) pseudo=read geom=check guess=(
 read,tcheck) scf=(maxcycle=1)\\title\\0,1\F,0,-2.068603,-0.728808,0.00
 6215\S,0,-1.271139,0.750223,-0.02474\P,0,0.721284,0.088618,-0.019476\O
 ,0,1.522048,1.309537,-0.045921\O,0,0.923278,-0.930064,-1.217176\H,0,0.
 749131,-1.852294,-0.991129\O,0,0.881155,-0.930626,1.207158\H,0,0.77542
 9,-0.512038,2.070686\\Version=ES64L-G16RevC.01\State=1-A\HF=-1065.2312
 435\RMSD=1.007e-01\Dipole=-0.6176285,-2.1708633,0.2765478\Quadrupole=-

 Normal termination of Gaussian 16 at Tue Apr  8 23:44:19 2025.
