 Gaussian 16, Revision C.01,

 ----------------------------------------------------------------------
 #t hf aug-cc-pvdz symm=none int=(grid=ultrafine) guess=(read,tcheck) s
 table=(opt,rrhf)
 ----------------------------------------------------------------------
 -----
 title
 -----
 Symbolic Z-matrix:
 Charge =  0 Multiplicity = 1

 SCF Done:  E(RHF) =  -763.650659329     A.U. after   13 cycles
 Normal termination of Gaussian 16 at Wed Apr  9 00:15:33 2025.
 Gaussian 16:  ES64L-G16RevC.01  3-Jul-2019

 ----------------------------------------------------------------------
 #t hf aug-cc-pvdz iop(5/13=1,5/36=2,99/5=2) pseudo=read geom=check gue
 ss=(read,tcheck) scf=(maxcycle=1)
 ----------------------------------------------------------------------
 -----
 title
 -----
 Structure from the checkpoint file:  "BDE49_nonexpt_2501_mol1.chk"
 Charge =  0 Multiplicity = 1

                         Standard orientation:
 ---------------------------------------------------------------------
 Center     Atomic      Atomic             Coordinates (Angstroms)
 Number     Number       Type             X           Y           Z
 ---------------------------------------------------------------------
      1         16           0        0.636851   -0.683986    0.006523
      2         14           0       -1.344063    0.184786    0.001317
      3          8           0        1.527748    0.784499   -0.116143
      4          1           0        1.770162    1.016696    0.788955
      5          1           0       -2.271739   -0.965719    0.092503
      6          1           0       -1.577780    0.948342   -1.242019
      7          1           0       -1.515350    1.081460    1.166896
 ---------------------------------------------------------------------

 SCF Done:  E(RHF) =  -764.351820012     A.U. after    2 cycles

 The electronic state is 1-A.
 Alpha  occ. eigenvalues --  -76.24983 -75.72019 -21.10608 -13.15654 -13.09662
 Alpha  occ. eigenvalues --  -13.05317  -8.05719  -5.58350  -2.20374  -2.20283
 Alpha  occ. eigenvalues --   -2.20158  -1.71688  -1.05090  -0.77088  -0.60320
 Alpha  occ. eigenvalues --   -0.50258  -0.48954  -0.46584  -0.42916  -0.29444
 Alpha  occ. eigenvalues --   -0.26399
 Alpha virt. eigenvalues --    0.03668   0.04109   0.04878   0.06008   0.08036
 Alpha virt. eigenvalues --    0.09718   0.09978   0.10468   0.11304   0.14459
 Alpha virt. eigenvalues --    0.14837   0.15467   0.18376   0.18692   0.19591

 Mulliken charges:
               1
     1  S   -0.236869
     2  Si   5.946535
     3  O   -1.877403
     4  H    0.949112
     5  H   -1.564318
     6  H   -1.619368
     7  H   -1.597689
 Sum of Mulliken charges =  -0.00000

 Dipole moment (field-independent basis, Debye):
    X=              1.1804    Y=             -0.5239    Z=              0.4374  Tot=              1.3634

 Test job not archived.
 1\1\GINC-SE339\SP\RHF\Aug-CC-pVDZ\H4O1S1Si1\OHZDE\09-Apr-2025\0\\#t hf
  aug-cc-pvdz iop(5/13=1,5/36=2,99/5=2) pseudo=read geom=check guess=(r
 ead,tcheck) scf=(maxcycle=1)\\title\\0,1\S,0,0.636851,-0.683986,0.0065
 23\Si,0,-1.344063,0.184786,0.001317\O,0,1.527748,0.7845,-0.116143\H,0,
 1.770162,1.016697,0.788955\H,0,-2.271739,-0.965719,0.092503\H,0,-1.577
 78,0.948342,-1.242019\H,0,-1.51535,1.08146,1.166896\\Version=ES64L-G16
 RevC.01\State=1-A\HF=-764.35182\RMSD=8.731e-02\Dipole=0.4643877,-0.206
 0989,0.1720766\Quadrupole=0.8452249,0.3104333,-1.1556582,0.2860834,1.3

 Normal termination of Gaussian 16 at Wed Apr  9 00:15:34 2025.
