 Gaussian 16, Revision C.01,

 ----------------------------------------------------------------------
 #t hf aug-cc-pvdz symm=none int=(grid=ultrafine) guess=(read,tcheck) s
 table=opt
 ----------------------------------------------------------------------
 -----
 title
 -----
 Symbolic Z-matrix:
 Charge =  0 Multiplicity = 2

 SCF Done:  E(UHF) =  -743.914150017     A.U. after   21 cycles
 Normal termination of Gaussian 16 at Wed Apr  9 00:27:59 2025.
 Gaussian 16:  ES64L-G16RevC.01  3-Jul-2019

 ----------------------------------------------------------------------
 #t hf aug-cc-pvdz iop(5/13=1,5/36=2,99/5=2) pseudo=read geom=check gue
 ss=(read,tcheck) scf=(maxcycle=1)
 ----------------------------------------------------------------------
 -----
 title
 -----
 Structure from the checkpoint file:  "BDE49_nonexpt_2718_mol2.chk"
 Charge =  0 Multiplicity = 2

                         Standard orientation:
 ---------------------------------------------------------------------
 Center     Atomic      Atomic             Coordinates (Angstroms)
 Number     Number       Type             X           Y           Z
 ---------------------------------------------------------------------
      1         16           0        2.883201    0.000038   -0.686861
      2          6           0        1.463366   -0.000047    0.366135
      3          8           0        1.706168   -0.000072    1.554707
      4          6           0        0.075557   -0.000012   -0.231582
      5          6           0       -0.688551   -1.274231    0.197092
      6          6           0       -2.126604   -1.267184   -0.338179
      7          1           0       -0.696390   -1.319401    1.291022
      8          1           0       -0.154608   -2.162444   -0.154353
      9          6           0       -2.882806    0.000021    0.082939
     10          1           0       -2.652126   -2.159468    0.015732
     11          1           0       -2.107247   -1.331863   -1.433646
     12          6           0       -2.126569    1.267229   -0.338107
     13          1           0       -3.008247   -0.000008    1.173025
     14          1           0       -3.888928    0.000047   -0.347497
     15          6           0       -0.688515    1.274205    0.197163
     16          1           0       -2.652065    2.159508    0.015853
     17          1           0       -2.107209    1.331969   -1.433571
     18          1           0       -0.154546    2.162423   -0.154231
     19          1           0       -0.696353    1.319312    1.291096
     20          1           0        0.181889    0.000018   -1.324074
 ---------------------------------------------------------------------

 SCF Done:  E(UHF) =  -745.767834070     A.U. after    2 cycles

 The electronic state is 2-A.
 Alpha  occ. eigenvalues --  -75.73082 -21.06326 -13.17359 -13.09713 -13.04800
 Alpha  occ. eigenvalues --  -11.51611 -11.45635 -11.44677 -11.43322 -11.39318
 Alpha  occ. eigenvalues --  -11.38771 -11.35538  -8.06917  -1.72665  -1.33484
 Alpha  occ. eigenvalues --   -1.18097  -1.11649  -1.11468  -0.92788  -0.89622
 Alpha  occ. eigenvalues --   -0.80516  -0.74775  -0.66522  -0.63626  -0.62187
 Alpha  occ. eigenvalues --   -0.62139  -0.54879  -0.54510  -0.53675  -0.52089
 Alpha  occ. eigenvalues --   -0.48160  -0.46404  -0.45134  -0.45094  -0.42696
 Alpha  occ. eigenvalues --   -0.39419  -0.31311  -0.26559  -0.26133
 Alpha virt. eigenvalues --    0.03707   0.04670   0.05117   0.05182   0.05352
 Alpha virt. eigenvalues --    0.05393   0.06456   0.06549   0.07470   0.08097
 Alpha virt. eigenvalues --    0.08781   0.09163   0.11023   0.11077   0.12588

  Beta  occ. eigenvalues --  -75.72064 -21.06173 -13.16806 -13.04151 -13.03589
  Beta  occ. eigenvalues --  -11.51702 -11.45625 -11.44675 -11.43322 -11.39312
  Beta  occ. eigenvalues --  -11.38770 -11.35536  -8.05776  -1.72331  -1.33356
  Beta  occ. eigenvalues --   -1.15402  -1.11465  -1.06844  -0.91914  -0.89619
  Beta  occ. eigenvalues --   -0.80174  -0.74058  -0.66468  -0.62923  -0.62142
  Beta  occ. eigenvalues --   -0.61686  -0.54526  -0.54132  -0.53669  -0.51689
  Beta  occ. eigenvalues --   -0.48158  -0.46194  -0.45049  -0.45036  -0.41957
  Beta  occ. eigenvalues --   -0.39381  -0.26411  -0.25048
  Beta virt. eigenvalues --    0.02981   0.03916   0.04987   0.05131   0.05332
  Beta virt. eigenvalues --    0.05393   0.05737   0.06519   0.06554   0.07903
  Beta virt. eigenvalues --    0.08225   0.08784   0.09579   0.11053   0.11592

 Mulliken charges and spin densities:
               1          2
     1  S    0.405527   1.136401
     2  C    1.990873  -0.098676
     3  O   -3.165427  -0.001563
     4  C    1.042682  -0.121623
     5  C   -3.629782   0.040732
     6  C   -2.905078  -0.011211
     7  H    1.431779  -0.002631
     8  H    1.363237   0.007810
     9  C   -2.640661   0.001350
    10  H    1.232986  -0.000088
    11  H    1.371867  -0.002156
    12  C   -2.905103  -0.011213
    13  H    1.396713   0.000246
    14  H    1.324079  -0.000024
    15  C   -3.629841   0.040738
    16  H    1.232985  -0.000088
    17  H    1.371866  -0.002156
    18  H    1.363251   0.007812
    19  H    1.431776  -0.002630
    20  H    1.916272   0.018970
 Sum of Mulliken charges =  -0.00000   1.00000

 Dipole moment (field-independent basis, Debye):
    X=             -0.8360    Y=              0.0001    Z=             -1.2020  Tot=              1.4641
                          Isotropic Fermi Contact Couplings
        Atom                 a.u.       MegaHertz       Gauss      10(-4) cm-1
     1  S(33)              0.31496     108.18022      38.60139      36.08504
     2  C(13)             -0.01035     -11.63070      -4.15012      -3.87959
     3  O(17)              0.02505     -15.18573      -5.41865      -5.06541
     4  C(13)              0.00213       2.39408       0.85427       0.79858
     5  C(13)              0.00079       0.89047       0.31774       0.29703
     6  C(13)              0.00008       0.08842       0.03155       0.02949
     7  H(1)               0.00001       0.05997       0.02140       0.02000
     8  H(1)               0.00000       0.00432       0.00154       0.00144

 Normal termination of Gaussian 16 at Wed Apr  9 00:28:11 2025.
