 Gaussian 16, Revision C.01,

 ----------------------------------------------------------------------
 #t hf aug-cc-pvdz symm=none int=(grid=ultrafine) guess=(read,tcheck) s
 table=(opt,rrhf)
 ----------------------------------------------------------------------
 -----
 title
 -----
 Symbolic Z-matrix:
 Charge =  0 Multiplicity = 1

 SCF Done:  E(RHF) =  -1453.30881039     A.U. after   15 cycles
 Normal termination of Gaussian 16 at Wed Apr  9 00:14:04 2025.
 Gaussian 16:  ES64L-G16RevC.01  3-Jul-2019

 ----------------------------------------------------------------------
 #t hf aug-cc-pvdz iop(5/13=1,5/36=2,99/5=2) pseudo=read geom=check gue
 ss=(read,tcheck) scf=(maxcycle=1)
 ----------------------------------------------------------------------
 -----
 title
 -----
 Structure from the checkpoint file:  "BDE49_nonexpt_2440_mol1.chk"
 Charge =  0 Multiplicity = 1

                         Standard orientation:
 ---------------------------------------------------------------------
 Center     Atomic      Atomic             Coordinates (Angstroms)
 Number     Number       Type             X           Y           Z
 ---------------------------------------------------------------------
      1         14           0       -2.863263   -0.013659   -0.707094
      2         14           0       -1.198397   -0.607925    0.854350
      3          6           0        0.479526    0.107321    0.302895
      4          1           0       -1.093056   -2.087250    0.949252
      5          1           0       -1.492623   -0.061287    2.197077
      6         16           0        0.663587    1.742168    0.234316
      7         16           0        1.670657   -1.085706   -0.102655
      8          1           0       -4.131785   -0.686324   -0.333582
      9          1           0       -2.462038   -0.470813   -2.058809
     10          1           0       -3.075263    1.450266   -0.724044
     11          6           0        3.115422   -0.123611   -0.633555
     12          1           0        3.878124   -0.853026   -0.907415
     13          1           0        3.465925    0.506511    0.183177
     14          1           0        2.856360    0.498426   -1.489862
 ---------------------------------------------------------------------

 SCF Done:  E(RHF) =  -1454.46830032     A.U. after    2 cycles

 The electronic state is 1-A.
 Alpha  occ. eigenvalues --  -76.23190 -76.22224 -75.71976 -75.67110 -13.15844
 Alpha  occ. eigenvalues --  -13.14276 -13.12848 -13.05446 -13.04364 -12.99480
 Alpha  occ. eigenvalues --  -11.45998 -11.40923  -8.06240  -8.01156  -5.56778
 Alpha  occ. eigenvalues --   -5.55619  -2.20630  -2.19093  -2.18209  -2.17705
 Alpha  occ. eigenvalues --   -2.17665  -2.16597  -1.28831  -1.12833  -0.98890
 Alpha  occ. eigenvalues --   -0.84463  -0.76745  -0.68070  -0.61155  -0.60106
 Alpha  occ. eigenvalues --   -0.51810  -0.49521  -0.48063  -0.46965  -0.46272
 Alpha  occ. eigenvalues --   -0.42581  -0.36811  -0.34542  -0.23192  -0.21104
 Alpha virt. eigenvalues --    0.02660   0.04096   0.04243   0.05218   0.05686
 Alpha virt. eigenvalues --    0.06538   0.07089   0.07650   0.07896   0.08243
 Alpha virt. eigenvalues --    0.08667   0.09275   0.09704   0.09852   0.10332

 Mulliken charges:
               1
     1  Si   4.623689
     2  Si   4.527531
     3  C   -2.478348
     4  H   -1.761089
     5  H   -1.778313
     6  S    0.724463
     7  S    1.359298
     8  H   -1.580285
     9  H   -1.486335
    10  H   -1.490873
    11  C   -4.939575
    12  H    1.305456
    13  H    1.473681
    14  H    1.500699
 Sum of Mulliken charges =  -0.00000

 Dipole moment (field-independent basis, Debye):
    X=              1.6416    Y=             -0.1223    Z=             -0.6122  Tot=              1.7563

 Test job not archived.
 1\1\GINC-SE454\SP\RHF\Aug-CC-pVDZ\C2H8S2Si2\OHZDE\09-Apr-2025\0\\#t hf
  aug-cc-pvdz iop(5/13=1,5/36=2,99/5=2) pseudo=read geom=check guess=(r
 ead,tcheck) scf=(maxcycle=1)\\title\\0,1\Si,0,2.863263,-0.013659,0.707
 094\Si,0,1.198397,-0.607925,-0.85435\C,0,-0.479526,0.107321,-0.302895\
 H,0,1.093056,-2.08725,-0.949252\H,0,1.492623,-0.061287,-2.197077\S,0,-
 0.663587,1.742168,-0.234316\S,0,-1.670657,-1.085706,0.102655\H,0,4.131
 785,-0.686324,0.333582\H,0,2.462038,-0.470813,2.058809\H,0,3.075263,1.
 450266,0.724044\C,0,-3.115422,-0.123611,0.633555\H,0,-3.878124,-0.8530

 Normal termination of Gaussian 16 at Wed Apr  9 00:14:09 2025.
