 Gaussian 16, Revision C.01,

 ----------------------------------------------------------------------
 #t hf aug-cc-pvdz symm=none int=(grid=ultrafine) guess=(read,tcheck) s
 table=(opt,rrhf)
 ----------------------------------------------------------------------
 -----
 title
 -----
 Symbolic Z-matrix:
 Charge =  0 Multiplicity = 1

 SCF Done:  E(RHF) =  -805.941010425     A.U. after   12 cycles
 Normal termination of Gaussian 16 at Wed Apr  9 00:14:52 2025.
 Gaussian 16:  ES64L-G16RevC.01  3-Jul-2019

 ----------------------------------------------------------------------
 #t hf aug-cc-pvdz iop(5/13=1,5/36=2,99/5=2) pseudo=read geom=check gue
 ss=(read,tcheck) scf=(maxcycle=1)
 ----------------------------------------------------------------------
 -----
 title
 -----
 Structure from the checkpoint file:  "BDE49_nonexpt_2466_mol1.chk"
 Charge =  0 Multiplicity = 1

                         Standard orientation:
 ---------------------------------------------------------------------
 Center     Atomic      Atomic             Coordinates (Angstroms)
 Number     Number       Type             X           Y           Z
 ---------------------------------------------------------------------
      1         16           0       -1.977548   -0.908890   -0.105480
      2         14           0       -0.894700    0.962619    0.126078
      3          6           0        0.877776    0.671087   -0.428654
      4          1           0       -3.146027   -0.431816    0.359064
      5          6           0        1.684923   -0.342490    0.404174
      6          1           0        1.375606    1.649938   -0.407473
      7          1           0        0.862259    0.367843   -1.482771
      8          6           0        3.131729   -0.492323   -0.077580
      9          1           0        1.191210   -1.319472    0.375305
     10          1           0        1.682890   -0.035058    1.456016
     11          1           0        3.167555   -0.834424   -1.116416
     12          1           0        3.679446   -1.216986    0.531311
     13          1           0        3.666419    0.461107   -0.024042
     14          1           0       -0.946453    1.392360    1.544202
     15          1           0       -1.532902    2.014430   -0.700244
 ---------------------------------------------------------------------

 SCF Done:  E(RHF) =  -806.956069643     A.U. after    2 cycles

 The electronic state is 1-A.
 Alpha  occ. eigenvalues --  -76.23354 -75.67918 -13.13756 -13.06387 -13.02114
 Alpha  occ. eigenvalues --  -11.41620 -11.37728 -11.34798  -8.01883  -5.56874
 Alpha  occ. eigenvalues --   -2.20694  -2.18909  -2.18751  -1.21213  -1.09731
 Alpha  occ. eigenvalues --   -1.00041  -0.85181  -0.72548  -0.64096  -0.57732
 Alpha  occ. eigenvalues --   -0.54856  -0.53729  -0.49840  -0.48355  -0.46890
 Alpha  occ. eigenvalues --   -0.45680  -0.39123  -0.33847  -0.26713
 Alpha virt. eigenvalues --    0.03527   0.04116   0.04532   0.05322   0.06068
 Alpha virt. eigenvalues --    0.06173   0.06663   0.06841   0.08709   0.09033
 Alpha virt. eigenvalues --    0.09796   0.10323   0.11272   0.12134   0.12784

 Mulliken charges:
               1
     1  S   -2.503899
     2  Si   6.015847
     3  C   -3.835249
     4  H    0.994718
     5  C   -2.910363
     6  H    1.474511
     7  H    1.493461
     8  C   -3.715203
     9  H    1.452415
    10  H    1.508066
    11  H    1.251039
    12  H    1.151974
    13  H    1.289058
    14  H   -1.853644
    15  H   -1.812731
 Sum of Mulliken charges =  -0.00000

 Dipole moment (field-independent basis, Debye):
    X=              1.2603    Y=             -1.4375    Z=             -0.5771  Tot=              1.9970

 Test job not archived.
 1\1\GINC-SE343\SP\RHF\Aug-CC-pVDZ\C3H10S1Si1\OHZDE\09-Apr-2025\0\\#t h
 f aug-cc-pvdz iop(5/13=1,5/36=2,99/5=2) pseudo=read geom=check guess=(
 read,tcheck) scf=(maxcycle=1)\\title\\0,1\S,0,-1.977548,-0.90889,-0.10
 548\Si,0,-0.8947,0.962619,0.126078\C,0,0.877776,0.671087,-0.428654\H,0
 ,-3.146027,-0.431816,0.359064\C,0,1.684923,-0.34249,0.404174\H,0,1.375
 606,1.649938,-0.407473\H,0,0.862259,0.367843,-1.482771\C,0,3.131729,-0
 .492323,-0.07758\H,0,1.19121,-1.319472,0.375305\H,0,1.68289,-0.035058,
 1.456016\H,0,3.167555,-0.834424,-1.116416\H,0,3.679446,-1.216986,0.531

 Normal termination of Gaussian 16 at Wed Apr  9 00:14:57 2025.
