 Gaussian 16, Revision C.01,

 ----------------------------------------------------------------------
 #t hf aug-cc-pvdz symm=none int=(grid=ultrafine) guess=(read,tcheck) s
 table=(opt,rrhf)
 ----------------------------------------------------------------------
 -----
 title
 -----
 Symbolic Z-matrix:
 Charge =  0 Multiplicity = 1

 SCF Done:  E(RHF) =  -647.634059587     A.U. after   15 cycles
 Normal termination of Gaussian 16 at Tue Apr  8 23:17:48 2025.
 Gaussian 16:  ES64L-G16RevC.01  3-Jul-2019

 ----------------------------------------------------------------------
 #t hf aug-cc-pvdz iop(5/13=1,5/36=2,99/5=2) pseudo=read geom=check gue
 ss=(read,tcheck) scf=(maxcycle=1)
 ----------------------------------------------------------------------
 -----
 title
 -----
 Structure from the checkpoint file:  "BDE49_nonexpt_1044_mol1.chk"
 Charge =  0 Multiplicity = 1

                         Standard orientation:
 ---------------------------------------------------------------------
 Center     Atomic      Atomic             Coordinates (Angstroms)
 Number     Number       Type             X           Y           Z
 ---------------------------------------------------------------------
      1         17           0       -1.292359   -0.264978    0.000000
      2          8           0        0.000000    0.904009    0.000000
      3          6           0        1.253443    0.369725    0.000000
      4          8           0        1.565871   -0.773985    0.000000
      5          1           0        1.922481    1.246085    0.000000
 ---------------------------------------------------------------------

 SCF Done:  E(RHF) =  -648.646337815     A.U. after    2 cycles

 The electronic state is 1-A'.
 Alpha  occ. eigenvalues --  -99.96561 -21.16563 -21.09475 -11.53990 -10.53234
 Alpha  occ. eigenvalues --   -9.73064  -9.72227  -9.72109  -1.87002  -1.70750
 Alpha  occ. eigenvalues --   -1.28159  -0.88923  -0.71539  -0.63301  -0.61960
 Alpha  occ. eigenvalues --   -0.56614  -0.53282  -0.48690  -0.36977  -0.34213
 Alpha virt. eigenvalues --    0.02129   0.03780   0.08591   0.10087   0.11008
 Alpha virt. eigenvalues --    0.12835   0.13452   0.13761   0.15822   0.15850
 Alpha virt. eigenvalues --    0.20584   0.21739   0.22936   0.24789   0.27032

 Mulliken charges:
               1
     1  Cl   0.501428
     2  O   -1.899666
     3  C    2.196103
     4  O   -2.198532
     5  H    1.400668
 Sum of Mulliken charges =   0.00000

 Dipole moment (field-independent basis, Debye):
    X=              1.4043    Y=              1.6465    Z=              0.0000  Tot=              2.1640

 Test job not archived.
 1\1\GINC-SE458\SP\RHF\Aug-CC-pVDZ\C1H1Cl1O2\OHZDE\08-Apr-2025\0\\#t hf
  aug-cc-pvdz iop(5/13=1,5/36=2,99/5=2) pseudo=read geom=check guess=(r
 ead,tcheck) scf=(maxcycle=1)\\title\\0,1\Cl,0,-1.292359,-0.264978,0.\O
 ,0,0.,0.904009,0.\C,0,1.253443,0.369725,0.\O,0,1.565871,-0.773985,0.\H
 ,0,1.922481,1.246085,0.\\Version=ES64L-G16RevC.01\State=1-A'\HF=-648.6
 463378\RMSD=4.708e-02\Dipole=0.5524799,0.6477967,0.\Quadrupole=0.63181
 78,0.0136997,-0.6455174,2.9286334,0.,0.\PG=CS [SG(C1H1Cl1O2)]\\@

 Normal termination of Gaussian 16 at Tue Apr  8 23:17:50 2025.
