 Gaussian 16, Revision C.01,

 ----------------------------------------------------------------------
 #t hf aug-cc-pvdz symm=none int=(grid=ultrafine) guess=(read,tcheck) s
 table=(opt,rrhf)
 ----------------------------------------------------------------------
 -----
 title
 -----
 Symbolic Z-matrix:
 Charge =  0 Multiplicity = 1

 SCF Done:  E(RHF) =  -1175.68513038     A.U. after   16 cycles
 Normal termination of Gaussian 16 at Tue Apr  8 23:17:56 2025.
 Gaussian 16:  ES64L-G16RevC.01  3-Jul-2019

 ----------------------------------------------------------------------
 #t hf aug-cc-pvdz iop(5/13=1,5/36=2,99/5=2) pseudo=read geom=check gue
 ss=(read,tcheck) scf=(maxcycle=1)
 ----------------------------------------------------------------------
 -----
 title
 -----
 Structure from the checkpoint file:  "BDE49_nonexpt_1045_mol1.chk"
 Charge =  0 Multiplicity = 1

                         Standard orientation:
 ---------------------------------------------------------------------
 Center     Atomic      Atomic             Coordinates (Angstroms)
 Number     Number       Type             X           Y           Z
 ---------------------------------------------------------------------
      1         17           0       -2.490543    0.242343    0.001981
      2          8           0       -1.200006   -0.936061    0.003245
      3         15           0        1.143315    0.099506    0.062147
      4          8           0        2.149254    0.438387    1.059393
      5          8           0        0.566002    1.224140   -0.888768
      6          1           0        0.417009    2.059996   -0.430545
      7          8           0        1.481184   -0.974471   -1.048093
      8          1           0        2.027333   -1.695250   -0.712073
      9          8           0       -0.153288   -0.499142    0.896316
 ---------------------------------------------------------------------

 SCF Done:  E(RHF) =  -1177.65636715     A.U. after    2 cycles

 The electronic state is 1-A.
 Alpha  occ. eigenvalues -- -105.35235 -99.96861 -21.19090 -21.15178 -21.14612
 Alpha  occ. eigenvalues --  -21.14530 -21.05031 -10.53556  -9.73378  -9.72596
 Alpha  occ. eigenvalues --   -9.72489  -2.98560  -2.04955  -2.03741  -1.94722
 Alpha  occ. eigenvalues --   -1.82392  -1.66642  -1.42927  -1.39148  -1.27507
 Alpha  occ. eigenvalues --   -1.21026  -0.73060  -0.65827  -0.64099  -0.62343
 Alpha  occ. eigenvalues --   -0.61018  -0.58265  -0.50786  -0.47406  -0.45890
 Alpha  occ. eigenvalues --   -0.44582  -0.40793  -0.37054  -0.36313  -0.30309
 Alpha  occ. eigenvalues --   -0.27159  -0.18362
 Alpha virt. eigenvalues --    0.01685   0.03531   0.05573   0.08854   0.10422
 Alpha virt. eigenvalues --    0.10968   0.11330   0.13476   0.13687   0.14036
 Alpha virt. eigenvalues --    0.16309   0.17913   0.19149   0.20166   0.21160

 Mulliken charges:
               1
     1  Cl   0.486112
     2  O   -0.746699
     3  P    8.270626
     4  O   -2.724675
     5  O   -2.770326
     6  H    0.866996
     7  O   -2.787495
     8  H    0.889387
     9  O   -1.483928
 Sum of Mulliken charges =  -0.00000

 Dipole moment (field-independent basis, Debye):
    X=              0.5098    Y=             -1.3511    Z=             -1.7842  Tot=              2.2953

 Test job not archived.
 1\1\GINC-SE435\SP\RHF\Aug-CC-pVDZ\Cl1H2O5P1\OHZDE\08-Apr-2025\0\\#t hf
  aug-cc-pvdz iop(5/13=1,5/36=2,99/5=2) pseudo=read geom=check guess=(r
 ead,tcheck) scf=(maxcycle=1)\\title\\0,1\Cl,0,-2.490543,0.242343,0.001
 981\O,0,-1.200006,-0.936061,0.003245\P,0,1.143315,0.099506,0.062147\O,
 0,2.149254,0.438387,1.059393\O,0,0.566002,1.22414,-0.888768\H,0,0.4170
 09,2.059996,-0.430545\O,0,1.481184,-0.974471,-1.048093\H,0,2.027333,-1
 .69525,-0.712073\O,0,-0.153288,-0.499142,0.896316\\Version=ES64L-G16Re
 vC.01\State=1-A\HF=-1177.6563672\RMSD=8.575e-02\Dipole=0.2005702,-0.53

 Normal termination of Gaussian 16 at Tue Apr  8 23:17:59 2025.
