 Gaussian 16, Revision C.01,

 ----------------------------------------------------------------------
 #t hf aug-cc-pvdz symm=none int=(grid=ultrafine) guess=(read,tcheck) s
 table=(opt,rrhf)
 ----------------------------------------------------------------------
 -----
 title
 -----
 Symbolic Z-matrix:
 Charge =  0 Multiplicity = 1

 SCF Done:  E(RHF) =  -1004.58964140     A.U. after   14 cycles
 Normal termination of Gaussian 16 at Wed Apr  9 00:10:47 2025.
 Gaussian 16:  ES64L-G16RevC.01  3-Jul-2019

 ----------------------------------------------------------------------
 #t hf aug-cc-pvdz iop(5/13=1,5/36=2,99/5=2) pseudo=read geom=check gue
 ss=(read,tcheck) scf=(maxcycle=1)
 ----------------------------------------------------------------------
 -----
 title
 -----
 Structure from the checkpoint file:  "BDE49_nonexpt_2351_mol1.chk"
 Charge =  0 Multiplicity = 1

                         Standard orientation:
 ---------------------------------------------------------------------
 Center     Atomic      Atomic             Coordinates (Angstroms)
 Number     Number       Type             X           Y           Z
 ---------------------------------------------------------------------
      1         14           0       -1.100499    1.109486    0.502541
      2         14           0        0.976135    1.158471   -0.618049
      3          6           0       -2.033534   -0.476866   -0.044611
      4          8           0       -3.067659   -0.596500   -0.601476
      5          1           0       -1.946672    2.266152    0.149131
      6          1           0       -0.887429    1.018933    1.961279
      7          9           0       -1.289829   -1.594870    0.287762
      8          6           0        1.963854   -0.409569   -0.117219
      9          1           0        1.753585    2.332932   -0.167377
     10          1           0        0.827036    1.146913   -2.085769
     11          8           0        2.365508   -1.295433   -0.785281
     12          9           0        2.182035   -0.412046    1.248337
 ---------------------------------------------------------------------

 SCF Done:  E(RHF) =  -1006.49151098     A.U. after    2 cycles

 The electronic state is 1-A.
 Alpha  occ. eigenvalues --  -76.27138 -76.27111 -29.30449 -29.30288 -21.11282
 Alpha  occ. eigenvalues --  -21.11027 -11.53749 -11.53573  -5.60772  -5.60763
 Alpha  occ. eigenvalues --   -2.24277  -2.24188  -2.23087  -2.22972  -2.22532
 Alpha  occ. eigenvalues --   -2.21450  -1.77403  -1.77129  -1.06419  -1.05301
 Alpha  occ. eigenvalues --   -0.85187  -0.79118  -0.65961  -0.64069  -0.59349
 Alpha  occ. eigenvalues --   -0.58746  -0.57483  -0.56267  -0.52220  -0.51212
 Alpha  occ. eigenvalues --   -0.43867  -0.43439  -0.40747  -0.30897  -0.30305
 Alpha  occ. eigenvalues --   -0.29552  -0.29388  -0.28181  -0.27427
 Alpha virt. eigenvalues --    0.03494   0.03881   0.05202   0.05602   0.06974
 Alpha virt. eigenvalues --    0.07015   0.07268   0.07918   0.08345   0.08896
 Alpha virt. eigenvalues --    0.09861   0.10214   0.10748   0.11637   0.12749

 Mulliken charges:
               1
     1  Si   4.359866
     2  Si   4.343821
     3  C    0.989801
     4  O   -2.527855
     5  H   -1.782349
     6  H   -1.566522
     7  F    0.470871
     8  C    1.200616
     9  H   -1.668004
    10  H   -1.708993
    11  O   -2.534076
    12  F    0.422824
 Sum of Mulliken charges =   0.00000

 Dipole moment (field-independent basis, Debye):
    X=              2.2102    Y=             -0.8266    Z=              4.0504  Tot=              4.6877

 Test job not archived.
 1\1\GINC-SE345\SP\RHF\Aug-CC-pVDZ\C2H4F2O2Si2\OHZDE\09-Apr-2025\0\\#t
 hf aug-cc-pvdz iop(5/13=1,5/36=2,99/5=2) pseudo=read geom=check guess=
 (read,tcheck) scf=(maxcycle=1)\\title\\0,1\Si,0,-1.100499,1.109486,0.5
 02541\Si,0,0.976135,1.158471,-0.618049\C,0,-2.033534,-0.476866,-0.0446
 11\O,0,-3.067659,-0.5965,-0.601476\H,0,-1.946672,2.266152,0.149131\H,0
 ,-0.887429,1.018933,1.961279\F,0,-1.289829,-1.59487,0.287762\C,0,1.963
 854,-0.409569,-0.117219\H,0,1.753585,2.332932,-0.167377\H,0,0.827036,1
 .146913,-2.085769\O,0,2.365508,-1.295433,-0.785281\F,0,2.182035,-0.412

 Normal termination of Gaussian 16 at Wed Apr  9 00:10:53 2025.
