 Gaussian 16, Revision C.01,

 ----------------------------------------------------------------------
 #t hf aug-cc-pvdz symm=none int=(grid=ultrafine) guess=(read,tcheck) s
 table=opt
 ----------------------------------------------------------------------
 -----
 title
 -----
 Symbolic Z-matrix:
 Charge =  0 Multiplicity = 2

 SCF Done:  E(UHF) =  -446.787069266     A.U. after   15 cycles
 Normal termination of Gaussian 16 at Tue Apr  8 23:45:46 2025.
 Gaussian 16:  ES64L-G16RevC.01  3-Jul-2019

 ----------------------------------------------------------------------
 #t hf aug-cc-pvdz iop(5/13=1,5/36=2,99/5=2) pseudo=read geom=check gue
 ss=(read,tcheck) scf=(maxcycle=1)
 ----------------------------------------------------------------------
 -----
 title
 -----
 Structure from the checkpoint file:  "BDE49_nonexpt_1733_mol2.chk"
 Charge =  0 Multiplicity = 2

                         Standard orientation:
 ---------------------------------------------------------------------
 Center     Atomic      Atomic             Coordinates (Angstroms)
 Number     Number       Type             X           Y           Z
 ---------------------------------------------------------------------
      1          6           0        0.440746   -0.239126   -0.000000
      2          6           0       -0.775052    0.711986   -0.000001
      3         14           0       -2.451099   -0.167600    0.000001
      4          6           0        1.786410    0.501058   -0.000001
      5          1           0       -0.733484    1.369869    0.875976
      6          1           0       -0.733484    1.369866   -0.875979
      7          1           0        0.393514   -0.896776   -0.876168
      8          1           0        0.393514   -0.896774    0.876170
      9          6           0        2.991627   -0.443526   -0.000000
     10          1           0        1.833593    1.158053    0.876634
     11          1           0        1.833593    1.158051   -0.876638
     12          1           0        2.987989   -1.090127    0.882977
     13          1           0        3.933104    0.112512   -0.000001
     14          1           0        2.987989   -1.090130   -0.882975
     15          1           0       -2.621669   -1.015246    1.211436
     16          1           0       -2.621670   -1.015250   -1.211432
 ---------------------------------------------------------------------

 SCF Done:  E(UHF) =  -447.758231307     A.U. after    2 cycles

 The electronic state is 2-A.
 Alpha  occ. eigenvalues --  -76.21679 -11.41811 -11.39303 -11.36469 -11.34295
 Alpha  occ. eigenvalues --   -5.55064  -2.18867  -2.17080  -2.16554  -1.23793
 Alpha  occ. eigenvalues --   -1.07323  -0.92038  -0.83048  -0.73115  -0.65095
 Alpha  occ. eigenvalues --   -0.58482  -0.57824  -0.53221  -0.50180  -0.48376
 Alpha  occ. eigenvalues --   -0.46203  -0.45692  -0.45464  -0.38780  -0.25925
 Alpha virt. eigenvalues --    0.03994   0.05022   0.05104   0.05537   0.05982
 Alpha virt. eigenvalues --    0.06362   0.06446   0.06537   0.08053   0.08719
 Alpha virt. eigenvalues --    0.09060   0.10084   0.10281   0.11365   0.12095

  Beta  occ. eigenvalues --  -76.21134 -11.41748 -11.39271 -11.36445 -11.34251
  Beta  occ. eigenvalues --   -5.54211  -2.18111  -2.16439  -2.13139  -1.23579
  Beta  occ. eigenvalues --   -1.07034  -0.91657  -0.82874  -0.69024  -0.65035
  Beta  occ. eigenvalues --   -0.58248  -0.57750  -0.52964  -0.50083  -0.47906
  Beta  occ. eigenvalues --   -0.45754  -0.45480  -0.45257  -0.37593
  Beta virt. eigenvalues --    0.03752   0.04246   0.05215   0.05461   0.05606
  Beta virt. eigenvalues --    0.06053   0.06375   0.06492   0.07761   0.08388
  Beta virt. eigenvalues --    0.09255   0.09693   0.10301   0.10840   0.11425

 Mulliken charges and spin densities:
               1          2
     1  C   -2.534287   0.000537
     2  C   -3.881917  -0.025900
     3  Si   3.822949   1.124080
     4  C   -2.883247  -0.005733
     5  H    1.438935  -0.014742
     6  H    1.438937  -0.014742
     7  H    1.655256  -0.020500
     8  H    1.655255  -0.020500
     9  C   -3.969583   0.001260
    10  H    1.399596  -0.000336
    11  H    1.399596  -0.000336
    12  H    1.288856   0.001540
    13  H    1.109076  -0.002888
    14  H    1.288856   0.001540
    15  H   -1.614140  -0.011640
    16  H   -1.614139  -0.011640
 Sum of Mulliken charges =  -0.00000   1.00000

 Dipole moment (field-independent basis, Debye):
    X=              0.9621    Y=              0.7576    Z=             -0.0000  Tot=              1.2246
                          Isotropic Fermi Contact Couplings
        Atom                 a.u.       MegaHertz       Gauss      10(-4) cm-1
     1  C(13)              0.01858      20.89010       7.45411       6.96819
     2  C(13)              0.01479      16.62142       5.93094       5.54431
     3  Si(29)             0.44544    -395.87654    -141.25859    -132.05020
     4  C(13)              0.00476       5.35140       1.90951       1.78503
     5  H(1)               0.00032       1.43596       0.51239       0.47898
     6  H(1)               0.00032       1.43595       0.51238       0.47898
     7  H(1)              -0.00015      -0.67980      -0.24257      -0.22676
     8  H(1)              -0.00015      -0.67980      -0.24257      -0.22676

 Normal termination of Gaussian 16 at Tue Apr  8 23:45:51 2025.
