 Gaussian 16, Revision C.01,

 ----------------------------------------------------------------------
 #t hf aug-cc-pvdz symm=none int=(grid=ultrafine) guess=(read,tcheck) s
 table=(opt,rrhf)
 ----------------------------------------------------------------------
 -----
 title
 -----
 Symbolic Z-matrix:
 Charge =  0 Multiplicity = 1

 SCF Done:  E(RHF) =  -235.389620233     A.U. after   11 cycles
 Normal termination of Gaussian 16 at Tue Apr  8 22:55:16 2025.
 Gaussian 16:  ES64L-G16RevC.01  3-Jul-2019

 ----------------------------------------------------------------------
 #t hf aug-cc-pvdz iop(5/13=1,5/36=2,99/5=2) pseudo=read geom=check gue
 ss=(read,tcheck) scf=(maxcycle=1)
 ----------------------------------------------------------------------
 -----
 title
 -----
 Structure from the checkpoint file:  "BDE49_expt_17_mol1.chk"
 Charge =  0 Multiplicity = 1

                         Standard orientation:
 ---------------------------------------------------------------------
 Center     Atomic      Atomic             Coordinates (Angstroms)
 Number     Number       Type             X           Y           Z
 ---------------------------------------------------------------------
      1          6           0       -1.616497    0.989496   -0.000006
      2          6           0       -0.436356   -0.000579   -0.000001
      3          1           0       -2.574311    0.459994   -0.000006
      4          1           0       -1.590700    1.634070   -0.884342
      5          1           0       -1.590702    1.634077    0.884324
      6          6           0        0.878380    0.822885   -0.000002
      7          6           0        2.192336    0.033560    0.000003
      8          1           0        0.863542    1.483676    0.875555
      9          1           0        0.863544    1.483669   -0.875564
     10          1           0        2.288443   -0.603286    0.883213
     11          1           0        3.044975    0.718355    0.000002
     12          1           0        2.288446   -0.603293   -0.883201
     13          6           0       -0.528963   -0.884362   -1.257931
     14          1           0       -0.448818   -0.282749   -2.169135
     15          1           0       -1.487939   -1.410736   -1.290059
     16          1           0        0.260351   -1.640106   -1.283770
     17          6           0       -0.528967   -0.884352    1.257936
     18          1           0       -0.448825   -0.282732    2.169136
     19          1           0        0.260347   -1.640096    1.283784
     20          1           0       -1.487943   -1.410726    1.290066
 ---------------------------------------------------------------------

 SCF Done:  E(RHF) =  -236.647811406     A.U. after    2 cycles

 The electronic state is 1-A.
 Alpha  occ. eigenvalues --  -11.41520 -11.39445 -11.38041 -11.37819 -11.36254
 Alpha  occ. eigenvalues --  -11.33564  -1.29595  -1.09470  -0.99787  -0.99601
 Alpha  occ. eigenvalues --   -0.89891  -0.75413  -0.62781  -0.62556  -0.59755
 Alpha  occ. eigenvalues --   -0.57945  -0.54798  -0.52652  -0.52131  -0.50443
 Alpha  occ. eigenvalues --   -0.48216  -0.47415  -0.41195  -0.40716  -0.39300
 Alpha virt. eigenvalues --    0.04037   0.05316   0.05338   0.05531   0.05695
 Alpha virt. eigenvalues --    0.05880   0.06071   0.06387   0.06593   0.08786
 Alpha virt. eigenvalues --    0.08900   0.09240   0.09268   0.09794   0.12265

 Mulliken charges:
               1
     1  C   -4.912051
     2  C    5.869989
     3  H    1.238836
     4  H    1.269804
     5  H    1.269805
     6  C   -4.002519
     7  C   -3.986129
     8  H    1.312369
     9  H    1.312370
    10  H    1.314796
    11  H    1.031181
    12  H    1.314797
    13  C   -5.197092
    14  H    1.132514
    15  H    1.122993
    16  H    1.424961
    17  C   -5.197091
    18  H    1.132514
    19  H    1.424961
    20  H    1.122993
 Sum of Mulliken charges =   0.00000

 Dipole moment (field-independent basis, Debye):
    X=              0.0669    Y=              0.0404    Z=             -0.0000  Tot=              0.0782

 Test job not archived.
 1\1\GINC-SE221\SP\RHF\Aug-CC-pVDZ\C6H14\OHZDE\08-Apr-2025\0\\#t hf aug
 -cc-pvdz iop(5/13=1,5/36=2,99/5=2) pseudo=read geom=check guess=(read,
 tcheck) scf=(maxcycle=1)\\title\\0,1\C,0,-1.616497,0.989496,-0.000006\
 C,0,-0.436356,-0.000579,-0.000001\H,0,-2.574311,0.459995,-0.000006\H,0
 ,-1.5907,1.63407,-0.884342\H,0,-1.590702,1.634077,0.884324\C,0,0.87838
 ,0.822885,-0.000002\C,0,2.192336,0.03356,0.000003\H,0,0.863542,1.48367
 6,0.875555\H,0,0.863544,1.483669,-0.875564\H,0,2.288443,-0.603286,0.88
 3213\H,0,3.044975,0.718354,0.000002\H,0,2.288446,-0.603293,-0.883201\C

 Normal termination of Gaussian 16 at Tue Apr  8 22:55:23 2025.
