 Gaussian 16, Revision C.01,

 ----------------------------------------------------------------------
 #t hf aug-cc-pvdz symm=none int=(grid=ultrafine) guess=(read,tcheck) s
 table=(opt,rrhf)
 ----------------------------------------------------------------------
 -----
 title
 -----
 Symbolic Z-matrix:
 Charge =  0 Multiplicity = 1

 SCF Done:  E(RHF) =  -1077.51762294     A.U. after   11 cycles
 Normal termination of Gaussian 16 at Tue Apr  8 23:42:24 2025.
 Gaussian 16:  ES64L-G16RevC.01  3-Jul-2019

 ----------------------------------------------------------------------
 #t hf aug-cc-pvdz iop(5/13=1,5/36=2,99/5=2) pseudo=read geom=check gue
 ss=(read,tcheck) scf=(maxcycle=1)
 ----------------------------------------------------------------------
 -----
 title
 -----
 Structure from the checkpoint file:  "BDE49_nonexpt_165_mol1.chk"
 Charge =  0 Multiplicity = 1

                         Standard orientation:
 ---------------------------------------------------------------------
 Center     Atomic      Atomic             Coordinates (Angstroms)
 Number     Number       Type             X           Y           Z
 ---------------------------------------------------------------------
      1         17           0       -1.237793    1.515672    0.000002
      2         17           0       -1.237796   -1.515670   -0.000009
      3          7           0        1.101231   -0.000001    0.000002
      4          5           0       -0.289190    0.000000   -0.000001
      5          6           0        1.917128    1.215020    0.000011
      6          1           0        2.559655    1.236498    0.886846
      7          1           0        1.289088    2.101017    0.000009
      8          1           0        2.559666    1.236502   -0.886817
      9          6           0        1.917126   -1.215023    0.000001
     10          1           0        1.289086   -2.101019   -0.000009
     11          1           0        2.559652   -1.236508    0.886837
     12          1           0        2.559665   -1.236496   -0.886826
 ---------------------------------------------------------------------

 SCF Done:  E(RHF) =  -1078.78092118     A.U. after    2 cycles

 The electronic state is 1-A.
 Alpha  occ. eigenvalues --  -99.88338 -99.88323 -15.72466 -11.41062 -11.40124
 Alpha  occ. eigenvalues --  -10.45785 -10.45509  -9.65715  -9.65466  -9.65233
 Alpha  occ. eigenvalues --   -9.65223  -9.64981  -9.64890  -7.70643  -1.47377
 Alpha  occ. eigenvalues --   -1.33434  -1.28322  -1.05462  -0.97343  -0.76361
 Alpha  occ. eigenvalues --   -0.67849  -0.66276  -0.65640  -0.56191  -0.55994
 Alpha  occ. eigenvalues --   -0.55892  -0.55570  -0.53054  -0.51422  -0.49109
 Alpha  occ. eigenvalues --   -0.47088  -0.37324
 Alpha virt. eigenvalues --    0.02681   0.04241   0.04521   0.04854   0.06701
 Alpha virt. eigenvalues --    0.06753   0.07375   0.07582   0.09109   0.09561
 Alpha virt. eigenvalues --    0.12351   0.12464   0.12685   0.13319   0.13798

 Mulliken charges:
               1
     1  Cl  -1.255878
     2  Cl  -1.255877
     3  N   -2.895882
     4  B    2.251565
     5  C   -2.596555
     6  H    1.418980
     7  H    1.336632
     8  H    1.418980
     9  C   -2.596559
    10  H    1.336633
    11  H    1.418979
    12  H    1.418982
 Sum of Mulliken charges =  -0.00000

 Dipole moment (field-independent basis, Debye):
    X=              3.1124    Y=             -0.0000    Z=              0.0000  Tot=              3.1124

 Test job not archived.
 1\1\GINC-SE362\SP\RHF\Aug-CC-pVDZ\C2H6B1Cl2N1\OHZDE\08-Apr-2025\0\\#t
 hf aug-cc-pvdz iop(5/13=1,5/36=2,99/5=2) pseudo=read geom=check guess=
 (read,tcheck) scf=(maxcycle=1)\\title\\0,1\Cl,0,-1.237794,1.515671,0.0
 00002\Cl,0,-1.237795,-1.515671,-0.000009\N,0,1.101231,0.,0.000002\B,0,
 -0.28919,0.,-0.000001\C,0,1.917127,1.215021,0.000011\H,0,2.559654,1.23
 6499,0.886846\H,0,1.289087,2.101018,0.000009\H,0,2.559665,1.236503,-0.
 886817\C,0,1.917127,-1.215022,0.000001\H,0,1.289087,-2.101018,-0.00000
 9\H,0,2.559653,-1.236507,0.886837\H,0,2.559666,-1.236495,-0.886826\\Ve

 Normal termination of Gaussian 16 at Tue Apr  8 23:42:28 2025.
