 Gaussian 16, Revision C.01,

 ----------------------------------------------------------------------
 #t hf aug-cc-pvdz symm=none int=(grid=ultrafine) guess=(read,tcheck) s
 table=opt
 ----------------------------------------------------------------------
 -----
 title
 -----
 Symbolic Z-matrix:
 Charge =  0 Multiplicity = 2

 SCF Done:  E(UHF) =  -450.097014302     A.U. after   15 cycles
 Normal termination of Gaussian 16 at Tue Apr  8 22:52:40 2025.
 Gaussian 16:  ES64L-G16RevC.01  3-Jul-2019

 ----------------------------------------------------------------------
 #t hf aug-cc-pvdz iop(5/13=1,5/36=2,99/5=2) pseudo=read geom=check gue
 ss=(read,tcheck) scf=(maxcycle=1)
 ----------------------------------------------------------------------
 -----
 title
 -----
 Structure from the checkpoint file:  "BDE49_expt_174_mol2.chk"
 Charge =  0 Multiplicity = 2

                         Standard orientation:
 ---------------------------------------------------------------------
 Center     Atomic      Atomic             Coordinates (Angstroms)
 Number     Number       Type             X           Y           Z
 ---------------------------------------------------------------------
      1          6           0       -1.975444   -0.011230    0.050585
      2          8           0       -0.799463   -0.720229   -0.097474
      3          1           0       -2.844165   -0.639557   -0.056091
      4          1           0       -1.965478    1.043288   -0.185731
      5          6           0        0.362382   -0.027799   -0.002009
      6          9           0        0.429996    0.974666   -0.900498
      7          9           0        1.361110   -0.873118   -0.231815
      8          9           0        0.529308    0.519815    1.213442
 ---------------------------------------------------------------------

 SCF Done:  E(UHF) =  -451.730379689     A.U. after    2 cycles

 The electronic state is 2-A.
 Alpha  occ. eigenvalues --  -29.32470 -29.32191 -29.32080 -21.12886 -11.61942
 Alpha  occ. eigenvalues --  -11.44210  -1.89764  -1.35210  -1.01923  -0.92697
 Alpha  occ. eigenvalues --   -0.92221  -0.74890  -0.64399  -0.55999  -0.50679
 Alpha  occ. eigenvalues --   -0.48189  -0.45660  -0.44523  -0.37456  -0.36637
 Alpha  occ. eigenvalues --   -0.33700  -0.28808  -0.26914  -0.25193  -0.22519
 Alpha virt. eigenvalues --    0.03866   0.05788   0.10601   0.11013   0.12004
 Alpha virt. eigenvalues --    0.12573   0.12806   0.15791   0.17549   0.19484
 Alpha virt. eigenvalues --    0.21099   0.21882   0.23449   0.24523   0.26517

  Beta  occ. eigenvalues --  -29.32480 -29.32187 -29.32069 -21.12516 -11.61949
  Beta  occ. eigenvalues --  -11.41808  -1.88624  -1.34683  -0.97335  -0.92382
  Beta  occ. eigenvalues --   -0.89981  -0.73671  -0.63163  -0.51089  -0.48652
  Beta  occ. eigenvalues --   -0.47186  -0.44723  -0.44442  -0.36931  -0.33974
  Beta  occ. eigenvalues --   -0.33622  -0.26835  -0.25606  -0.22610
  Beta virt. eigenvalues --    0.04007   0.05820   0.08045   0.10799   0.11066
  Beta virt. eigenvalues --    0.12487   0.12726   0.15791   0.17190   0.18316
  Beta virt. eigenvalues --    0.19806   0.21273   0.22082   0.23698   0.24599

 Mulliken charges and spin densities:
               1          2
     1  C   -2.026311   1.132852
     2  O   -3.016874   0.036833
     3  H    1.401547  -0.083551
     4  H    1.397635  -0.085809
     5  C    0.514229  -0.008900
     6  F    0.501790   0.005647
     7  F    0.689410  -0.002762
     8  F    0.538574   0.005690
 Sum of Mulliken charges =  -0.00000   1.00000

 Dipole moment (field-independent basis, Debye):
    X=              1.2697    Y=              1.1137    Z=             -0.1724  Tot=              1.6978
                          Isotropic Fermi Contact Couplings
        Atom                 a.u.       MegaHertz       Gauss      10(-4) cm-1
     1  C(13)              0.14713     165.40759      59.02154      55.17403
     2  O(17)              0.03142     -19.04669      -6.79633      -6.35329
     3  H(1)              -0.01674     -74.84077     -26.70505     -24.96419
     4  H(1)              -0.01524     -68.12252     -24.30781     -22.72323
     5  C(13)              0.00118       1.32316       0.47214       0.44136
     6  F(19)              0.00038       1.58612       0.56597       0.52907
     7  F(19)             -0.00218      -9.18976      -3.27913      -3.06537
     8  F(19)             -0.00013      -0.54658      -0.19503      -0.18232

 Normal termination of Gaussian 16 at Tue Apr  8 22:52:43 2025.
