 Gaussian 16, Revision C.01,

 ----------------------------------------------------------------------
 #t hf aug-cc-pvdz symm=none int=(grid=ultrafine) guess=(read,tcheck) s
 table=(opt,rrhf)
 ----------------------------------------------------------------------
 -----
 title
 -----
 Symbolic Z-matrix:
 Charge =  0 Multiplicity = 1

 SCF Done:  E(RHF) =  -624.033245560     A.U. after   13 cycles
 Normal termination of Gaussian 16 at Tue Apr  8 23:39:02 2025.
 Gaussian 16:  ES64L-G16RevC.01  3-Jul-2019

 ----------------------------------------------------------------------
 #t hf aug-cc-pvdz iop(5/13=1,5/36=2,99/5=2) pseudo=read geom=check gue
 ss=(read,tcheck) scf=(maxcycle=1)
 ----------------------------------------------------------------------
 -----
 title
 -----
 Structure from the checkpoint file:  "BDE49_nonexpt_1562_mol1.chk"
 Charge =  0 Multiplicity = 1

                         Standard orientation:
 ---------------------------------------------------------------------
 Center     Atomic      Atomic             Coordinates (Angstroms)
 Number     Number       Type             X           Y           Z
 ---------------------------------------------------------------------
      1          6           0        1.391852   -0.014692    0.600959
      2          7           0       -1.283331   -0.134303   -0.250247
      3          8           0       -1.274406    1.178769   -0.781461
      4          8           0       -1.518930   -0.030182    1.158649
      5          6           0        2.450566    0.659462    0.147543
      6          1           0        3.110765    1.207503    0.813730
      7          1           0        2.702888    0.678218   -0.908975
      8          1           0       -2.480929   -0.089513    1.216991
      9          1           0       -0.581894    1.663726   -0.298820
     10         15           0        0.290932   -0.902781   -0.566530
     11          1           0        1.154640   -0.017719    1.660819
     12          1           0        0.006059   -2.017688    0.257422
 ---------------------------------------------------------------------

 SCF Done:  E(RHF) =  -625.460403997     A.U. after    2 cycles

 The electronic state is 1-A.
 Alpha  occ. eigenvalues -- -105.20316 -21.10183 -21.09834 -15.79777 -11.43313
 Alpha  occ. eigenvalues --  -11.38938  -2.78115  -1.85790  -1.67662  -1.52359
 Alpha  occ. eigenvalues --   -1.49476  -1.46978  -1.13959  -1.02158  -0.82334
 Alpha  occ. eigenvalues --   -0.72348  -0.67366  -0.62202  -0.56786  -0.54680
 Alpha  occ. eigenvalues --   -0.52148  -0.46516  -0.39376  -0.35370  -0.31865
 Alpha  occ. eigenvalues --   -0.25694  -0.23680  -0.02459
 Alpha virt. eigenvalues --    0.03828   0.05505   0.06294   0.06551   0.06933
 Alpha virt. eigenvalues --    0.07343   0.09262   0.09819   0.10762   0.12643
 Alpha virt. eigenvalues --    0.13930   0.15089   0.15751   0.17035   0.17614

 Mulliken charges:
               1
     1  C   -1.994786
     2  N    2.243805
     3  O   -2.353877
     4  O   -2.376549
     5  C   -3.625105
     6  H    1.172396
     7  H    1.387159
     8  H    0.860861
     9  H    0.785375
    10  P    3.581653
    11  H    1.074246
    12  H   -0.755179
 Sum of Mulliken charges =   0.00000

 Dipole moment (field-independent basis, Debye):
    X=              0.0100    Y=              0.6895    Z=              0.3880  Tot=              0.7912

 Test job not archived.
 1\1\GINC-SE041\SP\RHF\Aug-CC-pVDZ\C2H6N1O2P1\OHZDE\08-Apr-2025\0\\#t h
 f aug-cc-pvdz iop(5/13=1,5/36=2,99/5=2) pseudo=read geom=check guess=(
 read,tcheck) scf=(maxcycle=1)\\title\\0,1\C,0,1.391852,-0.014692,0.600
 959\N,0,-1.283331,-0.134303,-0.250247\O,0,-1.274406,1.178769,-0.781461
 \O,0,-1.51893,-0.030182,1.158649\C,0,2.450566,0.659462,0.147543\H,0,3.
 110765,1.207503,0.81373\H,0,2.702888,0.678218,-0.908975\H,0,-2.480929,
 -0.089513,1.216991\H,0,-0.581894,1.663726,-0.29882\P,0,0.290932,-0.902
 781,-0.56653\H,0,1.15464,-0.017719,1.660819\H,0,0.006059,-2.017688,0.2

 Normal termination of Gaussian 16 at Tue Apr  8 23:39:07 2025.
