 Gaussian 16, Revision C.01,

 ----------------------------------------------------------------------
 #t hf aug-cc-pvdz symm=none int=(grid=ultrafine) guess=(read,tcheck) s
 table=opt
 ----------------------------------------------------------------------
 -----
 title
 -----
 Symbolic Z-matrix:
 Charge =  0 Multiplicity = 2

 SCF Done:  E(UHF) =  -276.332818900     A.U. after   16 cycles
 Normal termination of Gaussian 16 at Tue Apr  8 22:40:27 2025.
 Gaussian 16:  ES64L-G16RevC.01  3-Jul-2019

 ----------------------------------------------------------------------
 #t hf aug-cc-pvdz iop(5/13=1,5/36=2,99/5=2) pseudo=read geom=check gue
 ss=(read,tcheck) scf=(maxcycle=1)
 ----------------------------------------------------------------------
 -----
 title
 -----
 Structure from the checkpoint file:  "BDE49_expt_125_mol2.chk"
 Charge =  0 Multiplicity = 2

                         Standard orientation:
 ---------------------------------------------------------------------
 Center     Atomic      Atomic             Coordinates (Angstroms)
 Number     Number       Type             X           Y           Z
 ---------------------------------------------------------------------
      1          6           0       -0.672144    0.472562   -0.313904
      2          1           0       -0.871942    0.809490   -1.323436
      3          6           0        0.643980    0.488331    0.334613
      4          9           0       -1.572101   -0.412476    0.148447
      5          1           0        0.543084    0.297255    1.405437
      6          1           0        1.135957    1.449036    0.165436
      7          9           0        1.501199   -0.512095   -0.189747
 ---------------------------------------------------------------------

 SCF Done:  E(UHF) =  -277.366941782     A.U. after    2 cycles

 The electronic state is 2-A.
 Alpha  occ. eigenvalues --  -29.29567 -29.25639 -11.48682 -11.44089  -1.28762
 Alpha  occ. eigenvalues --   -1.03797  -0.74307  -0.71678  -0.66285  -0.59990
 Alpha  occ. eigenvalues --   -0.50372  -0.40423  -0.37365  -0.29494  -0.26195
 Alpha  occ. eigenvalues --   -0.24871  -0.17996
 Alpha virt. eigenvalues --    0.04200   0.05169   0.06139   0.11036   0.11727
 Alpha virt. eigenvalues --    0.12546   0.12739   0.15258   0.16044   0.19105
 Alpha virt. eigenvalues --    0.19910   0.24529   0.25733   0.27393   0.28956

  Beta  occ. eigenvalues --  -29.29143 -29.25267 -11.48010 -11.42567  -1.24561
  Beta  occ. eigenvalues --   -1.00355  -0.72829  -0.69206  -0.64439  -0.59469
  Beta  occ. eigenvalues --   -0.40203  -0.38393  -0.35172  -0.29388  -0.25581
  Beta  occ. eigenvalues --   -0.24224
  Beta virt. eigenvalues --    0.04248   0.05201   0.06137   0.10238   0.11758
  Beta virt. eigenvalues --    0.12495   0.12649   0.15480   0.16162   0.17273
  Beta virt. eigenvalues --    0.19205   0.21563   0.24673   0.26107   0.27963

 Mulliken charges and spin densities:
               1          2
     1  C   -1.906864   1.152890
     2  H    1.326187  -0.043141
     3  C   -2.944764  -0.306521
     4  F    0.567360   0.157346
     5  H    1.281148   0.001706
     6  H    1.351700  -0.002484
     7  F    0.325235   0.040205
 Sum of Mulliken charges =  -0.00000   1.00000

 Dipole moment (field-independent basis, Debye):
    X=             -0.2438    Y=             -1.6601    Z=              0.0219  Tot=              1.6781
                          Isotropic Fermi Contact Couplings
        Atom                 a.u.       MegaHertz       Gauss      10(-4) cm-1
     1  C(13)              0.13813     155.28856      55.41082      51.79869
     2  H(1)              -0.01643     -73.43271     -26.20262     -24.49452
     3  C(13)             -0.02401     -26.99166      -9.63129      -9.00345
     4  F(19)              0.02834     119.22054      42.54085      39.76769
     5  H(1)               0.00233      10.39326       3.70857       3.46682
     6  H(1)               0.00302      13.48557       4.81199       4.49830
     7  F(19)              0.03666     154.23837      55.03609      51.44838
 --------------------------------------------------------

 Normal termination of Gaussian 16 at Tue Apr  8 22:40:28 2025.
