 Gaussian 16, Revision C.01,

 ----------------------------------------------------------------------
 #t hf aug-cc-pvdz symm=none int=(grid=ultrafine) guess=(read,tcheck) s
 table=(opt,rrhf)
 ----------------------------------------------------------------------
 -----
 title
 -----
 Symbolic Z-matrix:
 Charge =  0 Multiplicity = 1

 SCF Done:  E(RHF) =  -1083.17185683     A.U. after   18 cycles
 Normal termination of Gaussian 16 at Tue Apr  8 23:34:15 2025.
 Gaussian 16:  ES64L-G16RevC.01  3-Jul-2019

 ----------------------------------------------------------------------
 #t hf aug-cc-pvdz iop(5/13=1,5/36=2,99/5=2) pseudo=read geom=check gue
 ss=(read,tcheck) scf=(maxcycle=1)
 ----------------------------------------------------------------------
 -----
 title
 -----
 Structure from the checkpoint file:  "BDE49_nonexpt_1393_mol1.chk"
 Charge =  0 Multiplicity = 1

                         Standard orientation:
 ---------------------------------------------------------------------
 Center     Atomic      Atomic             Coordinates (Angstroms)
 Number     Number       Type             X           Y           Z
 ---------------------------------------------------------------------
      1          6           0        1.961472   -1.430428    0.050819
      2          6           0        3.253564   -0.927287    0.163692
      3          6           0        3.471088    0.451734    0.146699
      4          6           0        2.392938    1.315364    0.030249
      5          6           0        1.076558    0.826389   -0.061707
      6          6           0        0.863957   -0.571105   -0.049110
      7         15           0       -0.806636   -1.259545   -0.336636
      8          6           0       -1.913161    0.157220   -0.013346
      9          1           0        4.477693    0.845880    0.221777
     10          1           0        4.091026   -1.609382    0.255521
     11          1           0        2.555895    2.387901    0.016103
     12         16           0       -3.525108   -0.114252    0.234155
     13          6           0       -0.025308    1.768633   -0.132555
     14          6           0       -1.352551    1.483616   -0.107770
     15          1           0        0.257628    2.816997   -0.166500
     16          1           0       -2.067776    2.299753   -0.101452
     17          1           0        1.806676   -2.504730    0.041841
     18          1           0       -0.991218   -1.960028    0.873941
 ---------------------------------------------------------------------

 SCF Done:  E(RHF) =  -1085.21325352     A.U. after    2 cycles

 The electronic state is 1-A.
 Alpha  occ. eigenvalues -- -105.19855 -75.66071 -13.14663 -13.02520 -12.97455
 Alpha  occ. eigenvalues --  -11.53554 -11.49978 -11.48047 -11.46273 -11.45320
 Alpha  occ. eigenvalues --  -11.44099 -11.43343 -11.42398 -11.39016  -8.00089
 Alpha  occ. eigenvalues --   -2.78118  -1.54791  -1.52761  -1.46273  -1.37186
 Alpha  occ. eigenvalues --   -1.24480  -1.15401  -1.10387  -1.06850  -0.93385
 Alpha  occ. eigenvalues --   -0.88630  -0.83729  -0.80332  -0.70232  -0.68660
 Alpha  occ. eigenvalues --   -0.65879  -0.62392  -0.57158  -0.55934  -0.54237
 Alpha  occ. eigenvalues --   -0.51337  -0.47392  -0.46631  -0.46154  -0.37390
 Alpha  occ. eigenvalues --   -0.36204  -0.29505  -0.27732  -0.25170  -0.17372
 Alpha  occ. eigenvalues --   -0.03486
 Alpha virt. eigenvalues --    0.02617   0.04306   0.04532   0.04973   0.05688
 Alpha virt. eigenvalues --    0.06267   0.07056   0.07520   0.07732   0.08983
 Alpha virt. eigenvalues --    0.09491   0.09851   0.10164   0.10456   0.11638

 Mulliken charges:
               1
     1  C   -3.818041
     2  C   -2.391484
     3  C   -3.024733
     4  C   -2.081872
     5  C    3.003833
     6  C    2.171213
     7  P    3.142323
     8  C   -2.662176
     9  H    1.464723
    10  H    1.481247
    11  H    1.714753
    12  S   -0.002930
    13  C   -1.177646
    14  C   -2.897022
    15  H    1.691940
    16  H    1.753089
    17  H    1.839431
    18  H   -0.206648
 Sum of Mulliken charges =   0.00000

 Dipole moment (field-independent basis, Debye):
    X=              2.5502    Y=             -4.3553    Z=             -3.2835  Tot=              6.0210

 Test job not archived.
 1\1\GINC-SE186\SP\RHF\Aug-CC-pVDZ\C9H7P1S1\OHZDE\08-Apr-2025\0\\#t hf
 aug-cc-pvdz iop(5/13=1,5/36=2,99/5=2) pseudo=read geom=check guess=(re
 ad,tcheck) scf=(maxcycle=1)\\title\\0,1\C,0,1.961472,-1.430428,0.05081
 9\C,0,3.253564,-0.927287,0.163692\C,0,3.471088,0.451734,0.146699\C,0,2
 .392938,1.315364,0.030249\C,0,1.076558,0.826389,-0.061707\C,0,0.863957
 ,-0.571105,-0.04911\P,0,-0.806636,-1.259545,-0.336636\C,0,-1.913161,0.
 15722,-0.013346\H,0,4.477693,0.84588,0.221777\H,0,4.091026,-1.609382,0
 .255521\H,0,2.555895,2.387901,0.016103\S,0,-3.525108,-0.114252,0.23415

 Normal termination of Gaussian 16 at Tue Apr  8 23:34:28 2025.
