 Gaussian 16, Revision C.01,

 ----------------------------------------------------------------------
 #t hf aug-cc-pvdz symm=none int=(grid=ultrafine) guess=(read,tcheck) s
 table=(opt,rrhf)
 ----------------------------------------------------------------------
 -----
 title
 -----
 Symbolic Z-matrix:
 Charge =  0 Multiplicity = 1

 SCF Done:  E(RHF) =  -272.376450362     A.U. after   12 cycles
 Normal termination of Gaussian 16 at Wed Apr  9 00:37:06 2025.
 Gaussian 16:  ES64L-G16RevC.01  3-Jul-2019

 ----------------------------------------------------------------------
 #t hf aug-cc-pvdz iop(5/13=1,5/36=2,99/5=2) pseudo=read geom=check gue
 ss=(read,tcheck) scf=(maxcycle=1)
 ----------------------------------------------------------------------
 -----
 title
 -----
 Structure from the checkpoint file:  "BDE49_nonexpt_544_mol1.chk"
 Charge =  0 Multiplicity = 1

                         Standard orientation:
 ---------------------------------------------------------------------
 Center     Atomic      Atomic             Coordinates (Angstroms)
 Number     Number       Type             X           Y           Z
 ---------------------------------------------------------------------
      1          1           0        0.190873    2.631839   -0.274176
      2          8           0        1.281835    0.736940   -0.041425
      3          7           0       -1.138376    0.827213    0.031111
      4          6           0       -0.037135   -1.313563   -0.342438
      5          6           0       -1.300151   -0.618023    0.173289
      6          6           0        1.217190   -0.664252    0.239866
      7          5           0        0.113795    1.454848   -0.101085
      8          1           0        1.248713   -0.805843    1.327704
      9          1           0        2.118323   -1.116293   -0.180849
     10          1           0       -0.001759   -1.238211   -1.434362
     11          1           0       -0.056534   -2.376773   -0.084569
     12          1           0       -1.985690    1.371237    0.016627
     13          1           0       -1.477915   -0.893556    1.222268
     14          1           0       -2.170462   -0.957624   -0.397885
 ---------------------------------------------------------------------

 SCF Done:  E(RHF) =  -273.639145592     A.U. after    2 cycles

 The electronic state is 1-A.
 Alpha  occ. eigenvalues --  -21.01018 -15.69922 -11.43901 -11.42662 -11.36841
 Alpha  occ. eigenvalues --   -7.60604  -1.76814  -1.36197  -1.16703  -0.95169
 Alpha  occ. eigenvalues --   -0.88490  -0.73069  -0.69071  -0.63633  -0.59886
 Alpha  occ. eigenvalues --   -0.57014  -0.53938  -0.50844  -0.49950  -0.42607
 Alpha  occ. eigenvalues --   -0.40529  -0.34760  -0.31472
 Alpha virt. eigenvalues --    0.03244   0.04399   0.04687   0.05106   0.06001
 Alpha virt. eigenvalues --    0.06370   0.06749   0.07006   0.07105   0.09368
 Alpha virt. eigenvalues --    0.11236   0.12705   0.13481   0.13849   0.14202

 Mulliken charges:
               1
     1  H   -4.163775
     2  O   -4.174996
     3  N   -3.105390
     4  C   -2.697860
     5  C   -1.936308
     6  C   -0.634118
     7  B    7.694570
     8  H    1.430174
     9  H    1.325987
    10  H    1.177874
    11  H    1.390675
    12  H    0.982162
    13  H    1.336058
    14  H    1.374949
 Sum of Mulliken charges =  -0.00000

 Dipole moment (field-independent basis, Debye):
    X=             -1.2039    Y=             -1.5949    Z=              0.1958  Tot=              2.0078

 Test job not archived.
 1\1\GINC-SE074\SP\RHF\Aug-CC-pVDZ\C3H8B1N1O1\OHZDE\09-Apr-2025\0\\#t h
 f aug-cc-pvdz iop(5/13=1,5/36=2,99/5=2) pseudo=read geom=check guess=(
 read,tcheck) scf=(maxcycle=1)\\title\\0,1\H,0,0.190876,2.631839,-0.274
 176\O,0,1.281836,0.736939,-0.041425\N,0,-1.138375,0.827214,0.031111\C,
 0,-0.037136,-1.313563,-0.342438\C,0,-1.300152,-0.618022,0.173289\C,0,1
 .217189,-0.664253,0.239866\B,0,0.113797,1.454848,-0.101085\H,0,1.24871
 2,-0.805844,1.327704\H,0,2.118322,-1.116295,-0.180849\H,0,-0.00176,-1.
 238211,-1.434362\H,0,-0.056537,-2.376773,-0.084569\H,0,-1.985688,1.371

 Normal termination of Gaussian 16 at Wed Apr  9 00:37:10 2025.
