 Gaussian 16, Revision C.01,

 ----------------------------------------------------------------------
 #t hf aug-cc-pvdz symm=none int=(grid=ultrafine) guess=(read,tcheck) s
 table=(opt,rrhf)
 ----------------------------------------------------------------------
 -----
 title
 -----
 Symbolic Z-matrix:
 Charge =  0 Multiplicity = 1

 SCF Done:  E(RHF) =  -452.100120932     A.U. after   13 cycles
 Normal termination of Gaussian 16 at Wed Apr  9 00:33:54 2025.
 Gaussian 16:  ES64L-G16RevC.01  3-Jul-2019

 ----------------------------------------------------------------------
 #t hf aug-cc-pvdz iop(5/13=1,5/36=2,99/5=2) pseudo=read geom=check gue
 ss=(read,tcheck) scf=(maxcycle=1)
 ----------------------------------------------------------------------
 -----
 title
 -----
 Structure from the checkpoint file:  "BDE49_nonexpt_419_mol1.chk"
 Charge =  0 Multiplicity = 1

                         Standard orientation:
 ---------------------------------------------------------------------
 Center     Atomic      Atomic             Coordinates (Angstroms)
 Number     Number       Type             X           Y           Z
 ---------------------------------------------------------------------
      1          9           0       -1.813277    0.668833    0.801220
      2          5           0       -1.192572   -0.153951   -0.033259
      3          9           0       -1.865311   -1.202884   -0.468874
      4          6           0        0.300900    0.144781   -0.471061
      5          8           0        1.076823   -0.488663    0.527707
      6          8           0        0.571566    1.529521   -0.590582
      7          6           0        2.467031   -0.578828    0.216582
      8          1           0        2.626719   -1.203858   -0.671393
      9          1           0        2.951969   -1.042170    1.074920
     10          1           0        2.894264    0.412466    0.042766
     11          1           0        0.263760    1.958098    0.217295
     12          1           0        0.538756   -0.270907   -1.458535
 ---------------------------------------------------------------------

 SCF Done:  E(RHF) =  -453.872263426     A.U. after    2 cycles

 The electronic state is 1-A.
 Alpha  occ. eigenvalues --  -29.26853 -29.26692 -21.08816 -21.06499 -11.43834
 Alpha  occ. eigenvalues --  -11.41043  -7.70819  -1.81385  -1.68093  -1.17868
 Alpha  occ. eigenvalues --   -1.01245  -0.90000  -0.77096  -0.69876  -0.64347
 Alpha  occ. eigenvalues --   -0.62977  -0.57497  -0.55322  -0.51064  -0.48187
 Alpha  occ. eigenvalues --   -0.46574  -0.45693  -0.40350  -0.36670  -0.34770
 Alpha  occ. eigenvalues --   -0.33778  -0.31045  -0.25208
 Alpha virt. eigenvalues --    0.03667   0.04287   0.05071   0.05452   0.06123
 Alpha virt. eigenvalues --    0.06643   0.06854   0.07916   0.08821   0.12796
 Alpha virt. eigenvalues --    0.13113   0.15140   0.15551   0.15773   0.16341

 Mulliken charges:
               1
     1  F   -0.843080
     2  B    1.695274
     3  F    0.027060
     4  C    1.313934
     5  O   -3.134567
     6  O   -2.873773
     7  C   -2.942963
     8  H    1.314846
     9  H    1.278342
    10  H    1.297353
    11  H    0.821134
    12  H    2.046439
 Sum of Mulliken charges =   0.00000

 Dipole moment (field-independent basis, Debye):
    X=             -1.6241    Y=             -0.7133    Z=              0.7838  Tot=              1.9393

 Test job not archived.
 1\1\GINC-SE250\SP\RHF\Aug-CC-pVDZ\C2H5B1F2O2\OHZDE\09-Apr-2025\0\\#t h
 f aug-cc-pvdz iop(5/13=1,5/36=2,99/5=2) pseudo=read geom=check guess=(
 read,tcheck) scf=(maxcycle=1)\\title\\0,1\F,0,1.813277,0.668833,-0.801
 22\B,0,1.192572,-0.153951,0.033259\F,0,1.865311,-1.202884,0.468874\C,0
 ,-0.3009,0.144781,0.471061\O,0,-1.076823,-0.488663,-0.527707\O,0,-0.57
 1566,1.529521,0.590582\C,0,-2.467031,-0.578828,-0.216582\H,0,-2.626719
 ,-1.203858,0.671393\H,0,-2.951969,-1.04217,-1.07492\H,0,-2.894264,0.41
 2466,-0.042766\H,0,-0.26376,1.958098,-0.217295\H,0,-0.538756,-0.270907

 Normal termination of Gaussian 16 at Wed Apr  9 00:33:58 2025.
