 Gaussian 16, Revision C.01,

 ----------------------------------------------------------------------
 #t hf aug-cc-pvdz symm=none int=(grid=ultrafine) guess=(read,tcheck) s
 table=(opt,rrhf)
 ----------------------------------------------------------------------
 -----
 title
 -----
 Symbolic Z-matrix:
 Charge =  0 Multiplicity = 1

 SCF Done:  E(RHF) =  -798.721590166     A.U. after   16 cycles
 Normal termination of Gaussian 16 at Tue Apr  8 23:32:23 2025.
 Gaussian 16:  ES64L-G16RevC.01  3-Jul-2019

 ----------------------------------------------------------------------
 #t hf aug-cc-pvdz iop(5/13=1,5/36=2,99/5=2) pseudo=read geom=check gue
 ss=(read,tcheck) scf=(maxcycle=1)
 ----------------------------------------------------------------------
 -----
 title
 -----
 Structure from the checkpoint file:  "BDE49_nonexpt_1348_mol1.chk"
 Charge =  0 Multiplicity = 1

                         Standard orientation:
 ---------------------------------------------------------------------
 Center     Atomic      Atomic             Coordinates (Angstroms)
 Number     Number       Type             X           Y           Z
 ---------------------------------------------------------------------
      1          6           0       -2.364169   -0.679870   -0.344330
      2          6           0       -2.015901    0.779131   -0.569617
      3          8           0       -3.417198   -1.051152    0.092598
      4          8           0       -1.399383   -1.582545   -0.663514
      5         15           0       -0.782246    1.551493    0.632261
      6          1           0       -2.938218    1.353461   -0.479890
      7          1           0       -1.614304    0.940098   -1.574649
      8          6           0        0.749685    0.575837    0.308233
      9          1           0       -0.575593   -1.132976   -0.893236
     10          6           0        1.141139   -0.526212    1.084082
     11          6           0        1.602516    1.006572   -0.721306
     12          6           0        2.796820    0.341054   -0.983679
     13          6           0        3.173270   -0.750981   -0.203339
     14          6           0        2.346520   -1.178788    0.833007
     15          1           0        2.634430   -2.026771    1.443919
     16          1           0        0.499138   -0.879599    1.882351
     17          1           0        1.335814    1.877333   -1.312217
     18          1           0        3.439985    0.684307   -1.786064
     19          1           0        4.108292   -1.262937   -0.399638
     20          1           0       -1.202491    0.843800    1.784522
 ---------------------------------------------------------------------

 SCF Done:  E(RHF) =  -800.994482927     A.U. after    2 cycles

 The electronic state is 1-A.
 Alpha  occ. eigenvalues -- -105.20479 -21.11586 -21.04632 -11.53638 -11.52569
 Alpha  occ. eigenvalues --  -11.45363 -11.45086 -11.42986 -11.42555 -11.41072
 Alpha  occ. eigenvalues --  -11.38398  -2.77812  -1.81606  -1.64961  -1.53550
 Alpha  occ. eigenvalues --   -1.48531  -1.47735  -1.34627  -1.11194  -1.10404
 Alpha  occ. eigenvalues --   -1.07564  -0.88269  -0.86798  -0.79748  -0.75205
 Alpha  occ. eigenvalues --   -0.70220  -0.67515  -0.64295  -0.62834  -0.60235
 Alpha  occ. eigenvalues --   -0.58562  -0.54242  -0.52878  -0.51021  -0.50510
 Alpha  occ. eigenvalues --   -0.46698  -0.45179  -0.36324  -0.35457  -0.33084
 Alpha  occ. eigenvalues --   -0.31232  -0.26826  -0.23129  -0.03333
 Alpha virt. eigenvalues --    0.03028   0.04484   0.04662   0.05743   0.06145
 Alpha virt. eigenvalues --    0.06418   0.06655   0.07356   0.08413   0.09239
 Alpha virt. eigenvalues --    0.09450   0.09993   0.10714   0.11080   0.11941

 Mulliken charges:
               1
     1  C    5.691351
     2  C   -4.846725
     3  O   -3.205018
     4  O   -3.295468
     5  P    3.274877
     6  H    1.244601
     7  H    1.349415
     8  C    3.947477
     9  H    1.449387
    10  C   -3.595623
    11  C   -5.142516
    12  C   -1.121385
    13  C   -2.131414
    14  C   -0.793728
    15  H    1.465120
    16  H    1.966718
    17  H    1.935531
    18  H    1.547289
    19  H    1.482515
    20  H   -1.222404
 Sum of Mulliken charges =  -0.00000

 Dipole moment (field-independent basis, Debye):
    X=              3.3242    Y=              2.1409    Z=             -0.5202  Tot=              3.9881

 Test job not archived.
 1\1\GINC-SE126\SP\RHF\Aug-CC-pVDZ\C8H9O2P1\OHZDE\08-Apr-2025\0\\#t hf
 aug-cc-pvdz iop(5/13=1,5/36=2,99/5=2) pseudo=read geom=check guess=(re
 ad,tcheck) scf=(maxcycle=1)\\title\\0,1\C,0,-2.364169,-0.67987,-0.3443
 3\C,0,-2.015901,0.779131,-0.569617\O,0,-3.417198,-1.051152,0.092598\O,
 0,-1.399383,-1.582545,-0.663514\P,0,-0.782246,1.551493,0.632261\H,0,-2
 .938218,1.353461,-0.47989\H,0,-1.614304,0.940098,-1.574649\C,0,0.74968
 5,0.575837,0.308233\H,0,-0.575593,-1.132976,-0.893236\C,0,1.141139,-0.
 526212,1.084082\C,0,1.602516,1.006572,-0.721306\C,0,2.79682,0.341054,-

 Normal termination of Gaussian 16 at Tue Apr  8 23:32:36 2025.
