 Gaussian 16, Revision C.01,

 ----------------------------------------------------------------------
 #t hf aug-cc-pvdz symm=none int=(grid=ultrafine) guess=(read,tcheck) s
 table=opt
 ----------------------------------------------------------------------
 -----
 title
 -----
 Symbolic Z-matrix:
 Charge =  0 Multiplicity = 2

 SCF Done:  E(UHF) =  -151.105330969     A.U. after   20 cycles
 Normal termination of Gaussian 16 at Tue Apr  8 22:37:21 2025.
 Gaussian 16:  ES64L-G16RevC.01  3-Jul-2019

 ----------------------------------------------------------------------
 #t hf aug-cc-pvdz iop(5/13=1,5/36=2,99/5=2) pseudo=read geom=check gue
 ss=(read,tcheck) scf=(maxcycle=1)
 ----------------------------------------------------------------------
 -----
 title
 -----
 Structure from the checkpoint file:  "BDE49_expt_1141_mol2.chk"
 Charge =  0 Multiplicity = 2

                         Standard orientation:
 ---------------------------------------------------------------------
 Center     Atomic      Atomic             Coordinates (Angstroms)
 Number     Number       Type             X           Y           Z
 ---------------------------------------------------------------------
      1          6           0       -1.254961   -0.124662   -0.000000
      2          6           0        0.020496    0.037871   -0.000000
      3          8           0        1.194196    0.006533   -0.000000
      4          1           0       -2.146780    0.468490    0.000003
 ---------------------------------------------------------------------

 SCF Done:  E(UHF) =  -151.722135574     A.U. after    2 cycles

 The electronic state is 2-A.
 Alpha  occ. eigenvalues --  -21.16303 -11.53906 -11.43390  -1.79150  -1.13345
 Alpha  occ. eigenvalues --   -0.74514  -0.61731  -0.58901  -0.55580  -0.36505
 Alpha  occ. eigenvalues --   -0.34752
 Alpha virt. eigenvalues --    0.02883   0.08294   0.10078   0.12075   0.12197
 Alpha virt. eigenvalues --    0.12562   0.12888   0.14314   0.19415   0.21159
 Alpha virt. eigenvalues --    0.22228   0.27833   0.29701   0.30750   0.32409

  Beta  occ. eigenvalues --  -21.14662 -11.54569 -11.41567  -1.76012  -1.06186
  Beta  occ. eigenvalues --   -0.73100  -0.60708  -0.55844  -0.50678  -0.30563
  Beta virt. eigenvalues --    0.03032   0.04185   0.08336   0.09891   0.12280
  Beta virt. eigenvalues --    0.12651   0.13069   0.14524   0.14616   0.19402
  Beta virt. eigenvalues --    0.22395   0.24884   0.27921   0.30284   0.33183

 Mulliken charges and spin densities:
               1          2
     1  C   -1.682033   1.134529
     2  C    2.458715  -0.516031
     3  O   -2.071730   0.430984
     4  H    1.295048  -0.049482
 Sum of Mulliken charges =  -0.00000   1.00000

 Dipole moment (field-independent basis, Debye):
    X=              0.4916    Y=              1.2260    Z=              0.0000  Tot=              1.3209
                          Isotropic Fermi Contact Couplings
        Atom                 a.u.       MegaHertz       Gauss      10(-4) cm-1
     1  C(13)              0.10254     115.27025      41.13129      38.45002
     2  C(13)             -0.05333     -59.94985     -21.39160     -19.99712
     3  O(17)              0.08799     -53.34209     -19.03379     -17.79301
     4  H(1)              -0.01318     -58.91713     -21.02310     -19.65264
 --------------------------------------------------------
       Center         ----  Spin Dipole Couplings  ----
                      3XX-RR        3YY-RR        3ZZ-RR
 --------------------------------------------------------

 Normal termination of Gaussian 16 at Tue Apr  8 22:37:22 2025.
