 Gaussian 16, Revision C.01,

 ----------------------------------------------------------------------
 #t hf aug-cc-pvdz symm=none int=(grid=ultrafine) guess=(read,tcheck) s
 table=(opt,rrhf)
 ----------------------------------------------------------------------
 -----
 title
 -----
 Symbolic Z-matrix:
 Charge =  0 Multiplicity = 1

 SCF Done:  E(RHF) =  -246.921762297     A.U. after   12 cycles

 1\1\GINC-SE150\Stability\RHF\Aug-CC-pVDZ\C5H14B2\OHZDE\09-Apr-2025\0\\
 #t hf aug-cc-pvdz symm=none int=(grid=ultrafine) guess=(read,tcheck) s
 table=(opt,rrhf)\\title\\0,1\C,0,2.063629,1.254069,-0.180113\B,0,1.284
 062,-0.067109,0.181664\H,0,2.80484,1.411762,0.61935\H,0,1.440734,2.153
 395,-0.191931\H,0,2.632884,1.198156,-1.113275\C,0,1.795468,-1.440807,-
 0.398391\H,0,2.889519,-1.503455,-0.412561\H,0,1.492244,-1.493542,-1.45
 5626\H,0,1.397789,-2.331831,0.093977\C,0,0.000008,-0.00001,1.09915\B,0
 ,-1.284055,0.067104,0.181676\H,0,0.045015,0.899013,1.725018\H,0,-0.044

 Normal termination of Gaussian 16 at Wed Apr  9 00:29:58 2025.
 Gaussian 16:  ES64L-G16RevC.01  3-Jul-2019

 ----------------------------------------------------------------------
 #t hf aug-cc-pvdz iop(5/13=1,5/36=2,99/5=2) pseudo=read geom=check gue
 ss=(read,tcheck) scf=(maxcycle=1)
 ----------------------------------------------------------------------
 -----
 title
 -----
 Structure from the checkpoint file:  "BDE49_nonexpt_312_mol1.chk"
 Charge =  0 Multiplicity = 1

                         Standard orientation:
 ---------------------------------------------------------------------
 Center     Atomic      Atomic             Coordinates (Angstroms)
 Number     Number       Type             X           Y           Z
 ---------------------------------------------------------------------
      1          6           0        2.063629    1.254069   -0.180113
      2          5           0        1.284062   -0.067109    0.181664
      3          1           0        2.804840    1.411762    0.619350
      4          1           0        1.440734    2.153395   -0.191931
      5          1           0        2.632884    1.198156   -1.113275
      6          6           0        1.795468   -1.440807   -0.398391
      7          1           0        2.889519   -1.503455   -0.412561
      8          1           0        1.492244   -1.493542   -1.455626
      9          1           0        1.397789   -2.331831    0.093977
     10          6           0        0.000008   -0.000010    1.099150
     11          5           0       -1.284055    0.067104    0.181676
     12          1           0        0.045015    0.899013    1.725018
     13          1           0       -0.044994   -0.899043    1.725003
     14          6           0       -2.063633   -1.254065   -0.180104
     15          1           0       -2.632906   -1.198138   -1.113254
     16          1           0       -2.804829   -1.411768    0.619372
     17          1           0       -1.440741   -2.153393   -0.191947
     18          6           0       -1.795473    1.440814   -0.398341
     19          1           0       -2.889524    1.503459   -0.412496
     20          1           0       -1.492262    1.493575   -1.455578
     21          1           0       -1.397791    2.331829    0.094043
 ---------------------------------------------------------------------

 SCF Done:  E(RHF) =  -248.218002840     A.U. after    2 cycles

 The electronic state is 1-A.
 Alpha  occ. eigenvalues --  -11.33247 -11.33051 -11.32815 -11.32335 -11.29828
 Alpha  occ. eigenvalues --   -7.58880  -7.58362  -1.20404  -1.11602  -1.00314
 Alpha  occ. eigenvalues --   -0.99543  -0.98656  -0.67090  -0.64964  -0.60048
 Alpha  occ. eigenvalues --   -0.57731  -0.57453  -0.55115  -0.54540  -0.52707
 Alpha  occ. eigenvalues --   -0.52574  -0.51690  -0.49675  -0.42204  -0.39666
 Alpha  occ. eigenvalues --   -0.37747  -0.35709
 Alpha virt. eigenvalues --    0.02993   0.03272   0.03762   0.04075   0.06717
 Alpha virt. eigenvalues --    0.06984   0.07030   0.07681   0.07987   0.08061
 Alpha virt. eigenvalues --    0.08164   0.08358   0.08731   0.08928   0.08948

 Mulliken charges:
               1
     1  C   -6.647463
     2  B    9.181106
     3  H    0.926699
     4  H    1.034746
     5  H    1.110018
     6  C   -6.531318
     7  H    1.287514
     8  H    0.802642
     9  H    1.014996
    10  C   -7.174831
    11  B    9.181003
    12  H    1.408515
    13  H    1.408523
    14  C   -6.647466
    15  H    1.110021
    16  H    0.926682
    17  H    1.034745
    18  C   -6.531306
    19  H    1.287529
    20  H    0.802662
    21  H    1.014984
 Sum of Mulliken charges =  -0.00000

 Dipole moment (field-independent basis, Debye):
    X=             -0.0000    Y=             -0.0000    Z=              0.1426  Tot=              0.1426

 Test job not archived.
 1\1\GINC-SE150\SP\RHF\Aug-CC-pVDZ\C5H14B2\OHZDE\09-Apr-2025\0\\#t hf a
 ug-cc-pvdz iop(5/13=1,5/36=2,99/5=2) pseudo=read geom=check guess=(rea
 d,tcheck) scf=(maxcycle=1)\\title\\0,1\C,0,2.063629,1.254069,-0.180113
 \B,0,1.284062,-0.067109,0.181664\H,0,2.80484,1.411762,0.61935\H,0,1.44
 0734,2.153395,-0.191931\H,0,2.632884,1.198156,-1.113275\C,0,1.795468,-
 1.440807,-0.398391\H,0,2.889519,-1.503455,-0.412561\H,0,1.492244,-1.49
 3542,-1.455626\H,0,1.397789,-2.331831,0.093977\C,0,0.000008,-0.00001,1
 .09915\B,0,-1.284055,0.067104,0.181676\H,0,0.045015,0.899013,1.725018\

 Normal termination of Gaussian 16 at Wed Apr  9 00:30:07 2025.
