 Gaussian 16, Revision C.01,

 ----------------------------------------------------------------------
 #t hf aug-cc-pvdz symm=none int=(grid=ultrafine) guess=(read,tcheck) s
 table=(opt,rrhf)
 ----------------------------------------------------------------------
 -----
 title
 -----
 Symbolic Z-matrix:
 Charge =  0 Multiplicity = 1

 SCF Done:  E(RHF) =  -1591.30156660     A.U. after   13 cycles
 Normal termination of Gaussian 16 at Tue Apr  8 23:00:38 2025.
 Gaussian 16:  ES64L-G16RevC.01  3-Jul-2019

 ----------------------------------------------------------------------
 #t hf aug-cc-pvdz iop(5/13=1,5/36=2,99/5=2) pseudo=read geom=check gue
 ss=(read,tcheck) scf=(maxcycle=1)
 ----------------------------------------------------------------------
 -----
 title
 -----
 Structure from the checkpoint file:  "BDE49_expt_1966_mol1.chk"
 Charge =  0 Multiplicity = 1

                         Standard orientation:
 ---------------------------------------------------------------------
 Center     Atomic      Atomic             Coordinates (Angstroms)
 Number     Number       Type             X           Y           Z
 ---------------------------------------------------------------------
      1         16           0        2.153419    0.675555    0.257417
      2         16           0        0.883903   -0.781165   -0.556828
      3          1           0        1.793973    1.689767   -0.554258
      4         16           0       -0.883902   -0.781165    0.556828
      5         16           0       -2.153419    0.675554   -0.257418
      6          1           0       -1.793981    1.689764    0.554263
 ---------------------------------------------------------------------

 SCF Done:  E(RHF) =  -1592.20534039     A.U. after    2 cycles

 The electronic state is 1-A.
 Alpha  occ. eigenvalues --  -75.74738 -75.74502 -75.73132 -75.73109 -13.16818
 Alpha  occ. eigenvalues --  -13.15729 -13.14357 -13.12166 -13.10790 -13.10340
 Alpha  occ. eigenvalues --  -13.07740 -13.07380 -13.06170 -13.06164 -13.04202
 Alpha  occ. eigenvalues --  -13.03896  -8.08419  -8.08247  -8.06844  -8.06839
 Alpha  occ. eigenvalues --   -1.28500  -1.18024  -1.05284  -0.91894  -0.53904
 Alpha  occ. eigenvalues --   -0.53858  -0.45184  -0.42613  -0.38685  -0.30298
 Alpha  occ. eigenvalues --   -0.28172  -0.24624  -0.23827
 Alpha virt. eigenvalues --    0.01467   0.03683   0.04234   0.04939   0.08479
 Alpha virt. eigenvalues --    0.11278   0.11965   0.12786   0.13479   0.13831
 Alpha virt. eigenvalues --    0.14754   0.14985   0.15829   0.17162   0.17366

 Mulliken charges:
               1
     1  S   -1.096204
     2  S   -0.142228
     3  H    1.238432
     4  S   -0.142228
     5  S   -1.096204
     6  H    1.238432
 Sum of Mulliken charges =  -0.00000

 Dipole moment (field-independent basis, Debye):
    X=              0.0000    Y=             -1.3649    Z=             -0.0000  Tot=              1.3649

 Test job not archived.
 1\1\GINC-SE074\SP\RHF\Aug-CC-pVDZ\H2S4\OHZDE\08-Apr-2025\0\\#t hf aug-
 cc-pvdz iop(5/13=1,5/36=2,99/5=2) pseudo=read geom=check guess=(read,t
 check) scf=(maxcycle=1)\\title\\0,1\S,0,2.153419,0.675555,0.257417\S,0
 ,0.883903,-0.781165,-0.556828\H,0,1.793973,1.689767,-0.554258\S,0,-0.8
 83902,-0.781165,0.556828\S,0,-2.153419,0.675554,-0.257418\H,0,-1.79398
 1,1.689764,0.554263\\Version=ES64L-G16RevC.01\State=1-A\HF=-1592.20534
 04\RMSD=8.408e-02\Dipole=0.0000019,-0.5370094,-0.0000016\Quadrupole=1.
 8482649,0.1263313,-1.9745961,-0.0000157,2.7363784,0.0000054\PG=C01 [X(

 Normal termination of Gaussian 16 at Tue Apr  8 23:00:40 2025.
