 Gaussian 16, Revision C.01,

 ----------------------------------------------------------------------
 #t hf aug-cc-pvdz symm=none int=(grid=ultrafine) guess=(read,tcheck) s
 table=(opt,rrhf)
 ----------------------------------------------------------------------
 -----
 title
 -----
 Symbolic Z-matrix:
 Charge =  0 Multiplicity = 1

 SCF Done:  E(RHF) =  -408.649489349     A.U. after   16 cycles

 1\1\GINC-SE166\Stability\RHF\Aug-CC-pVDZ\C10H9B1\OHZDE\09-Apr-2025\0\\
 #t hf aug-cc-pvdz symm=none int=(grid=ultrafine) guess=(read,tcheck) s
 table=(opt,rrhf)\\title\\0,1\C,0,1.056471,1.432059,0.\C,0,2.372979,1.0
 33425,0.\C,0,2.712081,-0.337155,0.\C,0,1.718969,-1.284459,0.\C,0,0.351
 934,-0.903186,0.\C,0,0.,0.485545,0.\H,0,0.814705,2.486223,0.\H,0,3.160
 618,1.778737,0.\H,0,3.754232,-0.635574,0.\H,0,1.965026,-2.34127,0.\C,0
 ,-1.395816,0.865729,0.\C,0,-2.349509,-0.152353,0.\C,0,-0.678045,-1.879
 088,0.\C,0,-2.003365,-1.516202,0.\H,0,-0.397241,-2.927768,0.\H,0,-2.77

 Normal termination of Gaussian 16 at Wed Apr  9 00:24:15 2025.
 Gaussian 16:  ES64L-G16RevC.01  3-Jul-2019

 ----------------------------------------------------------------------
 #t hf aug-cc-pvdz iop(5/13=1,5/36=2,99/5=2) pseudo=read geom=check gue
 ss=(read,tcheck) scf=(maxcycle=1)
 ----------------------------------------------------------------------
 -----
 title
 -----
 Structure from the checkpoint file:  "BDE49_nonexpt_264_mol1.chk"
 Charge =  0 Multiplicity = 1

                         Standard orientation:
 ---------------------------------------------------------------------
 Center     Atomic      Atomic             Coordinates (Angstroms)
 Number     Number       Type             X           Y           Z
 ---------------------------------------------------------------------
      1          6           0        1.056471    1.432059    0.000000
      2          6           0        2.372979    1.033425    0.000000
      3          6           0        2.712081   -0.337155    0.000000
      4          6           0        1.718969   -1.284459    0.000000
      5          6           0        0.351934   -0.903186    0.000000
      6          6           0        0.000000    0.485545    0.000000
      7          1           0        0.814705    2.486223    0.000000
      8          1           0        3.160618    1.778737    0.000000
      9          1           0        3.754232   -0.635574    0.000000
     10          1           0        1.965026   -2.341270    0.000000
     11          6           0       -1.395816    0.865729    0.000000
     12          6           0       -2.349509   -0.152353    0.000000
     13          6           0       -0.678045   -1.879088    0.000000
     14          6           0       -2.003365   -1.516202    0.000000
     15          1           0       -0.397241   -2.927768    0.000000
     16          1           0       -2.779244   -2.273239    0.000000
     17          1           0       -3.398570    0.122689    0.000000
     18          5           0       -1.910050    2.312512    0.000000
     19          1           0       -1.194338    3.264654    0.000000
     20          1           0       -3.089130    2.497084    0.000000
 ---------------------------------------------------------------------

 SCF Done:  E(RHF) =  -410.604719151     A.U. after    2 cycles

 The electronic state is 1-A'.
 Alpha  occ. eigenvalues --  -11.52691 -11.49349 -11.45471 -11.44051 -11.43472
 Alpha  occ. eigenvalues --  -11.42278 -11.41476 -11.41133 -11.39079 -11.36229
 Alpha  occ. eigenvalues --   -7.64251  -1.39921  -1.24188  -1.15331  -1.08276
 Alpha  occ. eigenvalues --   -1.05565  -0.91882  -0.87717  -0.87349  -0.78358
 Alpha  occ. eigenvalues --   -0.72524  -0.69383  -0.67359  -0.60572  -0.58681
 Alpha  occ. eigenvalues --   -0.55362  -0.53720  -0.53646  -0.52830  -0.47494
 Alpha  occ. eigenvalues --   -0.45971  -0.44792  -0.41440  -0.39250  -0.38859
 Alpha  occ. eigenvalues --   -0.31677  -0.28427
 Alpha virt. eigenvalues --    0.03184   0.03910   0.04169   0.04410   0.05302
 Alpha virt. eigenvalues --    0.05702   0.06348   0.06425   0.06786   0.07674
 Alpha virt. eigenvalues --    0.09257   0.10283   0.10381   0.11154   0.11626

 Mulliken charges:
               1
     1  C   -2.232996
     2  C   -3.880565
     3  C   -3.635163
     4  C   -3.195564
     5  C    6.290321
     6  C    7.238229
     7  H    2.117032
     8  H    1.495840
     9  H    1.534563
    10  H    1.716769
    11  C   -2.062643
    12  C   -2.276965
    13  C   -3.010882
    14  C   -3.651254
    15  H    1.752395
    16  H    1.549805
    17  H    1.898021
    18  B    6.508508
    19  H   -4.189576
    20  H   -3.965875
 Sum of Mulliken charges =   0.00000

 Dipole moment (field-independent basis, Debye):
    X=              0.6267    Y=             -1.6686    Z=              0.0000  Tot=              1.7824

 Test job not archived.
 1\1\GINC-SE166\SP\RHF\Aug-CC-pVDZ\C10H9B1\OHZDE\09-Apr-2025\0\\#t hf a
 ug-cc-pvdz iop(5/13=1,5/36=2,99/5=2) pseudo=read geom=check guess=(rea
 d,tcheck) scf=(maxcycle=1)\\title\\0,1\C,0,1.056471,1.432059,0.\C,0,2.
 372979,1.033425,0.\C,0,2.712081,-0.337155,0.\C,0,1.718969,-1.284459,0.
 \C,0,0.351934,-0.903186,0.\C,0,0.,0.485545,0.\H,0,0.814705,2.486223,0.
 \H,0,3.160618,1.778737,0.\H,0,3.754232,-0.635574,0.\H,0,1.965026,-2.34
 127,0.\C,0,-1.395816,0.865729,0.\C,0,-2.349509,-0.152353,0.\C,0,-0.678
 045,-1.879088,0.\C,0,-2.003365,-1.516202,0.\H,0,-0.397241,-2.927768,0.

 Normal termination of Gaussian 16 at Wed Apr  9 00:24:29 2025.
