 Gaussian 16, Revision C.01,

 ----------------------------------------------------------------------
 #t hf aug-cc-pvdz symm=none int=(grid=ultrafine) guess=(read,tcheck) s
 table=opt
 ----------------------------------------------------------------------
 -----
 title
 -----
 Symbolic Z-matrix:
 Charge =  0 Multiplicity = 2

 SCF Done:  E(UHF) =  -626.324789219     A.U. after   16 cycles
 Normal termination of Gaussian 16 at Tue Apr  8 23:48:18 2025.
 Gaussian 16:  ES64L-G16RevC.01  3-Jul-2019

 ----------------------------------------------------------------------
 #t hf aug-cc-pvdz iop(5/13=1,5/36=2,99/5=2) pseudo=read geom=check gue
 ss=(read,tcheck) scf=(maxcycle=1)
 ----------------------------------------------------------------------
 -----
 title
 -----
 Structure from the checkpoint file:  "BDE49_nonexpt_1802_mol2.chk"
 Charge =  0 Multiplicity = 2

                         Standard orientation:
 ---------------------------------------------------------------------
 Center     Atomic      Atomic             Coordinates (Angstroms)
 Number     Number       Type             X           Y           Z
 ---------------------------------------------------------------------
      1         14           0       -0.898914   -0.510769   -0.310509
      2          6           0        0.801178    0.101315    0.356845
      3          9           0       -2.016077    0.508619    0.258047
      4          9           0        1.184349    1.261909   -0.266758
      5          9           0        1.734904   -0.869003    0.064962
      6          1           0       -1.185253   -1.852976    0.262464
      7          1           0        0.834386    0.282121    1.437334
 ---------------------------------------------------------------------

 SCF Done:  E(UHF) =  -627.647982605     A.U. after    2 cycles

 The electronic state is 2-A.
 Alpha  occ. eigenvalues --  -76.29070 -29.29262 -29.29074 -29.28806 -11.49674
 Alpha  occ. eigenvalues --   -5.63373  -2.27932  -2.25104  -2.23471  -1.27112
 Alpha  occ. eigenvalues --   -0.89466  -0.79843  -0.73979  -0.65411  -0.57504
 Alpha  occ. eigenvalues --   -0.45126  -0.43227  -0.39177  -0.37311  -0.34836
 Alpha  occ. eigenvalues --   -0.31340  -0.30756  -0.26396  -0.23315  -0.22194
 Alpha virt. eigenvalues --    0.04443   0.05023   0.06799   0.07448   0.08301
 Alpha virt. eigenvalues --    0.11770   0.13689   0.14133   0.15082   0.16373
 Alpha virt. eigenvalues --    0.18188   0.21882   0.23169   0.23600   0.24565

  Beta  occ. eigenvalues --  -76.28495 -29.29273 -29.29105 -29.28533 -11.49507
  Beta  occ. eigenvalues --   -5.62434  -2.27295  -2.24462  -2.19998  -1.26599
  Beta  occ. eigenvalues --   -0.86279  -0.79670  -0.73514  -0.64229  -0.55668
  Beta  occ. eigenvalues --   -0.45110  -0.39140  -0.37642  -0.37161  -0.34496
  Beta  occ. eigenvalues --   -0.31015  -0.30528  -0.23267  -0.22213
  Beta virt. eigenvalues --    0.03128   0.04564   0.05720   0.07103   0.07840
  Beta virt. eigenvalues --    0.09843   0.12109   0.14034   0.14400   0.16452
  Beta virt. eigenvalues --    0.18664   0.19667   0.23050   0.23796   0.24014

 Mulliken charges and spin densities:
               1          2
     1  Si   3.460816   0.912834
     2  C   -2.745695   0.049296
     3  F   -0.910946   0.021726
     4  F    0.278355  -0.019714
     5  F    0.230738  -0.017168
     6  H   -1.682761   0.054494
     7  H    1.369493  -0.001468
 Sum of Mulliken charges =  -0.00000   1.00000

 Dipole moment (field-independent basis, Debye):
    X=             -0.3118    Y=              1.8017    Z=             -0.4738  Tot=              1.8888
                          Isotropic Fermi Contact Couplings
        Atom                 a.u.       MegaHertz       Gauss      10(-4) cm-1
     1  Si(29)             0.52830    -469.51145    -167.53336    -156.61216
     2  C(13)              0.02364      26.57195       9.48153       8.86345
     3  F(19)              0.03560     149.78425      53.44675      49.96265
     4  F(19)             -0.00323     -13.57237      -4.84296      -4.52726
     5  F(19)             -0.00128      -5.38111      -1.92011      -1.79494
     6  H(1)               0.01756      78.48009      28.00365      26.17814
     7  H(1)               0.00409      18.26832       6.51859       6.09366
 --------------------------------------------------------

 Normal termination of Gaussian 16 at Tue Apr  8 23:48:20 2025.
