 Gaussian 16, Revision C.01,

 ----------------------------------------------------------------------
 #t hf aug-cc-pvdz symm=none int=(grid=ultrafine) guess=(read,tcheck) s
 table=(opt,rrhf)
 ----------------------------------------------------------------------
 -----
 title
 -----
 Symbolic Z-matrix:
 Charge =  0 Multiplicity = 1

 SCF Done:  E(RHF) =  -1164.43584089     A.U. after   13 cycles
 Normal termination of Gaussian 16 at Wed Apr  9 00:15:52 2025.
 Gaussian 16:  ES64L-G16RevC.01  3-Jul-2019

 ----------------------------------------------------------------------
 #t hf aug-cc-pvdz iop(5/13=1,5/36=2,99/5=2) pseudo=read geom=check gue
 ss=(read,tcheck) scf=(maxcycle=1)
 ----------------------------------------------------------------------
 -----
 title
 -----
 Structure from the checkpoint file:  "BDE49_nonexpt_2493_mol1.chk"
 Charge =  0 Multiplicity = 1

                         Standard orientation:
 ---------------------------------------------------------------------
 Center     Atomic      Atomic             Coordinates (Angstroms)
 Number     Number       Type             X           Y           Z
 ---------------------------------------------------------------------
      1         14           0       -1.536435    0.257737    0.609845
      2         16           0        0.131106    1.113055   -0.495907
      3         16           0        1.404844   -0.566417   -0.559453
      4          6           0        2.446689   -0.316600    0.919789
      5          1           0        3.164509   -1.140833    0.915678
      6          1           0        1.851977   -0.358631    1.831458
      7          1           0        2.981481    0.629982    0.855224
      8          6           0       -2.413416   -1.101827   -0.328903
      9          1           0       -2.824320   -0.724785   -1.268389
     10          1           0       -3.236373   -1.500286    0.273006
     11          1           0       -1.727965   -1.921862   -0.554633
     12          1           0       -2.434121    1.416313    0.838148
     13          1           0       -1.039932   -0.243850    1.912124
 ---------------------------------------------------------------------

 SCF Done:  E(RHF) =  -1165.47658031     A.U. after    2 cycles

 The electronic state is 1-A.
 Alpha  occ. eigenvalues --  -76.23646 -75.70612 -75.69175 -13.12359 -13.11315
 Alpha  occ. eigenvalues --  -13.08881 -13.06660 -13.05142 -13.04583 -11.40066
 Alpha  occ. eigenvalues --  -11.35545  -8.04374  -8.03133  -5.57138  -2.20471
 Alpha  occ. eigenvalues --   -2.19091  -2.18872  -1.23320  -1.07197  -1.03732
 Alpha  occ. eigenvalues --   -0.90310  -0.72101  -0.59528  -0.59241  -0.56883
 Alpha  occ. eigenvalues --   -0.56524  -0.48097  -0.46102  -0.43404  -0.38563
 Alpha  occ. eigenvalues --   -0.35212  -0.26714  -0.22320
 Alpha virt. eigenvalues --    0.02859   0.03315   0.04033   0.04758   0.06762
 Alpha virt. eigenvalues --    0.07298   0.07447   0.07851   0.08777   0.09022
 Alpha virt. eigenvalues --    0.09580   0.10902   0.11703   0.13032   0.14035

 Mulliken charges:
               1
     1  Si   6.726665
     2  S   -1.581755
     3  S   -0.037031
     4  C   -4.607192
     5  H    1.387565
     6  H    1.523601
     7  H    1.493823
     8  C   -4.817765
     9  H    1.226544
    10  H    1.301964
    11  H    1.236988
    12  H   -2.007721
    13  H   -1.845686
 Sum of Mulliken charges =  -0.00000

 Dipole moment (field-independent basis, Debye):
    X=              0.7992    Y=             -0.3555    Z=             -1.4217  Tot=              1.6693

 Test job not archived.
 1\1\GINC-SE128\SP\RHF\Aug-CC-pVDZ\C2H8S2Si1\OHZDE\09-Apr-2025\0\\#t hf
  aug-cc-pvdz iop(5/13=1,5/36=2,99/5=2) pseudo=read geom=check guess=(r
 ead,tcheck) scf=(maxcycle=1)\\title\\0,1\Si,0,-1.536435,0.257737,0.609
 845\S,0,0.131106,1.113055,-0.495907\S,0,1.404844,-0.566417,-0.559453\C
 ,0,2.446689,-0.3166,0.919789\H,0,3.164509,-1.140833,0.915678\H,0,1.851
 977,-0.358631,1.831458\H,0,2.981481,0.629982,0.855224\C,0,-2.413416,-1
 .101827,-0.328903\H,0,-2.82432,-0.724785,-1.268389\H,0,-3.236373,-1.50
 0286,0.273006\H,0,-1.727965,-1.921862,-0.554633\H,0,-2.434121,1.416313

 Normal termination of Gaussian 16 at Wed Apr  9 00:15:57 2025.
