 Gaussian 16, Revision C.01,

 ----------------------------------------------------------------------
 #t hf aug-cc-pvdz symm=none int=(grid=ultrafine) guess=(read,tcheck) s
 table=(opt,rrhf)
 ----------------------------------------------------------------------
 -----
 title
 -----
 Symbolic Z-matrix:
 Charge =  0 Multiplicity = 1

 SCF Done:  E(RHF) =  -916.943966293     A.U. after   13 cycles
 Normal termination of Gaussian 16 at Wed Apr  9 00:21:44 2025.
 Gaussian 16:  ES64L-G16RevC.01  3-Jul-2019

 ----------------------------------------------------------------------
 #t hf aug-cc-pvdz iop(5/13=1,5/36=2,99/5=2) pseudo=read geom=check gue
 ss=(read,tcheck) scf=(maxcycle=1)
 ----------------------------------------------------------------------
 -----
 title
 -----
 Structure from the checkpoint file:  "BDE49_nonexpt_2629_mol1.chk"
 Charge =  0 Multiplicity = 1

                         Standard orientation:
 ---------------------------------------------------------------------
 Center     Atomic      Atomic             Coordinates (Angstroms)
 Number     Number       Type             X           Y           Z
 ---------------------------------------------------------------------
      1          9           0       -1.671166   -0.000000    1.067265
      2         16           0       -1.272199   -0.000000   -0.593130
      3         15           0        0.813602   -0.000000   -0.635627
      4          6           0        1.255922   -1.430894    0.454040
      5          6           0        1.255922    1.430894    0.454039
      6          1           0        0.989004   -2.360328   -0.050344
      7          1           0        0.735529   -1.376040    1.411292
      8          1           0        2.335762   -1.422481    0.624371
      9          1           0        0.989003    2.360328   -0.050345
     10          1           0        2.335761    1.422482    0.624370
     11          1           0        0.735529    1.376041    1.411291
 ---------------------------------------------------------------------

 SCF Done:  E(RHF) =  -918.118537890     A.U. after    2 cycles

 The electronic state is 1-A.
 Alpha  occ. eigenvalues -- -105.19548 -75.75341 -29.25675 -13.17919 -13.13416
 Alpha  occ. eigenvalues --  -13.08143 -11.38580 -11.38555  -8.09256  -2.78678
 Alpha  occ. eigenvalues --   -1.51091  -1.50927  -1.47082  -1.14350  -1.03993
 Alpha  occ. eigenvalues --   -0.98095  -0.69726  -0.59980  -0.58880  -0.57656
 Alpha  occ. eigenvalues --   -0.57549  -0.56494  -0.40173  -0.36596  -0.32513
 Alpha  occ. eigenvalues --   -0.21517  -0.19329  -0.13890  -0.02429
 Alpha virt. eigenvalues --    0.04257   0.05074   0.06597   0.06762   0.06947
 Alpha virt. eigenvalues --    0.08034   0.08159   0.10033   0.11679   0.11706
 Alpha virt. eigenvalues --    0.13728   0.15120   0.15633   0.16436   0.17111

 Mulliken charges:
               1
     1  F   -0.400035
     2  S   -1.372902
     3  P    6.829844
     4  C   -5.892705
     5  C   -5.892707
     6  H    1.100729
     7  H    1.145869
     8  H    1.117655
     9  H    1.100729
    10  H    1.117655
    11  H    1.145869
 Sum of Mulliken charges =  -0.00000

 Dipole moment (field-independent basis, Debye):
    X=              0.4386    Y=              0.0000    Z=              3.0448  Tot=              3.0763

 Test job not archived.
 1\1\GINC-SE106\SP\RHF\Aug-CC-pVDZ\C2H6F1P1S1\OHZDE\09-Apr-2025\0\\#t h
 f aug-cc-pvdz iop(5/13=1,5/36=2,99/5=2) pseudo=read geom=check guess=(
 read,tcheck) scf=(maxcycle=1)\\title\\0,1\F,0,-1.671166,0.,1.067265\S,
 0,-1.272199,0.,-0.59313\P,0,0.813602,0.,-0.635627\C,0,1.255922,-1.4308
 94,0.45404\C,0,1.255922,1.430894,0.454039\H,0,0.989004,-2.360328,-0.05
 0344\H,0,0.735529,-1.37604,1.411292\H,0,2.335762,-1.422481,0.624371\H,
 0,0.989003,2.360328,-0.050345\H,0,2.335761,1.422482,0.62437\H,0,0.7355
 29,1.376041,1.411291\\Version=ES64L-G16RevC.01\State=1-A\HF=-918.11853

 Normal termination of Gaussian 16 at Wed Apr  9 00:21:47 2025.
