 Gaussian 16, Revision C.01,

 ----------------------------------------------------------------------
 #t hf aug-cc-pvdz symm=none int=(grid=ultrafine) guess=(read,tcheck) s
 table=(opt,rrhf)
 ----------------------------------------------------------------------
 -----
 title
 -----
 Symbolic Z-matrix:
 Charge =  0 Multiplicity = 1

 SCF Done:  E(RHF) =  -1016.72505471     A.U. after   13 cycles
 Normal termination of Gaussian 16 at Wed Apr  9 00:13:07 2025.
 Gaussian 16:  ES64L-G16RevC.01  3-Jul-2019

 ----------------------------------------------------------------------
 #t hf aug-cc-pvdz iop(5/13=1,5/36=2,99/5=2) pseudo=read geom=check gue
 ss=(read,tcheck) scf=(maxcycle=1)
 ----------------------------------------------------------------------
 -----
 title
 -----
 Structure from the checkpoint file:  "BDE49_nonexpt_2430_mol1.chk"
 Charge =  0 Multiplicity = 1

                         Standard orientation:
 ---------------------------------------------------------------------
 Center     Atomic      Atomic             Coordinates (Angstroms)
 Number     Number       Type             X           Y           Z
 ---------------------------------------------------------------------
      1         14           0        1.851148   -0.763962    0.000002
      2         14           0        0.506720    1.170807    0.000019
      3          1           0        3.269601   -0.327296   -0.000007
      4          1           0        1.603123   -1.576447   -1.211820
      5          1           0        1.603144   -1.576458    1.211822
      6          6           0       -1.340141    0.743923    0.000003
      7          1           0        0.762349    2.019462   -1.194026
      8          1           0        0.762326    2.019423    1.194096
      9         16           0       -1.932306   -0.768311   -0.000020
     10          1           0       -2.052952    1.574932   -0.000058
 ---------------------------------------------------------------------

 SCF Done:  E(RHF) =  -1017.44631844     A.U. after    2 cycles

 The electronic state is 1-A.
 Alpha  occ. eigenvalues --  -76.23106 -76.22181 -75.69243 -13.14171 -13.04063
 Alpha  occ. eigenvalues --  -13.00374 -11.44034  -8.03279  -5.56729  -5.55576
 Alpha  occ. eigenvalues --   -2.20162  -2.18612  -2.18132  -2.17660  -2.17601
 Alpha  occ. eigenvalues --   -2.16575  -1.19464  -0.87862  -0.79639  -0.70912
 Alpha  occ. eigenvalues --   -0.56235  -0.49801  -0.47640  -0.46915  -0.43247
 Alpha  occ. eigenvalues --   -0.36575  -0.35916  -0.22200
 Alpha virt. eigenvalues --    0.03092   0.04175   0.05190   0.05323   0.06676
 Alpha virt. eigenvalues --    0.06792   0.07120   0.07790   0.08379   0.09551
 Alpha virt. eigenvalues --    0.09617   0.09849   0.10054   0.10803   0.12450

 Mulliken charges:
               1
     1  Si   4.528103
     2  Si   4.787762
     3  H   -1.563123
     4  H   -1.523223
     5  H   -1.523225
     6  C   -3.646749
     7  H   -1.703099
     8  H   -1.703104
     9  S    1.035299
    10  H    1.311358
 Sum of Mulliken charges =  -0.00000

 Dipole moment (field-independent basis, Debye):
    X=             -1.0571    Y=             -1.6037    Z=             -0.0001  Tot=              1.9208

 Test job not archived.
 1\1\GINC-SE273\SP\RHF\Aug-CC-pVDZ\C1H6S1Si2\OHZDE\09-Apr-2025\0\\#t hf
  aug-cc-pvdz iop(5/13=1,5/36=2,99/5=2) pseudo=read geom=check guess=(r
 ead,tcheck) scf=(maxcycle=1)\\title\\0,1\Si,0,1.851148,-0.763962,0.000
 002\Si,0,0.50672,1.170807,0.000019\H,0,3.269601,-0.327296,-0.000007\H,
 0,1.603123,-1.576447,-1.21182\H,0,1.603144,-1.576458,1.211822\C,0,-1.3
 40141,0.743923,0.000003\H,0,0.762349,2.019462,-1.194026\H,0,0.762326,2
 .019423,1.194096\S,0,-1.932306,-0.768311,-0.00002\H,0,-2.052952,1.5749
 32,-0.000058\\Version=ES64L-G16RevC.01\State=1-A\HF=-1017.4463184\RMSD

 Normal termination of Gaussian 16 at Wed Apr  9 00:13:11 2025.
