 Gaussian 16, Revision C.01,

 ----------------------------------------------------------------------
 #t hf aug-cc-pvdz symm=none int=(grid=ultrafine) guess=(read,tcheck) s
 table=(opt,rrhf)
 ----------------------------------------------------------------------
 -----
 title
 -----
 Symbolic Z-matrix:
 Charge =  0 Multiplicity = 1

 SCF Done:  E(RHF) =  -627.021948391     A.U. after   12 cycles
 Normal termination of Gaussian 16 at Tue Apr  8 23:50:19 2025.
 Gaussian 16:  ES64L-G16RevC.01  3-Jul-2019

 ----------------------------------------------------------------------
 #t hf aug-cc-pvdz iop(5/13=1,5/36=2,99/5=2) pseudo=read geom=check gue
 ss=(read,tcheck) scf=(maxcycle=1)
 ----------------------------------------------------------------------
 -----
 title
 -----
 Structure from the checkpoint file:  "BDE49_nonexpt_1840_mol1.chk"
 Charge =  0 Multiplicity = 1

                         Standard orientation:
 ---------------------------------------------------------------------
 Center     Atomic      Atomic             Coordinates (Angstroms)
 Number     Number       Type             X           Y           Z
 ---------------------------------------------------------------------
      1          6           0        1.146395   -0.619050   -0.381381
      2         14           0       -0.471085    0.017064    0.320775
      3          9           0       -1.630289   -0.990593   -0.124229
      4          9           0        2.177726    0.162581    0.172551
      5          9           0       -0.805081    1.441744   -0.314875
      6          1           0       -0.475975    0.147780    1.781321
      7          1           0        1.188888   -0.530175   -1.471325
      8          1           0        1.322706   -1.665786   -0.113583
 ---------------------------------------------------------------------

 SCF Done:  E(RHF) =  -628.385093470     A.U. after    2 cycles

 The electronic state is 1-A.
 Alpha  occ. eigenvalues --  -76.29297 -29.29104 -29.28797 -29.27164 -11.43652
 Alpha  occ. eigenvalues --   -5.65014  -2.29924  -2.28618  -2.25747  -1.17182
 Alpha  occ. eigenvalues --   -0.93868  -0.71886  -0.68861  -0.65546  -0.59991
 Alpha  occ. eigenvalues --   -0.55928  -0.42124  -0.40323  -0.36080  -0.35622
 Alpha  occ. eigenvalues --   -0.35066  -0.34924  -0.29641  -0.26841  -0.23203
 Alpha virt. eigenvalues --    0.04248   0.05298   0.05997   0.07631   0.08398
 Alpha virt. eigenvalues --    0.08835   0.13356   0.14503   0.15122   0.17403
 Alpha virt. eigenvalues --    0.18220   0.19258   0.21313   0.24065   0.24519

 Mulliken charges:
               1
     1  C   -3.900367
     2  Si   5.182097
     3  F   -0.956895
     4  F    0.112220
     5  F   -0.984925
     6  H   -2.054127
     7  H    1.250439
     8  H    1.351558
 Sum of Mulliken charges =   0.00000

 Dipole moment (field-independent basis, Debye):
    X=             -0.6533    Y=              0.9479    Z=             -1.0531  Tot=              1.5602

 Test job not archived.
 1\1\GINC-SE103\SP\RHF\Aug-CC-pVDZ\C1H3F3Si1\OHZDE\08-Apr-2025\0\\#t hf
  aug-cc-pvdz iop(5/13=1,5/36=2,99/5=2) pseudo=read geom=check guess=(r
 ead,tcheck) scf=(maxcycle=1)\\title\\0,1\C,0,1.146395,-0.61905,-0.3813
 81\Si,0,-0.471085,0.017064,0.320775\F,0,-1.630289,-0.990592,-0.124229\
 F,0,2.177726,0.162581,0.172551\F,0,-0.805081,1.441744,-0.314875\H,0,-0
 .475975,0.14778,1.781321\H,0,1.188888,-0.530175,-1.471325\H,0,1.322706
 ,-1.665786,-0.113583\\Version=ES64L-G16RevC.01\State=1-A\HF=-628.38509
 35\RMSD=8.090e-02\Dipole=-0.2570188,0.3729151,-0.414311\Quadrupole=1.8

 Normal termination of Gaussian 16 at Tue Apr  8 23:50:21 2025.
