 Gaussian 16, Revision C.01,

 ----------------------------------------------------------------------
 #t hf aug-cc-pvdz symm=none int=(grid=ultrafine) guess=(read,tcheck) s
 table=opt
 ----------------------------------------------------------------------
 -----
 title
 -----
 Symbolic Z-matrix:
 Charge =  0 Multiplicity = 2

 SCF Done:  E(UHF) =  -179.802190924     A.U. after   14 cycles
 Normal termination of Gaussian 16 at Wed Apr  9 00:30:41 2025.
 Gaussian 16:  ES64L-G16RevC.01  3-Jul-2019

 ----------------------------------------------------------------------
 #t hf aug-cc-pvdz iop(5/13=1,5/36=2,99/5=2) pseudo=read geom=check gue
 ss=(read,tcheck) scf=(maxcycle=1)
 ----------------------------------------------------------------------
 -----
 title
 -----
 Structure from the checkpoint file:  "BDE49_nonexpt_351_mol2.chk"
 Charge =  0 Multiplicity = 2

                         Standard orientation:
 ---------------------------------------------------------------------
 Center     Atomic      Atomic             Coordinates (Angstroms)
 Number     Number       Type             X           Y           Z
 ---------------------------------------------------------------------
      1          9           0        1.225575    0.141458   -0.000001
      2          7           0       -1.160296    0.098043    0.000001
      3          5           0        0.075908   -0.531284   -0.000000
      4          1           0       -1.259141    1.106773    0.000001
      5          1           0       -2.028506   -0.409776    0.000003
 ---------------------------------------------------------------------

 SCF Done:  E(UHF) =  -180.470994436     A.U. after    2 cycles

 The electronic state is 2-A.
 Alpha  occ. eigenvalues --  -29.24329 -15.74161  -7.67111  -1.34978  -0.93283
 Alpha  occ. eigenvalues --   -0.70296  -0.63642  -0.48809  -0.46713  -0.36322
 Alpha  occ. eigenvalues --   -0.33188  -0.23133
 Alpha virt. eigenvalues --    0.03177   0.04153   0.04454   0.06621   0.09661
 Alpha virt. eigenvalues --    0.12098   0.17486   0.18056   0.19206   0.20163
 Alpha virt. eigenvalues --    0.20167   0.23353   0.25676   0.26565   0.27063

  Beta  occ. eigenvalues --  -29.24014 -15.74100  -7.65049  -1.33968  -0.90474
  Beta  occ. eigenvalues --   -0.68868  -0.61997  -0.48141  -0.39555  -0.34574
  Beta  occ. eigenvalues --   -0.33757
  Beta virt. eigenvalues --    0.02647   0.04008   0.04555   0.06531   0.08044
  Beta virt. eigenvalues --    0.11003   0.15786   0.18547   0.19061   0.20084
  Beta virt. eigenvalues --    0.20634   0.22284   0.24333   0.25953   0.27140

 Mulliken charges and spin densities:
               1          2
     1  F   -0.621882  -0.079603
     2  N   -2.260730  -0.101040
     3  B    1.097335   1.179571
     4  H    0.649016   0.035267
     5  H    1.136261  -0.034195
 Sum of Mulliken charges =  -0.00000   1.00000

 Dipole moment (field-independent basis, Debye):
    X=              1.2041    Y=              2.0669    Z=              0.0000  Tot=              2.3921
                          Isotropic Fermi Contact Couplings
        Atom                 a.u.       MegaHertz       Gauss      10(-4) cm-1
     1  F(19)              0.08102     340.87117     121.63131     113.70238
     2  N(14)              0.12604      40.72258      14.53083      13.58359
     3  B(11)              0.24416     350.21686     124.96608     116.81977
     4  H(1)               0.01143      51.10380      18.23511      17.04639
     5  H(1)               0.00272      12.14067       4.33209       4.04969
 --------------------------------------------------------
       Center         ----  Spin Dipole Couplings  ----
                      3XX-RR        3YY-RR        3ZZ-RR

 Normal termination of Gaussian 16 at Wed Apr  9 00:30:43 2025.
