 Gaussian 16, Revision C.01,

 ----------------------------------------------------------------------
 #t hf aug-cc-pvdz symm=none int=(grid=ultrafine) guess=(read,tcheck) s
 table=(opt,rrhf)
 ----------------------------------------------------------------------
 -----
 title
 -----
 Symbolic Z-matrix:
 Charge =  0 Multiplicity = 1

 SCF Done:  E(RHF) =  -684.784227071     A.U. after   18 cycles
 Normal termination of Gaussian 16 at Tue Apr  8 23:28:59 2025.
 Gaussian 16:  ES64L-G16RevC.01  3-Jul-2019

 ----------------------------------------------------------------------
 #t hf aug-cc-pvdz iop(5/13=1,5/36=2,99/5=2) pseudo=read geom=check gue
 ss=(read,tcheck) scf=(maxcycle=1)
 ----------------------------------------------------------------------
 -----
 title
 -----
 Structure from the checkpoint file:  "BDE49_nonexpt_1293_mol1.chk"
 Charge =  0 Multiplicity = 1

                         Standard orientation:
 ---------------------------------------------------------------------
 Center     Atomic      Atomic             Coordinates (Angstroms)
 Number     Number       Type             X           Y           Z
 ---------------------------------------------------------------------
      1          6           0       -1.961707   -1.424754   -0.051837
      2          6           0       -0.602275   -1.126150   -0.054813
      3          6           0       -0.171454    0.204158   -0.004086
      4          6           0        1.274982    0.587171   -0.018675
      5          8           0        1.629648    1.742968   -0.095619
      6         15           0        2.607255   -0.765506   -0.060505
      7          6           0       -2.899874   -0.396560    0.009808
      8          6           0       -2.478134    0.933143    0.061412
      9          6           0       -1.122677    1.232548    0.050287
     10          1           0       -0.771491    2.256506    0.081846
     11          1           0       -2.288216   -2.457204   -0.096811
     12          1           0        0.116931   -1.935242   -0.106560
     13          1           0       -3.958627   -0.630159    0.016094
     14          1           0       -3.208758    1.732626    0.107622
     15          1           0        2.183121   -1.501563    1.073769
     16          1           0        3.547870    0.016551    0.643986
 ---------------------------------------------------------------------

 SCF Done:  E(RHF) =  -686.548327222     A.U. after    2 cycles

 The electronic state is 1-A.
 Alpha  occ. eigenvalues -- -105.19401 -21.06149 -11.52729 -11.49944 -11.44995
 Alpha  occ. eigenvalues --  -11.44232 -11.42625 -11.42168 -11.37993  -2.76441
 Alpha  occ. eigenvalues --   -1.72132  -1.47863  -1.46972  -1.44251  -1.35384
 Alpha  occ. eigenvalues --   -1.12806  -1.10813  -0.92302  -0.88137  -0.81270
 Alpha  occ. eigenvalues --   -0.74045  -0.70412  -0.62862  -0.59794  -0.58344
 Alpha  occ. eigenvalues --   -0.55768  -0.53916  -0.47143  -0.46393  -0.46348
 Alpha  occ. eigenvalues --   -0.40561  -0.34572  -0.33119  -0.26397  -0.18724
 Alpha  occ. eigenvalues --   -0.03529
 Alpha virt. eigenvalues --    0.03163   0.04895   0.04994   0.06123   0.07012
 Alpha virt. eigenvalues --    0.07265   0.07604   0.08104   0.09183   0.10481
 Alpha virt. eigenvalues --    0.11129   0.11729   0.12224   0.13145   0.13365

 Mulliken charges:
               1
     1  C   -2.252229
     2  C    0.301000
     3  C    2.860339
     4  C    0.521765
     5  O   -3.374426
     6  P    1.959893
     7  C   -2.859913
     8  C   -1.585868
     9  C   -2.733848
    10  H    1.768527
    11  H    1.477640
    12  H    2.124380
    13  H    1.519614
    14  H    1.467811
    15  H   -0.593262
    16  H   -0.601424
 Sum of Mulliken charges =  -0.00000

 Dipole moment (field-independent basis, Debye):
    X=             -0.1775    Y=             -1.8851    Z=             -2.7834  Tot=              3.3663

 Test job not archived.
 1\1\GINC-SE174\SP\RHF\Aug-CC-pVDZ\C7H7O1P1\OHZDE\08-Apr-2025\0\\#t hf
 aug-cc-pvdz iop(5/13=1,5/36=2,99/5=2) pseudo=read geom=check guess=(re
 ad,tcheck) scf=(maxcycle=1)\\title\\0,1\C,0,-1.961707,-1.424754,-0.051
 837\C,0,-0.602275,-1.12615,-0.054813\C,0,-0.171454,0.204158,-0.004086\
 C,0,1.274982,0.587171,-0.018675\O,0,1.629648,1.742968,-0.095619\P,0,2.
 607255,-0.765507,-0.060505\C,0,-2.899874,-0.39656,0.009808\C,0,-2.4781
 34,0.933143,0.061412\C,0,-1.122677,1.232548,0.050287\H,0,-0.77149,2.25
 6506,0.081846\H,0,-2.288216,-2.457204,-0.096811\H,0,0.116931,-1.935242

 Normal termination of Gaussian 16 at Tue Apr  8 23:29:07 2025.
