 Gaussian 16, Revision C.01,

 ----------------------------------------------------------------------
 #t hf aug-cc-pvdz symm=none int=(grid=ultrafine) guess=(read,tcheck) s
 table=(opt,rrhf)
 ----------------------------------------------------------------------
 -----
 title
 -----
 Symbolic Z-matrix:
 Charge =  0 Multiplicity = 1

 SCF Done:  E(RHF) =  -383.667547176     A.U. after   15 cycles

 1\1\GINC-SE329\Stability\RHF\Aug-CC-pVDZ\C8H10O1\OHZDE\08-Apr-2025\0\\
 #t hf aug-cc-pvdz symm=none int=(grid=ultrafine) guess=(read,tcheck) s
 table=(opt,rrhf)\\title\\0,1\C,0,-3.611043,-0.14143,0.000002\C,0,-2.24
 0605,0.508764,0.000001\H,0,-4.391468,0.623957,0.000002\H,0,-3.738593,-
 0.767542,0.885545\H,0,-3.738594,-0.767541,-0.885542\O,0,-1.269855,-0.5
 37687,0.\H,0,-2.107992,1.139997,0.887835\H,0,-2.107994,1.139997,-0.887
 833\C,0,0.054903,-0.213459,0.\C,0,0.553774,1.09241,0.\C,0,0.945222,-1.
 295238,0.\C,0,2.314002,-1.070695,0.\C,0,2.820518,0.231341,-0.000001\C,

 Normal termination of Gaussian 16 at Tue Apr  8 22:44:40 2025.
 Gaussian 16:  ES64L-G16RevC.01  3-Jul-2019

 ----------------------------------------------------------------------
 #t hf aug-cc-pvdz iop(5/13=1,5/36=2,99/5=2) pseudo=read geom=check gue
 ss=(read,tcheck) scf=(maxcycle=1)
 ----------------------------------------------------------------------
 -----
 title
 -----
 Structure from the checkpoint file:  "BDE49_expt_1427_mol1.chk"
 Charge =  0 Multiplicity = 1

                         Standard orientation:
 ---------------------------------------------------------------------
 Center     Atomic      Atomic             Coordinates (Angstroms)
 Number     Number       Type             X           Y           Z
 ---------------------------------------------------------------------
      1          6           0       -3.611043   -0.141430    0.000002
      2          6           0       -2.240605    0.508764    0.000001
      3          1           0       -4.391468    0.623957    0.000002
      4          1           0       -3.738593   -0.767542    0.885545
      5          1           0       -3.738594   -0.767541   -0.885542
      6          8           0       -1.269855   -0.537687   -0.000000
      7          1           0       -2.107992    1.139997    0.887835
      8          1           0       -2.107994    1.139997   -0.887833
      9          6           0        0.054903   -0.213459   -0.000000
     10          6           0        0.553774    1.092410   -0.000000
     11          6           0        0.945222   -1.295238   -0.000000
     12          6           0        2.314002   -1.070695   -0.000000
     13          6           0        2.820518    0.231341   -0.000001
     14          6           0        1.934584    1.301909   -0.000000
     15          1           0       -0.113506    1.943584   -0.000000
     16          1           0        2.311781    2.318731   -0.000001
     17          1           0        0.535104   -2.297951   -0.000000
     18          1           0        2.991796   -1.917201   -0.000001
     19          1           0        3.890177    0.403847   -0.000001
 ---------------------------------------------------------------------

 SCF Done:  E(RHF) =  -385.486981021     A.U. after    2 cycles

 The electronic state is 1-A.
 Alpha  occ. eigenvalues --  -21.06693 -11.52811 -11.45396 -11.44421 -11.42309
 Alpha  occ. eigenvalues --  -11.40149 -11.39804 -11.37355 -11.35986  -1.78595
 Alpha  occ. eigenvalues --   -1.31486  -1.14298  -1.08975  -1.04995  -0.90320
 Alpha  occ. eigenvalues --   -0.86174  -0.82306  -0.71115  -0.65823  -0.65514
 Alpha  occ. eigenvalues --   -0.60663  -0.59554  -0.57755  -0.53460  -0.53350
 Alpha  occ. eigenvalues --   -0.50113  -0.49766  -0.46534  -0.44169  -0.40329
 Alpha  occ. eigenvalues --   -0.38672  -0.32929  -0.25870
 Alpha virt. eigenvalues --    0.03581   0.04589   0.05055   0.05748   0.06272
 Alpha virt. eigenvalues --    0.06491   0.06626   0.06688   0.07213   0.08204
 Alpha virt. eigenvalues --    0.10149   0.11803   0.12967   0.13088   0.13532

 Mulliken charges:
               1
     1  C   -3.748725
     2  C   -2.799730
     3  H    1.059758
     4  H    1.298182
     5  H    1.298181
     6  O   -5.029215
     7  H    1.656304
     8  H    1.656303
     9  C    7.101641
    10  C   -3.551746
    11  C   -4.028262
    12  C   -0.093354
    13  C   -2.661656
    14  C   -0.348414
    15  H    1.810828
    16  H    1.493064
    17  H    1.852020
    18  H    1.493888
    19  H    1.540933
 Sum of Mulliken charges =   0.00000

 Dipole moment (field-independent basis, Debye):
    X=             -1.0250    Y=              0.2886    Z=             -0.0000  Tot=              1.0648

 Test job not archived.
 1\1\GINC-SE329\SP\RHF\Aug-CC-pVDZ\C8H10O1\OHZDE\08-Apr-2025\0\\#t hf a
 ug-cc-pvdz iop(5/13=1,5/36=2,99/5=2) pseudo=read geom=check guess=(rea
 d,tcheck) scf=(maxcycle=1)\\title\\0,1\C,0,-3.611043,-0.14143,0.000002
 \C,0,-2.240605,0.508764,0.000001\H,0,-4.391468,0.623957,0.000002\H,0,-
 3.738593,-0.767542,0.885545\H,0,-3.738594,-0.767541,-0.885542\O,0,-1.2
 69855,-0.537687,0.\H,0,-2.107992,1.139997,0.887835\H,0,-2.107994,1.139
 997,-0.887833\C,0,0.054903,-0.213459,0.\C,0,0.553774,1.09241,0.\C,0,0.
 945222,-1.295238,0.\C,0,2.314002,-1.070695,0.\C,0,2.820518,0.231341,-0

 Normal termination of Gaussian 16 at Tue Apr  8 22:44:49 2025.
