 Gaussian 16, Revision C.01,

 ----------------------------------------------------------------------
 #t hf aug-cc-pvdz symm=none int=(grid=ultrafine) guess=(read,tcheck) s
 table=(opt,rrhf)
 ----------------------------------------------------------------------
 -----
 title
 -----
 Symbolic Z-matrix:
 Charge =  0 Multiplicity = 1

 SCF Done:  E(RHF) =  -842.316266266     A.U. after   17 cycles
 Normal termination of Gaussian 16 at Tue Apr  8 22:52:21 2025.
 Gaussian 16:  ES64L-G16RevC.01  3-Jul-2019

 ----------------------------------------------------------------------
 #t hf aug-cc-pvdz iop(5/13=1,5/36=2,99/5=2) pseudo=read geom=check gue
 ss=(read,tcheck) scf=(maxcycle=1)
 ----------------------------------------------------------------------
 -----
 title
 -----
 Structure from the checkpoint file:  "BDE49_expt_1704_mol1.chk"
 Charge =  0 Multiplicity = 1

                         Standard orientation:
 ---------------------------------------------------------------------
 Center     Atomic      Atomic             Coordinates (Angstroms)
 Number     Number       Type             X           Y           Z
 ---------------------------------------------------------------------
      1          6           0       -2.413335    2.312427    0.000000
      2          6           0       -1.171754    2.989965    0.000000
      3          6           0        0.006248    2.283698   -0.000000
      4          6           0       -2.452783    0.939370    0.000000
      5          6           0       -1.255523    0.178735    0.000000
      6          6           0        0.000000    0.864277    0.000000
      7          1           0       -3.334778    2.883364    0.000000
      8          1           0       -1.154170    4.073918    0.000000
      9          1           0        0.958527    2.803109   -0.000000
     10          1           0       -3.403690    0.417083    0.000000
     11          6           0        1.201391    0.109010   -0.000000
     12          6           0        1.145460   -1.260292   -0.000000
     13          6           0       -0.084982   -1.954235    0.000000
     14          6           0       -1.256957   -1.240441    0.000000
     15         17           0        2.633177   -2.195880   -0.000000
     16          1           0       -0.086966   -3.036410    0.000000
     17          1           0       -2.206487   -1.764854    0.000000
     18          1           0        2.156963    0.618657   -0.000000
 ---------------------------------------------------------------------

 SCF Done:  E(RHF) =  -844.388375696     A.U. after    2 cycles

 The electronic state is 1-A'.
 Alpha  occ. eigenvalues --  -99.89439 -11.53195 -11.50739 -11.46350 -11.45612
 Alpha  occ. eigenvalues --  -11.45041 -11.43968 -11.42695 -11.42244 -11.40644
 Alpha  occ. eigenvalues --  -11.37505 -10.46772  -9.66806  -9.65930  -9.65737
 Alpha  occ. eigenvalues --   -1.42669  -1.33164  -1.22080  -1.15212  -1.08288
 Alpha  occ. eigenvalues --   -1.05137  -0.90959  -0.87850  -0.86092  -0.73602
 Alpha  occ. eigenvalues --   -0.71450  -0.68669  -0.64526  -0.60393  -0.58479
 Alpha  occ. eigenvalues --   -0.57644  -0.56611  -0.55667  -0.52844  -0.51967
 Alpha  occ. eigenvalues --   -0.47948  -0.44499  -0.44063  -0.43369  -0.39251
 Alpha  occ. eigenvalues --   -0.32327  -0.28681
 Alpha virt. eigenvalues --    0.03121   0.04617   0.04854   0.05936   0.06385
 Alpha virt. eigenvalues --    0.06951   0.07327   0.08236   0.08747   0.09976
 Alpha virt. eigenvalues --    0.10105   0.10426   0.11056   0.11281   0.11997

 Mulliken charges:
               1
     1  C   -3.628446
     2  C   -3.864112
     3  C   -2.717719
     4  C   -2.219070
     5  C    5.689159
     6  C    6.887652
     7  H    1.508546
     8  H    1.486335
     9  H    1.693265
    10  H    1.695699
    11  C   -0.471055
    12  C   -4.327068
    13  C   -4.386999
    14  C   -1.636906
    15  Cl  -0.916564
    16  H    1.666465
    17  H    1.857041
    18  H    1.683774
 Sum of Mulliken charges =   0.00000

 Dipole moment (field-independent basis, Debye):
    X=             -2.1988    Y=              1.6074    Z=              0.0000  Tot=              2.7237

 Test job not archived.
 1\1\GINC-SE339\SP\RHF\Aug-CC-pVDZ\C10H7Cl1\OHZDE\08-Apr-2025\0\\#t hf
 aug-cc-pvdz iop(5/13=1,5/36=2,99/5=2) pseudo=read geom=check guess=(re
 ad,tcheck) scf=(maxcycle=1)\\title\\0,1\C,0,-2.413335,2.312427,0.\C,0,
 -1.171754,2.989965,0.\C,0,0.006248,2.283698,0.\C,0,-2.452783,0.93937,0
 .\C,0,-1.255523,0.178735,0.\C,0,0.,0.864277,0.\H,0,-3.334778,2.883364,
 0.\H,0,-1.15417,4.073918,0.\H,0,0.958527,2.803109,0.\H,0,-3.40369,0.41
 7083,0.\C,0,1.201391,0.10901,0.\C,0,1.14546,-1.260292,0.\C,0,-0.084982
 ,-1.954235,0.\C,0,-1.256957,-1.240441,0.\Cl,0,2.633177,-2.19588,0.\H,0

 Normal termination of Gaussian 16 at Tue Apr  8 22:52:32 2025.
