 Gaussian 16, Revision C.01,

 ----------------------------------------------------------------------
 #t hf aug-cc-pvdz symm=none int=(grid=ultrafine) guess=(read,tcheck) s
 table=opt
 ----------------------------------------------------------------------
 -----
 title
 -----
 Symbolic Z-matrix:
 Charge =  0 Multiplicity = 2

 SCF Done:  E(UHF) =  -515.087143741     A.U. after   22 cycles
 Normal termination of Gaussian 16 at Tue Apr  8 23:20:51 2025.
 Gaussian 16:  ES64L-G16RevC.01  3-Jul-2019

 ----------------------------------------------------------------------
 #t hf aug-cc-pvdz iop(5/13=1,5/36=2,99/5=2) pseudo=read geom=check gue
 ss=(read,tcheck) scf=(maxcycle=1)
 ----------------------------------------------------------------------
 -----
 title
 -----
 Structure from the checkpoint file:  "BDE49_nonexpt_113_mol2.chk"
 Charge =  0 Multiplicity = 2

                         Standard orientation:
 ---------------------------------------------------------------------
 Center     Atomic      Atomic             Coordinates (Angstroms)
 Number     Number       Type             X           Y           Z
 ---------------------------------------------------------------------
      1          5           0        2.557752   -0.172685    0.000018
      2          7           0        1.221967    0.028967   -0.000014
      3          6           0        0.011974    0.016066   -0.000005
      4         16           0       -1.556056    0.000069   -0.000000
      5          1           0        3.482525    0.563159    0.000042
 ---------------------------------------------------------------------

 SCF Done:  E(UHF) =  -515.803749397     A.U. after    2 cycles

 The electronic state is 2-A.
 Alpha  occ. eigenvalues --  -75.71352 -15.77616 -13.24648 -13.03048 -13.02380
 Alpha  occ. eigenvalues --  -11.55579  -8.05621  -7.69355  -1.43251  -1.18408
 Alpha  occ. eigenvalues --   -0.94439  -0.64860  -0.58597  -0.57006  -0.56006
 Alpha  occ. eigenvalues --   -0.36889  -0.30667  -0.22827
 Alpha virt. eigenvalues --    0.02563   0.02922   0.04413   0.05198   0.06835
 Alpha virt. eigenvalues --    0.07078   0.09746   0.12369   0.13400   0.13834
 Alpha virt. eigenvalues --    0.15254   0.17260   0.17488   0.19777   0.21933

  Beta  occ. eigenvalues --  -75.71255 -15.78575 -13.24710 -13.02416 -13.02277
  Beta  occ. eigenvalues --  -11.54869  -8.05513  -7.67585  -1.43707  -1.18001
  Beta  occ. eigenvalues --   -0.91633  -0.64018  -0.57485  -0.56918  -0.54334
  Beta  occ. eigenvalues --   -0.30881  -0.30232
  Beta virt. eigenvalues --    0.02835   0.03282   0.03426   0.04887   0.06965
  Beta virt. eigenvalues --    0.07897   0.08414   0.10235   0.12421   0.13755
  Beta virt. eigenvalues --    0.15244   0.16304   0.17418   0.17590   0.21937

 Mulliken charges and spin densities:
               1          2
     1  B    2.012015   1.006547
     2  N   -3.976675  -0.377300
     3  C    1.947489   0.194905
     4  S    1.732355   0.171990
     5  H   -1.715184   0.003859
 Sum of Mulliken charges =  -0.00000   1.00000

 Dipole moment (field-independent basis, Debye):
    X=             -3.5171    Y=              0.5680    Z=              0.0000  Tot=              3.5626
                          Isotropic Fermi Contact Couplings
        Atom                 a.u.       MegaHertz       Gauss      10(-4) cm-1
     1  B(11)              0.22181     318.15878     113.52696     106.12635
     2  N(14)             -0.04741     -15.31950      -5.46638      -5.11004
     3  C(13)              0.03576      40.19669      14.34318      13.40817
     4  S(33)              0.04907      16.85532       6.01440       5.62233
     5  H(1)               0.00715      31.93811      11.39631      10.65341
 --------------------------------------------------------
       Center         ----  Spin Dipole Couplings  ----
                      3XX-RR        3YY-RR        3ZZ-RR

 Normal termination of Gaussian 16 at Tue Apr  8 23:20:53 2025.
