 Gaussian 16, Revision C.01,

 ----------------------------------------------------------------------
 #t hf aug-cc-pvdz symm=none int=(grid=ultrafine) guess=(read,tcheck) s
 table=(opt,rrhf)
 ----------------------------------------------------------------------
 -----
 title
 -----
 Symbolic Z-matrix:
 Charge =  0 Multiplicity = 1

 SCF Done:  E(RHF) =  -1059.93357062     A.U. after   15 cycles
 Normal termination of Gaussian 16 at Tue Apr  8 23:44:14 2025.
 Gaussian 16:  ES64L-G16RevC.01  3-Jul-2019

 ----------------------------------------------------------------------
 #t hf aug-cc-pvdz iop(5/13=1,5/36=2,99/5=2) pseudo=read geom=check gue
 ss=(read,tcheck) scf=(maxcycle=1)
 ----------------------------------------------------------------------
 -----
 title
 -----
 Structure from the checkpoint file:  "BDE49_nonexpt_1675_mol1.chk"
 Charge =  0 Multiplicity = 1

                         Standard orientation:
 ---------------------------------------------------------------------
 Center     Atomic      Atomic             Coordinates (Angstroms)
 Number     Number       Type             X           Y           Z
 ---------------------------------------------------------------------
      1          6           0       -0.987907   -0.399527    0.286221
      2         15           0        2.235248    0.142859   -0.740386
      3          9           0        1.996385    1.597747   -0.024680
      4          9           0        3.593135   -0.300796    0.050719
      5          6           0       -1.354587    0.931984    0.549704
      6          6           0       -1.950462   -1.256377   -0.271543
      7          6           0       -2.640808    1.385661    0.272446
      8          6           0       -3.584414    0.518838   -0.276993
      9          6           0       -3.237885   -0.802382   -0.549702
     10          1           0       -3.969147   -1.479548   -0.976813
     11          1           0       -1.695449   -2.288971   -0.486542
     12          1           0       -2.906905    2.415307    0.483656
     13          1           0       -4.586439    0.872932   -0.491951
     14          1           0       -0.630290    1.621220    0.971140
     15         14           0        0.747481   -1.002741    0.639429
     16          1           0        0.852599   -2.447694    0.325605
     17          1           0        1.172881   -0.739502    2.033536
 ---------------------------------------------------------------------

 SCF Done:  E(RHF) =  -1062.06015301     A.U. after    2 cycles

 The electronic state is 1-A.
 Alpha  occ. eigenvalues -- -105.28201 -76.23475 -29.28062 -29.28050 -11.52278
 Alpha  occ. eigenvalues --  -11.44048 -11.43622 -11.41643 -11.41407 -11.37242
 Alpha  occ. eigenvalues --   -5.57221  -2.87011  -2.22033  -2.20577  -2.18662
 Alpha  occ. eigenvalues --   -1.60416  -1.56724  -1.50782  -1.34666  -1.10206
 Alpha  occ. eigenvalues --   -1.10154  -0.89740  -0.87310  -0.86446  -0.75682
 Alpha  occ. eigenvalues --   -0.70212  -0.64304  -0.59570  -0.57967  -0.56706
 Alpha  occ. eigenvalues --   -0.54186  -0.51783  -0.49442  -0.45867  -0.44220
 Alpha  occ. eigenvalues --   -0.41144  -0.38887  -0.36043  -0.34535  -0.34152
 Alpha  occ. eigenvalues --   -0.33845  -0.27995  -0.19441  -0.14720  -0.00394
 Alpha virt. eigenvalues --    0.03361   0.04999   0.05023   0.05837   0.06563
 Alpha virt. eigenvalues --    0.06988   0.07527   0.08425   0.09015   0.09949
 Alpha virt. eigenvalues --    0.10437   0.10906   0.11041   0.11630   0.13114

 Mulliken charges:
               1
     1  C    1.261480
     2  P    1.960851
     3  F   -0.724837
     4  F   -0.609489
     5  C   -3.029164
     6  C   -3.766956
     7  C   -0.132627
     8  C   -2.579082
     9  C    0.244479
    10  H    1.636691
    11  H    1.484720
    12  H    1.593536
    13  H    1.358270
    14  H    1.401854
    15  Si   3.489202
    16  H   -1.637588
    17  H   -1.951343
 Sum of Mulliken charges =   0.00000

 Dipole moment (field-independent basis, Debye):
    X=              5.8340    Y=              5.3949    Z=              2.0618  Tot=              8.2092

 Test job not archived.
 1\1\GINC-SE016\SP\RHF\Aug-CC-pVDZ\C6H7F2P1Si1\OHZDE\08-Apr-2025\0\\#t
 hf aug-cc-pvdz iop(5/13=1,5/36=2,99/5=2) pseudo=read geom=check guess=
 (read,tcheck) scf=(maxcycle=1)\\title\\0,1\C,0,-0.987907,-0.399527,0.2
 86221\P,0,2.235248,0.142859,-0.740386\F,0,1.996385,1.597747,-0.02468\F
 ,0,3.593135,-0.300796,0.050719\C,0,-1.354587,0.931984,0.549704\C,0,-1.
 950462,-1.256377,-0.271543\C,0,-2.640808,1.385661,0.272446\C,0,-3.5844
 14,0.518838,-0.276993\C,0,-3.237885,-0.802382,-0.549702\H,0,-3.969147,
 -1.479548,-0.976813\H,0,-1.695449,-2.288971,-0.486542\H,0,-2.906905,2.

 Normal termination of Gaussian 16 at Tue Apr  8 23:44:24 2025.
