 Gaussian 16, Revision C.01,

 ----------------------------------------------------------------------
 #t hf aug-cc-pvdz symm=none int=(grid=ultrafine) guess=(read,tcheck) s
 table=opt
 ----------------------------------------------------------------------
 -----
 title
 -----
 Symbolic Z-matrix:
 Charge =  0 Multiplicity = 2

 SCF Done:  E(UHF) =  -1233.81681161     A.U. after   15 cycles
 Normal termination of Gaussian 16 at Tue Apr  8 23:44:14 2025.
 Gaussian 16:  ES64L-G16RevC.01  3-Jul-2019

 ----------------------------------------------------------------------
 #t hf aug-cc-pvdz iop(5/13=1,5/36=2,99/5=2) pseudo=read geom=check gue
 ss=(read,tcheck) scf=(maxcycle=1)
 ----------------------------------------------------------------------
 -----
 title
 -----
 Structure from the checkpoint file:  "BDE49_nonexpt_171_mol2.chk"
 Charge =  0 Multiplicity = 2

                         Standard orientation:
 ---------------------------------------------------------------------
 Center     Atomic      Atomic             Coordinates (Angstroms)
 Number     Number       Type             X           Y           Z
 ---------------------------------------------------------------------
      1         17           0       -2.342230   -0.411167    0.000005
      2          5           0       -1.169564    0.835961   -0.000006
      3         14           0        0.811544    0.972339   -0.000001
      4         17           0        1.875245   -0.837180   -0.000002
      5          1           0        1.212481    1.714669   -1.212488
      6          1           0        1.212475    1.714664    1.212492
 ---------------------------------------------------------------------

 SCF Done:  E(UHF) =  -1234.53762202     A.U. after    2 cycles

 The electronic state is 2-A.
 Alpha  occ. eigenvalues --  -99.92471 -99.88575 -76.26907 -10.49719 -10.45934
 Alpha  occ. eigenvalues --   -9.69597  -9.69263  -9.69015  -9.65876  -9.65206
 Alpha  occ. eigenvalues --   -9.65146  -7.69681  -5.60408  -2.22801  -2.22195
 Alpha  occ. eigenvalues --   -2.22049  -1.37141  -1.28920  -0.86365  -0.74150
 Alpha  occ. eigenvalues --   -0.59394  -0.57024  -0.56726  -0.55254  -0.54267
 Alpha  occ. eigenvalues --   -0.48336  -0.47879  -0.32033
 Alpha virt. eigenvalues --    0.01180   0.03516   0.03887   0.04134   0.05322
 Alpha virt. eigenvalues --    0.07926   0.08080   0.09048   0.10539   0.12003
 Alpha virt. eigenvalues --    0.12625   0.13005   0.14030   0.14649   0.15541

  Beta  occ. eigenvalues --  -99.92412 -99.88519 -76.26850 -10.49654 -10.45871
  Beta  occ. eigenvalues --   -9.69610  -9.69059  -9.68903  -9.65689  -9.65134
  Beta  occ. eigenvalues --   -9.65112  -7.67977  -5.60303  -2.22882  -2.21947
  Beta  occ. eigenvalues --   -2.21785  -1.36363  -1.28448  -0.83465  -0.72356
  Beta  occ. eigenvalues --   -0.57070  -0.56875  -0.55623  -0.55238  -0.53517
  Beta  occ. eigenvalues --   -0.47969  -0.45383
  Beta virt. eigenvalues --    0.01640   0.02643   0.03707   0.03913   0.05675
  Beta virt. eigenvalues --    0.06131   0.08008   0.08370   0.09081   0.10672
  Beta virt. eigenvalues --    0.12524   0.12992   0.13511   0.14897   0.15276

 Mulliken charges and spin densities:
               1          2
     1  Cl  -1.014573   0.035143
     2  B   -0.922926   1.029441
     3  Si   6.227290  -0.089166
     4  Cl  -0.821393   0.016991
     5  H   -1.734200   0.003796
     6  H   -1.734198   0.003796
 Sum of Mulliken charges =   0.00000   1.00000

 Dipole moment (field-independent basis, Debye):
    X=             -0.6247    Y=              0.8628    Z=              0.0000  Tot=              1.0652
                          Isotropic Fermi Contact Couplings
        Atom                 a.u.       MegaHertz       Gauss      10(-4) cm-1
     1  Cl(35)             0.05336      23.39597       8.34826       7.80405
     2  B(11)              0.14968     214.68945      76.60653      71.61269
     3  Si(29)             0.12098    -107.51580     -38.36431     -35.86341
     4  Cl(35)             0.04437      19.45572       6.94228       6.48973
     5  H(1)              -0.00186      -8.32872      -2.97189      -2.77816
     6  H(1)              -0.00186      -8.32859      -2.97185      -2.77812
 --------------------------------------------------------
       Center         ----  Spin Dipole Couplings  ----

 Normal termination of Gaussian 16 at Tue Apr  8 23:44:16 2025.
