 Gaussian 16, Revision C.01,

 ----------------------------------------------------------------------
 #t hf aug-cc-pvdz symm=none int=(grid=ultrafine) guess=(read,tcheck) s
 table=(opt,rrhf)
 ----------------------------------------------------------------------
 -----
 title
 -----
 Symbolic Z-matrix:
 Charge =  0 Multiplicity = 1

 SCF Done:  E(RHF) =  -648.283963843     A.U. after   15 cycles
 Normal termination of Gaussian 16 at Wed Apr  9 00:45:09 2025.
 Gaussian 16:  ES64L-G16RevC.01  3-Jul-2019

 ----------------------------------------------------------------------
 #t hf aug-cc-pvdz iop(5/13=1,5/36=2,99/5=2) pseudo=read geom=check gue
 ss=(read,tcheck) scf=(maxcycle=1)
 ----------------------------------------------------------------------
 -----
 title
 -----
 Structure from the checkpoint file:  "BDE49_nonexpt_759_mol1.chk"
 Charge =  0 Multiplicity = 1

                         Standard orientation:
 ---------------------------------------------------------------------
 Center     Atomic      Atomic             Coordinates (Angstroms)
 Number     Number       Type             X           Y           Z
 ---------------------------------------------------------------------
      1          6           0        2.217803   -0.012145    0.045257
      2          7           0        0.856154   -0.279857   -0.115958
      3          6           0       -0.145297    0.671709    0.030436
      4          5           0       -2.209637   -1.533718    0.464441
      5          8           0        3.060108   -0.863224   -0.070682
      6          1           0        2.411773    1.042252    0.282191
      7          8           0        0.065029    1.821411    0.330910
      8          1           0        0.616239   -1.240477   -0.328819
      9         15           0       -1.874572    0.084668   -0.374046
     10          1           0       -1.366866   -2.373222    0.485926
     11          1           0       -3.311542   -1.772356    0.835467
     12          1           0       -2.612050    1.078500    0.289447
 ---------------------------------------------------------------------

 SCF Done:  E(RHF) =  -649.773106699     A.U. after    2 cycles

 The electronic state is 1-A.
 Alpha  occ. eigenvalues -- -105.19728 -21.07216 -21.06938 -15.80878 -11.52631
 Alpha  occ. eigenvalues --  -11.50933  -7.65527  -2.78287  -1.75775  -1.72746
 Alpha  occ. eigenvalues --   -1.56112  -1.50740  -1.44987  -1.40146  -0.95492
 Alpha  occ. eigenvalues --   -0.87675  -0.83872  -0.71703  -0.67402  -0.60747
 Alpha  occ. eigenvalues --   -0.57272  -0.53010  -0.52780  -0.47664  -0.42634
 Alpha  occ. eigenvalues --   -0.34113  -0.33706  -0.24408  -0.15230  -0.07391
 Alpha virt. eigenvalues --    0.03184   0.03718   0.03962   0.05109   0.06482
 Alpha virt. eigenvalues --    0.08072   0.08794   0.09490   0.10207   0.10700
 Alpha virt. eigenvalues --    0.11014   0.11711   0.12325   0.12386   0.13602

 Mulliken charges:
               1
     1  C    1.755738
     2  N   -2.725510
     3  C    2.435636
     4  B    4.748787
     5  O   -2.664946
     6  H    1.688809
     7  O   -2.836138
     8  H    0.747162
     9  P    2.443009
    10  H   -2.271241
    11  H   -2.699702
    12  H   -0.621605
 Sum of Mulliken charges =  -0.00000

 Dipole moment (field-independent basis, Debye):
    X=             -1.7141    Y=              4.5516    Z=             -6.7159  Tot=              8.2921

 Test job not archived.
 1\1\GINC-SE099\SP\RHF\Aug-CC-pVDZ\C2H5B1N1O2P1\OHZDE\09-Apr-2025\0\\#t
  hf aug-cc-pvdz iop(5/13=1,5/36=2,99/5=2) pseudo=read geom=check guess
 =(read,tcheck) scf=(maxcycle=1)\\title\\0,1\C,0,2.217803,-0.012145,0.0
 45257\N,0,0.856154,-0.279857,-0.115958\C,0,-0.145297,0.671709,0.030436
 \B,0,-2.209637,-1.533718,0.464441\O,0,3.060108,-0.863225,-0.070682\H,0
 ,2.411773,1.042252,0.282191\O,0,0.065029,1.821411,0.33091\H,0,0.616239
 ,-1.240477,-0.328819\P,0,-1.874572,0.084668,-0.374046\H,0,-1.366866,-2
 .373222,0.485926\H,0,-3.311542,-1.772355,0.835467\H,0,-2.61205,1.0785,

 Normal termination of Gaussian 16 at Wed Apr  9 00:45:14 2025.
