 Gaussian 16, Revision C.01,

 ----------------------------------------------------------------------
 #t hf aug-cc-pvdz symm=none int=(grid=ultrafine) guess=(read,tcheck) s
 table=opt
 ----------------------------------------------------------------------
 -----
 title
 -----
 Symbolic Z-matrix:
 Charge =  0 Multiplicity = 2

 SCF Done:  E(UHF) =  -496.829360471     A.U. after   17 cycles
 Normal termination of Gaussian 16 at Tue Apr  8 23:37:26 2025.
 Gaussian 16:  ES64L-G16RevC.01  3-Jul-2019

 ----------------------------------------------------------------------
 #t hf aug-cc-pvdz iop(5/13=1,5/36=2,99/5=2) pseudo=read geom=check gue
 ss=(read,tcheck) scf=(maxcycle=1)
 ----------------------------------------------------------------------
 -----
 title
 -----
 Structure from the checkpoint file:  "BDE49_nonexpt_1529_mol2.chk"
 Charge =  0 Multiplicity = 2

                         Standard orientation:
 ---------------------------------------------------------------------
 Center     Atomic      Atomic             Coordinates (Angstroms)
 Number     Number       Type             X           Y           Z
 ---------------------------------------------------------------------
      1          6           0        0.479536   -0.121183    0.000000
      2          6           0       -0.051014    0.873373    1.086455
      3          6           0       -0.051014    0.873373   -1.086455
      4          6           0       -0.092131    1.979700    0.000000
      5          1           0       -1.053253    0.599502   -1.424611
      6          1           0        0.583298    1.031860   -1.960213
      7          1           0       -0.952103    2.651909    0.000000
      8          1           0        0.820589    2.580031    0.000000
      9          1           0        0.583298    1.031860    1.960213
     10          1           0       -1.053253    0.599502    1.424611
     11         15           0       -0.051014   -1.893628    0.000000
     12          1           0        1.573772   -0.112550    0.000000
     13          1           0       -1.449396   -1.609275    0.000000
 ---------------------------------------------------------------------

 SCF Done:  E(UHF) =  -497.795134656     A.U. after    2 cycles

 The electronic state is 2-A".
 Alpha  occ. eigenvalues -- -105.17251 -11.48421 -11.39275 -11.38834 -11.34589
 Alpha  occ. eigenvalues --   -2.74871  -1.48659  -1.44229  -1.42905  -1.30561
 Alpha  occ. eigenvalues --   -0.95886  -0.93591  -0.79113  -0.70283  -0.66589
 Alpha  occ. eigenvalues --   -0.58307  -0.54560  -0.48201  -0.48102  -0.43786
 Alpha  occ. eigenvalues --   -0.41352  -0.21526  -0.05920   0.02014
 Alpha virt. eigenvalues --    0.04249   0.05734   0.05803   0.05889   0.06314
 Alpha virt. eigenvalues --    0.06764   0.07286   0.08148   0.11269   0.11820
 Alpha virt. eigenvalues --    0.12204   0.13564   0.13759   0.15079   0.15314

  Beta  occ. eigenvalues -- -105.16632 -11.48402 -11.39145 -11.38934 -11.34569
  Beta  occ. eigenvalues --   -2.72978  -1.47076  -1.41158  -1.30270  -1.20524
  Beta  occ. eigenvalues --   -0.95516  -0.93419  -0.78817  -0.67496  -0.66523
  Beta  occ. eigenvalues --   -0.57300  -0.54491  -0.47713  -0.47541  -0.43736
  Beta  occ. eigenvalues --   -0.41037  -0.22305  -0.03750
  Beta virt. eigenvalues --    0.04272   0.05781   0.05801   0.05893   0.06354
  Beta virt. eigenvalues --    0.06388   0.06785   0.08468   0.09421   0.11471
  Beta virt. eigenvalues --    0.12576   0.12800   0.13630   0.13882   0.15333

 Mulliken charges and spin densities:
               1          2
     1  C   -1.539284  -0.550930
     2  C   -2.665523  -0.002143
     3  C   -2.665523  -0.002143
     4  C   -2.965462   0.008022
     5  H    1.314779   0.140933
     6  H    1.230515   0.008677
     7  H    1.175107  -0.002403
     8  H    1.329603   0.002360
     9  H    1.230515   0.008677
    10  H    1.314779   0.140933
    11  P    2.472772   1.470520
    12  H    1.127504  -0.041000
    13  H   -1.359782  -0.181501
 Sum of Mulliken charges =   0.00000   1.00000

 Dipole moment (field-independent basis, Debye):
    X=              2.5622    Y=             -0.7136    Z=             -0.0000  Tot=              2.6597
                          Isotropic Fermi Contact Couplings
        Atom                 a.u.       MegaHertz       Gauss      10(-4) cm-1
     1  C(13)             -0.00887      -9.97479      -3.55925      -3.32723
     2  C(13)              0.03199      35.96334      12.83261      11.99608
     3  C(13)              0.03199      35.96334      12.83261      11.99608
     4  C(13)             -0.00246      -2.76865      -0.98792      -0.92352
     5  H(1)              -0.00028      -1.25331      -0.44721      -0.41806
     6  H(1)              -0.00031      -1.40370      -0.50088      -0.46822
     7  H(1)              -0.00007      -0.31125      -0.11106      -0.10382
     8  H(1)               0.00001       0.03110       0.01110       0.01037

 Normal termination of Gaussian 16 at Tue Apr  8 23:37:30 2025.
