 Gaussian 16, Revision C.01,

 ----------------------------------------------------------------------
 #t hf aug-cc-pvdz symm=none int=(grid=ultrafine) guess=(read,tcheck) s
 table=(opt,rrhf)
 ----------------------------------------------------------------------
 -----
 title
 -----
 Symbolic Z-matrix:
 Charge =  0 Multiplicity = 1

 SCF Done:  E(RHF) =  -1013.81116889     A.U. after   17 cycles
 Normal termination of Gaussian 16 at Tue Apr  8 23:20:38 2025.
 Gaussian 16:  ES64L-G16RevC.01  3-Jul-2019

 ----------------------------------------------------------------------
 #t hf aug-cc-pvdz iop(5/13=1,5/36=2,99/5=2) pseudo=read geom=check gue
 ss=(read,tcheck) scf=(maxcycle=1)
 ----------------------------------------------------------------------
 -----
 title
 -----
 Structure from the checkpoint file:  "BDE49_expt_714_mol1.chk"
 Charge =  0 Multiplicity = 1

                         Standard orientation:
 ---------------------------------------------------------------------
 Center     Atomic      Atomic             Coordinates (Angstroms)
 Number     Number       Type             X           Y           Z
 ---------------------------------------------------------------------
      1          6           0       -0.407278    1.054806   -0.153959
      2          6           0       -1.300964   -0.179756   -0.486461
      3          6           0       -0.601777   -1.533349   -0.295420
      4          6           0        0.528414   -1.510763    0.700426
      5          6           0        1.623440   -0.501129    0.257115
      6          1           0        0.947269   -2.512343    0.796248
      7          1           0        0.118302   -1.216121    1.671010
      8          7           0        0.948140    0.568011   -0.547789
      9          6           0       -0.804786    2.182514   -1.121690
     10          1           0       -0.619103    1.884944   -2.157036
     11          1           0       -0.245222    3.093521   -0.911623
     12          1           0       -1.870189    2.397292   -1.010575
     13          6           0       -0.514963    1.596139    1.284342
     14          1           0       -0.452340    0.821709    2.047935
     15          1           0       -1.464313    2.114135    1.425956
     16          1           0        0.291844    2.314019    1.443380
     17          6           0        2.596360   -1.203016   -0.707314
     18          1           0        2.057671   -1.647008   -1.546884
     19          1           0        3.149124   -1.991774   -0.190309
     20          1           0        3.320126   -0.484743   -1.098145
     21          6           0        2.406837    0.009141    1.481128
     22          1           0        1.767080    0.517114    2.202091
     23          1           0        3.191154    0.699669    1.172719
     24          1           0        2.874737   -0.840576    1.986087
     25          8           0        1.847298    1.683460   -0.638509
     26          1           0        2.012781    1.757282   -1.584243
     27          8           0       -0.934100   -2.500420   -0.934380
     28         17           0       -2.856088   -0.217495    0.467503
     29          1           0       -1.619685   -0.137623   -1.525520
 ---------------------------------------------------------------------

 SCF Done:  E(RHF) =  -1016.69712487     A.U. after    2 cycles

 The electronic state is 1-A.
 Alpha  occ. eigenvalues --  -99.88802 -21.09623 -21.06418 -15.75668 -11.54600
 Alpha  occ. eigenvalues --  -11.50877 -11.48147 -11.45155 -11.43710 -11.41116
 Alpha  occ. eigenvalues --  -11.40290 -11.38303 -11.36988 -10.46024  -9.66096
 Alpha  occ. eigenvalues --   -9.65569  -9.65293  -1.78676  -1.72048  -1.40312
 Alpha  occ. eigenvalues --   -1.31523  -1.24711  -1.11308  -1.08564  -1.03107
 Alpha  occ. eigenvalues --   -1.01990  -1.01560  -0.85547  -0.81851  -0.73437
 Alpha  occ. eigenvalues --   -0.69178  -0.68887  -0.67545  -0.62912  -0.62108
 Alpha  occ. eigenvalues --   -0.60572  -0.58638  -0.56827  -0.56108  -0.55951
 Alpha  occ. eigenvalues --   -0.55215  -0.54164  -0.53453  -0.51076  -0.50672
 Alpha  occ. eigenvalues --   -0.49083  -0.48512  -0.47376  -0.46491  -0.44589
 Alpha  occ. eigenvalues --   -0.42529  -0.40122  -0.34006  -0.31519  -0.28531
 Alpha virt. eigenvalues --    0.03688   0.04238   0.04601   0.04906   0.05249
 Alpha virt. eigenvalues --    0.05542   0.06056   0.06584   0.06728   0.07322
 Alpha virt. eigenvalues --    0.07590   0.07883   0.07943   0.08315   0.09370

 Mulliken charges:
               1
     1  C    9.419036
     2  C   -5.649610
     3  C    7.350708
     4  C   -5.595328
     5  C    6.292499
     6  H    1.105548
     7  H    1.502793
     8  N   -1.402562
     9  C   -5.852851
    10  H    1.263925
    11  H    1.215383
    12  H    1.141556
    13  C   -5.313448
    14  H    1.371925
    15  H    0.914838
    16  H    1.208730
    17  C   -5.191145
    18  H    1.223244
    19  H    1.207097
    20  H    1.218346
    21  C   -5.685396
    22  H    1.280950
    23  H    1.158072
    24  H    1.108973
    25  O   -3.425506
    26  H    0.776909
    27  O   -4.124034
    28  Cl   0.040030
    29  H    1.439317
 Sum of Mulliken charges =   0.00000

 Dipole moment (field-independent basis, Debye):
    X=              3.0661    Y=              1.6859    Z=             -0.2885  Tot=              3.5109

 Test job not archived.
 1\1\GINC-SE331\SP\RHF\Aug-CC-pVDZ\C9H16Cl1N1O2\OHZDE\08-Apr-2025\0\\#t
  hf aug-cc-pvdz iop(5/13=1,5/36=2,99/5=2) pseudo=read geom=check guess
 =(read,tcheck) scf=(maxcycle=1)\\title\\0,1\C,0,-0.407278,1.054806,-0.
 153959\C,0,-1.300964,-0.179756,-0.486461\C,0,-0.601777,-1.533349,-0.29
 542\C,0,0.528414,-1.510763,0.700426\C,0,1.62344,-0.501129,0.257115\H,0
 ,0.947269,-2.512343,0.796248\H,0,0.118302,-1.216121,1.67101\N,0,0.9481
 4,0.568011,-0.547789\C,0,-0.804786,2.182514,-1.12169\H,0,-0.619103,1.8
 84944,-2.157036\H,0,-0.245222,3.093521,-0.911623\H,0,-1.870189,2.39729

 Normal termination of Gaussian 16 at Tue Apr  8 23:21:11 2025.
