 Gaussian 16, Revision C.01,

 ----------------------------------------------------------------------
 #t hf aug-cc-pvdz symm=none int=(grid=ultrafine) guess=(read,tcheck) s
 table=(opt,rrhf)
 ----------------------------------------------------------------------
 -----
 title
 -----
 Symbolic Z-matrix:
 Charge =  0 Multiplicity = 1

 SCF Done:  E(RHF) =  -1392.53983877     A.U. after   12 cycles

 1\1\GINC-SE398\Stability\RHF\Aug-CC-pVDZ\C2Cl2F4\OHZDE\08-Apr-2025\0\\
 #t hf aug-cc-pvdz symm=none int=(grid=ultrafine) guess=(read,tcheck) s
 table=(opt,rrhf)\\title\\0,1\C,0,0.237835,0.742865,0.\C,0,-0.237835,-0
 .742865,0.\Cl,0,2.01745,0.833195,0.\F,0,-0.237835,1.360782,1.088619\F,
 0,-0.237835,1.360782,-1.088619\Cl,0,-2.01745,-0.833195,0.\F,0,0.237835
 ,-1.360782,1.088619\F,0,0.237835,-1.360782,-1.088619\\Version=ES64L-G1
 6RevC.01\HF=-1392.5398388\RMSD=1.659e-09\Dipole=0.,0.,0.\Quadrupole=2.
 4029464,-1.0114885,-1.3914579,0.8890165,0.,0.\PG=Unknown\\@

 Normal termination of Gaussian 16 at Tue Apr  8 22:30:26 2025.
 Gaussian 16:  ES64L-G16RevC.01  3-Jul-2019

 ----------------------------------------------------------------------
 #t hf aug-cc-pvdz iop(5/13=1,5/36=2,99/5=2) pseudo=read geom=check gue
 ss=(read,tcheck) scf=(maxcycle=1)
 ----------------------------------------------------------------------
 -----
 title
 -----
 Structure from the checkpoint file:  "BDE49_expt_1004_mol1.chk"
 Charge =  0 Multiplicity = 1

                         Standard orientation:
 ---------------------------------------------------------------------
 Center     Atomic      Atomic             Coordinates (Angstroms)
 Number     Number       Type             X           Y           Z
 ---------------------------------------------------------------------
      1          6           0        0.237835    0.742865    0.000000
      2          6           0       -0.237835   -0.742865    0.000000
      3         17           0        2.017450    0.833195    0.000000
      4          9           0       -0.237835    1.360782    1.088619
      5          9           0       -0.237835    1.360782   -1.088619
      6         17           0       -2.017450   -0.833195    0.000000
      7          9           0        0.237835   -1.360782    1.088619
      8          9           0        0.237835   -1.360782   -1.088619
 ---------------------------------------------------------------------

 SCF Done:  E(RHF) =  -1394.70414093     A.U. after    2 cycles

 The electronic state is 1-AG.
 Alpha  occ. eigenvalues --  -99.93575 -99.93571 -29.34358 -29.34344 -29.34309
 Alpha  occ. eigenvalues --  -29.34304 -11.64485 -11.59279 -10.51070 -10.51066
 Alpha  occ. eigenvalues --   -9.70997  -9.70858  -9.70084  -9.69992  -9.69966
 Alpha  occ. eigenvalues --   -9.69954  -1.52988  -1.41134  -1.27248  -1.20632
 Alpha  occ. eigenvalues --   -0.96499  -0.86373  -0.83844  -0.82318  -0.72454
 Alpha  occ. eigenvalues --   -0.58005  -0.57095  -0.55593  -0.55229  -0.51351
 Alpha  occ. eigenvalues --   -0.47829  -0.43994  -0.42577  -0.41968  -0.38869
 Alpha  occ. eigenvalues --   -0.36800  -0.36176  -0.32453  -0.28636  -0.28175
 Alpha  occ. eigenvalues --   -0.24387
 Alpha virt. eigenvalues --    0.03305   0.06195   0.07971   0.09579   0.10486
 Alpha virt. eigenvalues --    0.11596   0.12557   0.13601   0.14577   0.15542
 Alpha virt. eigenvalues --    0.15563   0.16995   0.17304   0.19703   0.20266

 Mulliken charges:
               1
     1  C   -1.055946
     2  C   -1.055946
     3  Cl  -0.392220
     4  F    0.724083
     5  F    0.724083
     6  Cl  -0.392220
     7  F    0.724083
     8  F    0.724083
 Sum of Mulliken charges =   0.00000

 Dipole moment (field-independent basis, Debye):
    X=             -0.0000    Y=             -0.0000    Z=             -0.0000  Tot=              0.0000

 Test job not archived.
 1\1\GINC-SE398\SP\RHF\Aug-CC-pVDZ\C2Cl2F4\OHZDE\08-Apr-2025\0\\#t hf a
 ug-cc-pvdz iop(5/13=1,5/36=2,99/5=2) pseudo=read geom=check guess=(rea
 d,tcheck) scf=(maxcycle=1)\\title\\0,1\C,0,0.237835,0.742865,0.\C,0,-0
 .237835,-0.742865,0.\Cl,0,2.01745,0.833195,0.\F,0,-0.237835,1.360782,1
 .088619\F,0,-0.237835,1.360782,-1.088619\Cl,0,-2.01745,-0.833195,0.\F,
 0,0.237835,-1.360782,1.088619\F,0,0.237835,-1.360782,-1.088619\\Versio
 n=ES64L-G16RevC.01\State=1-AG\HF=-1394.7041409\RMSD=1.357e-01\Dipole=0
 .,0.,0.\Quadrupole=-5.8960377,3.1092555,2.7867821,-4.2982284,0.,0.\PG=

 Normal termination of Gaussian 16 at Tue Apr  8 22:30:29 2025.
