 Gaussian 16, Revision C.01,

 ----------------------------------------------------------------------
 #t hf aug-cc-pvdz symm=none int=(grid=ultrafine) guess=(read,tcheck) s
 table=(opt,rrhf)
 ----------------------------------------------------------------------
 -----
 title
 -----
 Symbolic Z-matrix:
 Charge =  0 Multiplicity = 1

 SCF Done:  E(RHF) =  -950.499424821     A.U. after   14 cycles
 Normal termination of Gaussian 16 at Wed Apr  9 00:19:34 2025.
 Gaussian 16:  ES64L-G16RevC.01  3-Jul-2019

 ----------------------------------------------------------------------
 #t hf aug-cc-pvdz iop(5/13=1,5/36=2,99/5=2) pseudo=read geom=check gue
 ss=(read,tcheck) scf=(maxcycle=1)
 ----------------------------------------------------------------------
 -----
 title
 -----
 Structure from the checkpoint file:  "BDE49_nonexpt_2580_mol1.chk"
 Charge =  0 Multiplicity = 1

                         Standard orientation:
 ---------------------------------------------------------------------
 Center     Atomic      Atomic             Coordinates (Angstroms)
 Number     Number       Type             X           Y           Z
 ---------------------------------------------------------------------
      1         17           0       -1.408728   -0.521515    0.000008
      2         16           0       -0.045935    1.028597   -0.000010
      3          6           0        1.513073    0.138075   -0.000017
      4          7           0        1.767166   -1.091067    0.000015
      5          1           0        0.921585   -1.667452    0.000038
      6          1           0        2.313152    0.884683   -0.000025
 ---------------------------------------------------------------------

 SCF Done:  E(RHF) =  -951.386632290     A.U. after    2 cycles

 The electronic state is 1-A.
 Alpha  occ. eigenvalues --  -99.93008 -75.76641 -15.76765 -13.16844 -13.12531
 Alpha  occ. eigenvalues --  -13.07683 -11.46941 -10.50174  -9.69881  -9.69374
 Alpha  occ. eigenvalues --   -9.69116  -8.10557  -1.40140  -1.32976  -1.11662
 Alpha  occ. eigenvalues --   -0.87000  -0.66346  -0.62130  -0.57761  -0.56687
 Alpha  occ. eigenvalues --   -0.51559  -0.48369  -0.36539  -0.27777
 Alpha virt. eigenvalues --    0.02450   0.03982   0.06012   0.07032   0.11083
 Alpha virt. eigenvalues --    0.11087   0.11807   0.12010   0.13972   0.14726
 Alpha virt. eigenvalues --    0.16236   0.16281   0.16456   0.17298   0.20186

 Mulliken charges:
               1
     1  Cl  -0.403121
     2  S    1.078184
     3  C   -0.341034
     4  N   -2.616950
     5  H    0.685368
     6  H    1.597552
 Sum of Mulliken charges =  -0.00000

 Dipole moment (field-independent basis, Debye):
    X=              0.0705    Y=              3.7212    Z=             -0.0000  Tot=              3.7219

 Test job not archived.
 1\1\GINC-SE016\SP\RHF\Aug-CC-pVDZ\C1H2Cl1N1S1\OHZDE\09-Apr-2025\0\\#t
 hf aug-cc-pvdz iop(5/13=1,5/36=2,99/5=2) pseudo=read geom=check guess=
 (read,tcheck) scf=(maxcycle=1)\\title\\0,1\Cl,0,-1.408728,-0.521515,0.
 000008\S,0,-0.045935,1.028597,-0.00001\C,0,1.513073,0.138075,-0.000017
 \N,0,1.767166,-1.091067,0.000015\H,0,0.921585,-1.667452,0.000038\H,0,2
 .313152,0.884683,-0.000025\\Version=ES64L-G16RevC.01\State=1-A\HF=-951
 .3866323\RMSD=6.266e-02\Dipole=0.0277493,1.4640361,-0.0000063\Quadrupo
 le=-2.0003682,4.1286413,-2.1282731,3.6904261,-0.0000709,-0.0000775\PG=

 Normal termination of Gaussian 16 at Wed Apr  9 00:19:36 2025.
