 Gaussian 16, Revision C.01,

 ----------------------------------------------------------------------
 #t hf aug-cc-pvdz symm=none int=(grid=ultrafine) guess=(read,tcheck) s
 table=(opt,rrhf)
 ----------------------------------------------------------------------
 -----
 title
 -----
 Symbolic Z-matrix:
 Charge =  0 Multiplicity = 1

 SCF Done:  E(RHF) =  -224.281321960     A.U. after   10 cycles
 Normal termination of Gaussian 16 at Wed Apr  9 00:36:46 2025.
 Gaussian 16:  ES64L-G16RevC.01  3-Jul-2019

 ----------------------------------------------------------------------
 #t hf aug-cc-pvdz iop(5/13=1,5/36=2,99/5=2) pseudo=read geom=check gue
 ss=(read,tcheck) scf=(maxcycle=1)
 ----------------------------------------------------------------------
 -----
 title
 -----
 Structure from the checkpoint file:  "BDE49_nonexpt_548_mol1.chk"
 Charge =  0 Multiplicity = 1

                         Standard orientation:
 ---------------------------------------------------------------------
 Center     Atomic      Atomic             Coordinates (Angstroms)
 Number     Number       Type             X           Y           Z
 ---------------------------------------------------------------------
      1          5           0       -0.000001    0.460397    0.000000
      2          9           0       -0.000001   -0.219297    1.130428
      3          1           0        0.000022    1.645361    0.000000
      4          9           0       -0.000001   -0.219297   -1.130428
 ---------------------------------------------------------------------

 SCF Done:  E(RHF) =  -225.072542859     A.U. after    2 cycles

 The electronic state is 1-A'.
 Alpha  occ. eigenvalues --  -29.26634 -29.26533  -7.71204  -1.14706  -0.74897
 Alpha  occ. eigenvalues --   -0.65483  -0.50583  -0.46712  -0.45900  -0.34820
 Alpha  occ. eigenvalues --   -0.34492  -0.28324
 Alpha virt. eigenvalues --    0.03236   0.03522   0.05642   0.07387   0.07526
 Alpha virt. eigenvalues --    0.16174   0.17594   0.17625   0.21894   0.23659
 Alpha virt. eigenvalues --    0.23971   0.25804   0.26040   0.30203   0.30339

 Mulliken charges:
               1
     1  B    2.764001
     2  F   -0.377950
     3  H   -2.008101
     4  F   -0.377950
 Sum of Mulliken charges =   0.00000

 Dipole moment (field-independent basis, Debye):
    X=             -0.0000    Y=             -2.4410    Z=             -0.0000  Tot=              2.4410

 Test job not archived.
 1\1\GINC-SE461\SP\RHF\Aug-CC-pVDZ\B1F2H1\OHZDE\09-Apr-2025\0\\#t hf au
 g-cc-pvdz iop(5/13=1,5/36=2,99/5=2) pseudo=read geom=check guess=(read
 ,tcheck) scf=(maxcycle=1)\\title\\0,1\B,0,0.,0.460397,0.000007\F,0,1.1
 30428,-0.219297,-0.000002\H,0,0.,1.645361,0.\F,0,-1.130428,-0.219297,-
 0.000002\\Version=ES64L-G16RevC.01\State=1-A'\HF=-225.0725429\RMSD=5.4
 43e-01\Dipole=0.,-0.9603796,-0.0000086\Quadrupole=4.0049519,-3.0271928
 ,-0.9777592,0.,0.,0.0000074\PG=CS [SG(B1H1),X(F2)]\\@

 Normal termination of Gaussian 16 at Wed Apr  9 00:36:47 2025.
