 Gaussian 16, Revision C.01,

 ----------------------------------------------------------------------
 #t hf aug-cc-pvdz symm=none int=(grid=ultrafine) guess=(read,tcheck) s
 table=(opt,rrhf)
 ----------------------------------------------------------------------
 -----
 title
 -----
 Symbolic Z-matrix:
 Charge =  0 Multiplicity = 1

 SCF Done:  E(RHF) =  -597.318242248     A.U. after   16 cycles
 Normal termination of Gaussian 16 at Wed Apr  9 00:45:43 2025.
 Gaussian 16:  ES64L-G16RevC.01  3-Jul-2019

 ----------------------------------------------------------------------
 #t hf aug-cc-pvdz iop(5/13=1,5/36=2,99/5=2) pseudo=read geom=check gue
 ss=(read,tcheck) scf=(maxcycle=1)
 ----------------------------------------------------------------------
 -----
 title
 -----
 Structure from the checkpoint file:  "BDE49_nonexpt_761_mol1.chk"
 Charge =  0 Multiplicity = 1

                         Standard orientation:
 ---------------------------------------------------------------------
 Center     Atomic      Atomic             Coordinates (Angstroms)
 Number     Number       Type             X           Y           Z
 ---------------------------------------------------------------------
      1         15           0        2.982736   -0.208522   -0.125343
      2          5           0        1.421337    0.862606    0.044874
      3          6           0       -0.040037    0.364822    0.023520
      4          6           0       -1.086734    1.310812    0.007397
      5          6           0       -0.401493   -0.998683    0.021947
      6          6           0       -1.732012   -1.396411    0.000223
      7          6           0       -2.744645   -0.435577   -0.013943
      8          6           0       -2.421544    0.920215   -0.008987
      9          1           0       -3.783995   -0.745324   -0.027870
     10          1           0       -3.208329    1.666214   -0.019635
     11          1           0       -0.837679    2.366486    0.006710
     12          1           0        0.373139   -1.757746    0.040827
     13          1           0       -1.985635   -2.450594   -0.002958
     14          1           0        1.623426    2.039607    0.025103
     15          1           0        2.695722   -1.344984    0.664671
     16          1           0        3.834423    0.450074    0.787991
 ---------------------------------------------------------------------

 SCF Done:  E(RHF) =  -598.738724410     A.U. after    2 cycles

 The electronic state is 1-A.
 Alpha  occ. eigenvalues -- -105.16355 -11.51637 -11.43844 -11.43237 -11.41049
 Alpha  occ. eigenvalues --  -11.40779 -11.36281  -7.64313  -2.73470  -1.48971
 Alpha  occ. eigenvalues --   -1.43890  -1.40771  -1.34369  -1.10916  -1.09631
 Alpha  occ. eigenvalues --   -0.89805  -0.86664  -0.80095  -0.71295  -0.66990
 Alpha  occ. eigenvalues --   -0.62588  -0.58781  -0.56939  -0.52239  -0.50709
 Alpha  occ. eigenvalues --   -0.45114  -0.42265  -0.34836  -0.33490  -0.25355
 Alpha  occ. eigenvalues --   -0.15165  -0.03200
 Alpha virt. eigenvalues --    0.03185   0.04623   0.04986   0.05481   0.05590
 Alpha virt. eigenvalues --    0.05848   0.06975   0.07557   0.08573   0.08914
 Alpha virt. eigenvalues --    0.10035   0.10869   0.11353   0.11727   0.12215

 Mulliken charges:
               1
     1  P    1.848123
     2  B    1.913119
     3  C   -0.882692
     4  C   -0.846689
     5  C   -1.221526
     6  C   -1.414637
     7  C   -2.162002
     8  C   -1.085685
     9  H    1.497174
    10  H    1.560338
    11  H    1.974810
    12  H    2.100405
    13  H    1.541147
    14  H   -3.346722
    15  H   -0.924402
    16  H   -0.550760
 Sum of Mulliken charges =   0.00000

 Dipole moment (field-independent basis, Debye):
    X=              3.3900    Y=             -3.1191    Z=             -4.5993  Tot=              6.5096

 Test job not archived.
 1\1\GINC-SE174\SP\RHF\Aug-CC-pVDZ\C6H8B1P1\OHZDE\09-Apr-2025\0\\#t hf
 aug-cc-pvdz iop(5/13=1,5/36=2,99/5=2) pseudo=read geom=check guess=(re
 ad,tcheck) scf=(maxcycle=1)\\title\\0,1\P,0,2.982736,-0.208522,-0.1253
 43\B,0,1.421337,0.862606,0.044874\C,0,-0.040037,0.364822,0.02352\C,0,-
 1.086734,1.310812,0.007397\C,0,-0.401493,-0.998683,0.021947\C,0,-1.732
 012,-1.396411,0.000223\C,0,-2.744645,-0.435577,-0.013943\C,0,-2.421544
 ,0.920215,-0.008987\H,0,-3.783995,-0.745324,-0.02787\H,0,-3.208329,1.6
 66214,-0.019635\H,0,-0.837679,2.366486,0.00671\H,0,0.373139,-1.757746,

 Normal termination of Gaussian 16 at Wed Apr  9 00:45:50 2025.
