 Gaussian 16, Revision C.01,

 ----------------------------------------------------------------------
 #t hf aug-cc-pvdz symm=none int=(grid=ultrafine) guess=(read,tcheck) s
 table=(opt,rrhf)
 ----------------------------------------------------------------------
 -----
 title
 -----
 Symbolic Z-matrix:
 Charge =  0 Multiplicity = 1

 SCF Done:  E(RHF) =  -563.360926249     A.U. after   12 cycles
 Normal termination of Gaussian 16 at Wed Apr  9 00:01:47 2025.
 Gaussian 16:  ES64L-G16RevC.01  3-Jul-2019

 ----------------------------------------------------------------------
 #t hf aug-cc-pvdz iop(5/13=1,5/36=2,99/5=2) pseudo=read geom=check gue
 ss=(read,tcheck) scf=(maxcycle=1)
 ----------------------------------------------------------------------
 -----
 title
 -----
 Structure from the checkpoint file:  "BDE49_nonexpt_2088_mol1.chk"
 Charge =  0 Multiplicity = 1

                         Standard orientation:
 ---------------------------------------------------------------------
 Center     Atomic      Atomic             Coordinates (Angstroms)
 Number     Number       Type             X           Y           Z
 ---------------------------------------------------------------------
      1          6           0       -0.962396   -1.381438   -0.148914
      2          6           0       -2.346537   -0.967279    0.370380
      3          6           0       -2.754322    0.415348   -0.155721
      4          6           0       -1.684228    1.467743    0.163063
      5          6           0       -0.300495    1.046665   -0.353737
      6          6           0        1.499169   -0.781663   -0.371463
      7          6           0        0.124953   -0.337242    0.172161
      8         14           0        3.005230    0.229534    0.157644
      9          1           0       -1.008535   -1.517351   -1.238236
     10          1           0       -0.676377   -2.351556    0.272323
     11          1           0       -2.328544   -0.944781    1.467784
     12          1           0       -3.092694   -1.717282    0.088261
     13          1           0       -3.718657    0.714227    0.267826
     14          1           0       -2.894527    0.360825   -1.243216
     15          1           0       -1.633546    1.612636    1.250011
     16          1           0       -1.963457    2.435819   -0.265321
     17          1           0        0.441673    1.803513   -0.079904
     18          1           0       -0.317166    1.015344   -1.452069
     19          1           0        1.471111   -0.810747   -1.468767
     20          1           0        1.695367   -1.814017   -0.054116
     21          1           0        0.197276   -0.267456    1.267538
     22          1           0        3.013115    1.591912   -0.427999
     23          1           0        4.242555   -0.461707   -0.281405
     24          1           0        3.042335    0.364342    1.635673
 ---------------------------------------------------------------------

 SCF Done:  E(RHF) =  -564.949957346     A.U. after    2 cycles

 The electronic state is 1-A.
 Alpha  occ. eigenvalues --  -76.20383 -11.43441 -11.43221 -11.41776 -11.39333
 Alpha  occ. eigenvalues --  -11.37301 -11.36082 -11.33391  -5.53881  -2.18044
 Alpha  occ. eigenvalues --   -2.16378  -2.16152  -1.32579  -1.14193  -1.09791
 Alpha  occ. eigenvalues --   -0.98805  -0.87961  -0.84987  -0.77780  -0.74111
 Alpha  occ. eigenvalues --   -0.65492  -0.61738  -0.60930  -0.59984  -0.55367
 Alpha  occ. eigenvalues --   -0.52469  -0.51650  -0.48741  -0.46501  -0.46016
 Alpha  occ. eigenvalues --   -0.45563  -0.45178  -0.43596  -0.41721  -0.38016
 Alpha  occ. eigenvalues --   -0.35390
 Alpha virt. eigenvalues --    0.04281   0.04844   0.04890   0.05196   0.05344
 Alpha virt. eigenvalues --    0.05428   0.05667   0.05981   0.06592   0.07869
 Alpha virt. eigenvalues --    0.08023   0.08208   0.08660   0.08740   0.09614

 Mulliken charges:
               1
     1  C   -3.416797
     2  C   -3.096475
     3  C   -2.767013
     4  C   -3.029190
     5  C   -3.254696
     6  C   -5.066172
     7  C    1.115648
     8  Si   5.952695
     9  H    1.365884
    10  H    1.394938
    11  H    1.409993
    12  H    1.274792
    13  H    1.356758
    14  H    1.388872
    15  H    1.387323
    16  H    1.258884
    17  H    1.629982
    18  H    1.468076
    19  H    1.471260
    20  H    1.465921
    21  H    2.076955
    22  H   -1.778700
    23  H   -1.807951
    24  H   -1.800987
 Sum of Mulliken charges =   0.00000

 Dipole moment (field-independent basis, Debye):
    X=             -1.1102    Y=             -0.4159    Z=             -0.1950  Tot=              1.2014

 Test job not archived.
 1\1\GINC-SE103\SP\RHF\Aug-CC-pVDZ\C7H16Si1\OHZDE\09-Apr-2025\0\\#t hf
 aug-cc-pvdz iop(5/13=1,5/36=2,99/5=2) pseudo=read geom=check guess=(re
 ad,tcheck) scf=(maxcycle=1)\\title\\0,1\C,0,-0.962396,-1.381438,-0.148
 914\C,0,-2.346537,-0.967279,0.37038\C,0,-2.754322,0.415348,-0.155721\C
 ,0,-1.684228,1.467743,0.163063\C,0,-0.300495,1.046665,-0.353737\C,0,1.
 499169,-0.781663,-0.371463\C,0,0.124953,-0.337242,0.172161\Si,0,3.0052
 3,0.229534,0.157644\H,0,-1.008535,-1.517351,-1.238236\H,0,-0.676377,-2
 .351556,0.272323\H,0,-2.328544,-0.944781,1.467784\H,0,-3.092694,-1.717

 Normal termination of Gaussian 16 at Wed Apr  9 00:02:02 2025.
