 Gaussian 16, Revision C.01,

 ----------------------------------------------------------------------
 #t hf aug-cc-pvdz symm=none int=(grid=ultrafine) guess=(read,tcheck) s
 table=(opt,rrhf)
 ----------------------------------------------------------------------
 -----
 title
 -----
 Symbolic Z-matrix:
 Charge =  0 Multiplicity = 1

 SCF Done:  E(RHF) =  -996.088787022     A.U. after   13 cycles
 Normal termination of Gaussian 16 at Tue Apr  8 23:47:49 2025.
 Gaussian 16:  ES64L-G16RevC.01  3-Jul-2019

 ----------------------------------------------------------------------
 #t hf aug-cc-pvdz iop(5/13=1,5/36=2,99/5=2) pseudo=read geom=check gue
 ss=(read,tcheck) scf=(maxcycle=1)
 ----------------------------------------------------------------------
 -----
 title
 -----
 Structure from the checkpoint file:  "BDE49_nonexpt_1784_mol1.chk"
 Charge =  0 Multiplicity = 1

                         Standard orientation:
 ---------------------------------------------------------------------
 Center     Atomic      Atomic             Coordinates (Angstroms)
 Number     Number       Type             X           Y           Z
 ---------------------------------------------------------------------
      1         14           0        1.140829   -0.932997   -0.000004
      2          6           0       -0.742781   -0.663641    0.000001
      3         17           0        2.477966    0.699255   -0.000006
      4          7           0       -1.516193    0.446115    0.000003
      5          6           0       -0.996226    1.804306    0.000006
      6          8           0       -1.187731   -1.815313    0.000001
      7          1           0        0.090424    1.796841    0.000004
      8          1           0       -1.342727    2.344465    0.887375
      9          1           0       -1.342731    2.344470   -0.887358
     10          6           0       -2.969645    0.303395    0.000007
     11          1           0       -3.395764    0.778422    0.889264
     12          1           0       -3.213749   -0.756218   -0.000003
     13          1           0       -3.395769    0.778439   -0.889238
     14          1           0        1.435195   -1.688226   -1.225499
     15          1           0        1.435202   -1.688228    1.225489
 ---------------------------------------------------------------------

 SCF Done:  E(RHF) =  -997.628773222     A.U. after    2 cycles

 The electronic state is 1-A.
 Alpha  occ. eigenvalues --  -99.88688 -76.27289 -21.03718 -15.76659 -11.47298
 Alpha  occ. eigenvalues --  -11.41614 -11.40254 -10.46035  -9.65958  -9.65542
 Alpha  occ. eigenvalues --   -9.65279  -5.60700  -2.24813  -2.22579  -2.22487
 Alpha  occ. eigenvalues --   -1.71553  -1.43947  -1.28910  -1.06593  -1.00330
 Alpha  occ. eigenvalues --   -0.83875  -0.73652  -0.66565  -0.65303  -0.62973
 Alpha  occ. eigenvalues --   -0.56841  -0.56141  -0.55987  -0.55761  -0.52627
 Alpha  occ. eigenvalues --   -0.51283  -0.50985  -0.46184  -0.45748  -0.30374
 Alpha  occ. eigenvalues --   -0.29167
 Alpha virt. eigenvalues --    0.03127   0.05056   0.05420   0.05438   0.05730
 Alpha virt. eigenvalues --    0.06416   0.06860   0.07583   0.07590   0.09190
 Alpha virt. eigenvalues --    0.09698   0.11091   0.12140   0.12659   0.12954

 Mulliken charges:
               1
     1  Si   5.954326
     2  C    2.985159
     3  Cl  -0.908207
     4  N   -3.168968
     5  C   -3.464576
     6  O   -2.550722
     7  H    1.670302
     8  H    1.411530
     9  H    1.411529
    10  C   -3.564330
    11  H    1.427056
    12  H    1.417393
    13  H    1.427057
    14  H   -2.023776
    15  H   -2.023774
 Sum of Mulliken charges =  -0.00000

 Dipole moment (field-independent basis, Debye):
    X=             -2.5578    Y=              1.3103    Z=              0.0000  Tot=              2.8739

 Test job not archived.
 1\1\GINC-SE344\SP\RHF\Aug-CC-pVDZ\C3H8Cl1N1O1Si1\OHZDE\08-Apr-2025\0\\
 #t hf aug-cc-pvdz iop(5/13=1,5/36=2,99/5=2) pseudo=read geom=check gue
 ss=(read,tcheck) scf=(maxcycle=1)\\title\\0,1\Si,0,1.140829,-0.932997,
 -0.000004\C,0,-0.742781,-0.663641,0.000001\Cl,0,2.477966,0.699255,-0.0
 00006\N,0,-1.516193,0.446115,0.000003\C,0,-0.996226,1.804306,0.000006\
 O,0,-1.187731,-1.815313,0.000001\H,0,0.090424,1.796841,0.000004\H,0,-1
 .342727,2.344465,0.887375\H,0,-1.342731,2.34447,-0.887358\C,0,-2.96964
 5,0.303395,0.000007\H,0,-3.395764,0.778422,0.889264\H,0,-3.213749,-0.7

 Normal termination of Gaussian 16 at Tue Apr  8 23:47:56 2025.
