 Gaussian 16, Revision C.01,

 ----------------------------------------------------------------------
 #t hf aug-cc-pvdz symm=none int=(grid=ultrafine) guess=(read,tcheck) s
 table=(opt,rrhf)
 ----------------------------------------------------------------------
 -----
 title
 -----
 Symbolic Z-matrix:
 Charge =  0 Multiplicity = 1

 SCF Done:  E(RHF) =  -648.760425521     A.U. after   14 cycles
 Normal termination of Gaussian 16 at Tue Apr  8 23:10:44 2025.
 Gaussian 16:  ES64L-G16RevC.01  3-Jul-2019

 ----------------------------------------------------------------------
 #t hf aug-cc-pvdz iop(5/13=1,5/36=2,99/5=2) pseudo=read geom=check gue
 ss=(read,tcheck) scf=(maxcycle=1)
 ----------------------------------------------------------------------
 -----
 title
 -----
 Structure from the checkpoint file:  "BDE49_expt_621_mol1.chk"
 Charge =  0 Multiplicity = 1

                         Standard orientation:
 ---------------------------------------------------------------------
 Center     Atomic      Atomic             Coordinates (Angstroms)
 Number     Number       Type             X           Y           Z
 ---------------------------------------------------------------------
      1          6           0        0.001726    0.839760    0.263635
      2          8           0        1.125927    0.481036   -0.441492
      3          8           0        1.737148   -0.650773    0.221868
      4          1           0        1.380141   -1.383820   -0.303258
      5          1           0        0.161854    0.821807    1.338976
      6          1           0       -0.293936    1.815194   -0.115915
      7         17           0       -1.421354   -0.290226   -0.043801
 ---------------------------------------------------------------------

 SCF Done:  E(RHF) =  -649.793346056     A.U. after    2 cycles

 The electronic state is 1-A.
 Alpha  occ. eigenvalues --  -99.88752 -21.14246 -21.13385 -11.48446 -10.45993
 Alpha  occ. eigenvalues --   -9.65797  -9.65159  -9.65116  -1.97720  -1.48598
 Alpha  occ. eigenvalues --   -1.29988  -0.96633  -0.72075  -0.67476  -0.61565
 Alpha  occ. eigenvalues --   -0.58667  -0.50140  -0.49927  -0.45325  -0.36118
 Alpha  occ. eigenvalues --   -0.35491
 Alpha virt. eigenvalues --    0.03513   0.05541   0.05952   0.07403   0.11016
 Alpha virt. eigenvalues --    0.11401   0.14343   0.15163   0.15509   0.15986
 Alpha virt. eigenvalues --    0.18301   0.19578   0.21291   0.22067   0.23398

 Mulliken charges:
               1
     1  C   -1.849970
     2  O   -1.338917
     3  O   -0.760793
     4  H    0.844404
     5  H    1.663773
     6  H    1.460035
     7  Cl  -0.018531
 Sum of Mulliken charges =  -0.00000

 Dipole moment (field-independent basis, Debye):
    X=              1.6784    Y=              0.7444    Z=              0.3084  Tot=              1.8618

 Test job not archived.
 1\1\GINC-SE331\SP\RHF\Aug-CC-pVDZ\C1H3Cl1O2\OHZDE\08-Apr-2025\0\\#t hf
  aug-cc-pvdz iop(5/13=1,5/36=2,99/5=2) pseudo=read geom=check guess=(r
 ead,tcheck) scf=(maxcycle=1)\\title\\0,1\C,0,0.001726,0.83976,0.263635
 \O,0,1.125927,0.481036,-0.441492\O,0,1.737148,-0.650773,0.221868\H,0,1
 .380141,-1.38382,-0.303258\H,0,0.161854,0.821807,1.338976\H,0,-0.29393
 6,1.815194,-0.115915\Cl,0,-1.421354,-0.290226,-0.043801\\Version=ES64L
 -G16RevC.01\State=1-A\HF=-649.7933461\RMSD=5.206e-02\Dipole=0.6603357,
 0.2928629,0.1213178\Quadrupole=-2.4195912,2.889213,-0.4696218,-0.95804

 Normal termination of Gaussian 16 at Tue Apr  8 23:10:46 2025.
