 Gaussian 16, Revision C.01,

 ----------------------------------------------------------------------
 #t hf aug-cc-pvdz symm=none int=(grid=ultrafine) guess=(read,tcheck) s
 table=opt
 ----------------------------------------------------------------------
 -----
 title
 -----
 Symbolic Z-matrix:
 Charge =  0 Multiplicity = 2

 SCF Done:  E(UHF) =  -598.689316266     a.u. after   12 cycles
 Normal termination of Gaussian 16 at Tue Apr  8 22:58:27 2025.
 Gaussian 16:  ES64L-G16RevC.01  3-Jul-2019

 ----------------------------------------------------------------------
 #t hf aug-cc-pvdz iop(5/13=1,5/36=2,99/5=2) pseudo=read geom=check gue
 ss=(read,tcheck) scf=(maxcycle=1)
 ----------------------------------------------------------------------
 -----
 title
 -----
 Structure from the checkpoint file:  "BDE49_expt_1872_mol2.chk"
 Charge =  0 Multiplicity = 2

                         Standard orientation:
 ---------------------------------------------------------------------
 Center     Atomic      Atomic             Coordinates (Angstroms)
 Number     Number       Type             X           Y           Z
 ---------------------------------------------------------------------
      1          6           0       -0.961447   -0.058417    0.000001
      2          8           0        0.238970   -0.759954    0.000011
      3          9           0       -1.075247    0.706757    1.083645
      4          9           0       -1.923387   -0.966281   -0.000011
      5          9           0       -1.075225    0.706764   -1.083641
      6          6           0        1.416633   -0.088483    0.000020
      7          8           0        2.462969   -0.771847   -0.000011
      8          8           0        1.539764    1.138832   -0.000007
 ---------------------------------------------------------------------

 SCF Done:  E(UHF) =  -600.837039912     A.U. after    2 cycles

 The electronic state is 2-A.
 Alpha  occ. eigenvalues --  -29.35483 -29.34726 -29.34685 -21.24363 -21.18279
 Alpha  occ. eigenvalues --  -21.09295 -11.65777 -11.60186  -2.00663  -1.85585
 Alpha  occ. eigenvalues --   -1.69318  -1.39093  -0.97615  -0.96299  -0.91228
 Alpha  occ. eigenvalues --   -0.73967  -0.68132  -0.66199  -0.61506  -0.51111
 Alpha  occ. eigenvalues --   -0.49188  -0.48301  -0.47143  -0.47068  -0.41101
 Alpha  occ. eigenvalues --   -0.37385  -0.36992  -0.36357  -0.33711  -0.28600
 Alpha  occ. eigenvalues --   -0.28489  -0.24689
 Alpha virt. eigenvalues --    0.07967   0.09860   0.10720   0.11144   0.11469
 Alpha virt. eigenvalues --    0.11843   0.13178   0.16229   0.17518   0.19029
 Alpha virt. eigenvalues --    0.19901   0.20305   0.22766   0.23669   0.24254

  Beta  occ. eigenvalues --  -29.35478 -29.34727 -29.34686 -21.20540 -21.18235
  Beta  occ. eigenvalues --  -21.08779 -11.65766 -11.60448  -1.98466  -1.79612
  Beta  occ. eigenvalues --   -1.64014  -1.38834  -0.97521  -0.96299  -0.90113
  Beta  occ. eigenvalues --   -0.69869  -0.67595  -0.65288  -0.53959  -0.51045
  Beta  occ. eigenvalues --   -0.48470  -0.47066  -0.46561  -0.42262  -0.36992
  Beta  occ. eigenvalues --   -0.36484  -0.35797  -0.32349  -0.28564  -0.28429
  Beta  occ. eigenvalues --   -0.24675
  Beta virt. eigenvalues --    0.05690   0.08234   0.10113   0.10715   0.11471
  Beta virt. eigenvalues --    0.11688   0.12915   0.13199   0.16343   0.17628
  Beta virt. eigenvalues --    0.19113   0.20153   0.20278   0.22879   0.24319

 Mulliken charges and spin densities:
               1          2
     1  C    0.038144   0.003737
     2  O   -2.831664   0.042619
     3  F    0.539600   0.003358
     4  F    0.608732   0.003790
     5  F    0.539602   0.003358
     6  C    5.436308  -0.259777
     7  O   -2.205166   1.108383
     8  O   -2.125556   0.094531
 Sum of Mulliken charges =  -0.00000   1.00000

 Dipole moment (field-independent basis, Debye):
    X=             -2.7630    Y=              0.1643    Z=             -0.0000  Tot=              2.7679
                          Isotropic Fermi Contact Couplings
        Atom                 a.u.       MegaHertz       Gauss      10(-4) cm-1
     1  C(13)              0.00140       1.56866       0.55974       0.52325
     2  O(17)              0.00565      -3.42659      -1.22269      -1.14299
     3  F(19)             -0.00045      -1.89333      -0.67559      -0.63155
     4  F(19)              0.00020       0.84079       0.30002       0.28046
     5  F(19)             -0.00045      -1.89357      -0.67567      -0.63163
     6  C(13)             -0.02545     -28.60579     -10.20726      -9.54186
     7  O(17)              0.19261    -116.76031     -41.66298     -38.94705
     8  O(17)              0.03028     -18.35779      -6.55052      -6.12350

 Normal termination of Gaussian 16 at Tue Apr  8 22:58:31 2025.
