 Gaussian 16, Revision C.01,

 ----------------------------------------------------------------------
 #t hf aug-cc-pvdz symm=none int=(grid=ultrafine) guess=(read,tcheck) s
 table=(opt,rrhf)
 ----------------------------------------------------------------------
 -----
 title
 -----
 Symbolic Z-matrix:
 Charge =  0 Multiplicity = 1

 SCF Done:  E(RHF) =  -512.941380909     A.U. after   16 cycles
 Normal termination of Gaussian 16 at Wed Apr  9 00:38:43 2025.
 Gaussian 16:  ES64L-G16RevC.01  3-Jul-2019

 ----------------------------------------------------------------------
 #t hf aug-cc-pvdz iop(5/13=1,5/36=2,99/5=2) pseudo=read geom=check gue
 ss=(read,tcheck) scf=(maxcycle=1)
 ----------------------------------------------------------------------
 -----
 title
 -----
 Structure from the checkpoint file:  "BDE49_nonexpt_566_mol1.chk"
 Charge =  0 Multiplicity = 1

                         Standard orientation:
 ---------------------------------------------------------------------
 Center     Atomic      Atomic             Coordinates (Angstroms)
 Number     Number       Type             X           Y           Z
 ---------------------------------------------------------------------
      1          7           0       -0.078754   -0.070360   -0.228326
      2          7           0       -0.622454    1.190628   -0.071512
      3          5           0        1.363466   -0.333529   -0.034117
      4          8           0       -1.826085    1.316080   -0.212817
      5          8           0        0.143641    2.123999    0.197047
      6          8           0        2.280137    0.607005    0.270315
      7          8           0        1.716159   -1.642909   -0.188989
      8          6           0       -1.036299   -1.147156   -0.546093
      9          6           0       -1.775168   -1.679310    0.680801
     10          1           0       -0.439409   -1.933400   -1.003859
     11          1           0       -1.737186   -0.767110   -1.288882
     12          1           0       -1.069941   -2.077342    1.413871
     13          1           0       -2.447068   -2.488323    0.382450
     14          1           0       -2.374203   -0.897550    1.149608
     15          1           0        2.662285   -1.762521   -0.060345
     16          1           0        1.854637    1.477415    0.343914
 ---------------------------------------------------------------------

 SCF Done:  E(RHF) =  -515.150353808     A.U. after    2 cycles

 The electronic state is 1-A.
 Alpha  occ. eigenvalues --  -21.10573 -21.09458 -21.07616 -21.05879 -16.03587
 Alpha  occ. eigenvalues --  -15.78455 -11.45300 -11.37986  -7.69839  -2.02870
 Alpha  occ. eigenvalues --   -1.84774  -1.71203  -1.67840  -1.46495  -1.15674
 Alpha  occ. eigenvalues --   -0.97983  -0.91108  -0.79038  -0.73205  -0.70948
 Alpha  occ. eigenvalues --   -0.69136  -0.64444  -0.61974  -0.59658  -0.56526
 Alpha  occ. eigenvalues --   -0.53619  -0.51488  -0.50596  -0.46845  -0.41629
 Alpha  occ. eigenvalues --   -0.38415  -0.37571  -0.36668  -0.33214  -0.32190
 Alpha virt. eigenvalues --    0.03389   0.04426   0.04724   0.05483   0.06342
 Alpha virt. eigenvalues --    0.06609   0.07396   0.07628   0.08272   0.08898
 Alpha virt. eigenvalues --    0.09555   0.12851   0.13284   0.13968   0.14600

 Mulliken charges:
               1
     1  N   -2.887980
     2  N    7.494511
     3  B    6.424649
     4  O   -3.130418
     5  O   -3.136896
     6  O   -4.520392
     7  O   -4.359082
     8  C   -2.338735
     9  C   -3.605690
    10  H    1.703448
    11  H    1.672997
    12  H    1.369736
    13  H    1.098220
    14  H    1.417566
    15  H    1.045322
    16  H    1.752743
 Sum of Mulliken charges =   0.00000

 Dipole moment (field-independent basis, Debye):
    X=              0.0404    Y=             -1.8313    Z=             -0.2696  Tot=              1.8515

 Test job not archived.
 1\1\GINC-SE342\SP\RHF\Aug-CC-pVDZ\C2H7B1N2O4\OHZDE\09-Apr-2025\0\\#t h
 f aug-cc-pvdz iop(5/13=1,5/36=2,99/5=2) pseudo=read geom=check guess=(
 read,tcheck) scf=(maxcycle=1)\\title\\0,1\N,0,0.078754,0.07036,-0.2283
 26\N,0,0.622454,-1.190628,-0.071512\B,0,-1.363466,0.333529,-0.034117\O
 ,0,1.826085,-1.31608,-0.212817\O,0,-0.143641,-2.123999,0.197047\O,0,-2
 .280137,-0.607005,0.270315\O,0,-1.716159,1.642909,-0.188989\C,0,1.0362
 99,1.147156,-0.546093\C,0,1.775168,1.67931,0.680801\H,0,0.439409,1.933
 4,-1.003859\H,0,1.737186,0.76711,-1.288882\H,0,1.069941,2.077342,1.413

 Normal termination of Gaussian 16 at Wed Apr  9 00:38:50 2025.
