 Gaussian 16, Revision C.01,

 ----------------------------------------------------------------------
 #t hf aug-cc-pvdz symm=none int=(grid=ultrafine) guess=(read,tcheck) s
 table=opt
 ----------------------------------------------------------------------
 -----
 title
 -----
 Symbolic Z-matrix:
 Charge =  0 Multiplicity = 2

 SCF Done:  E(UHF) =  -715.595165591     A.U. after   19 cycles
 Normal termination of Gaussian 16 at Wed Apr  9 00:19:47 2025.
 Gaussian 16:  ES64L-G16RevC.01  3-Jul-2019

 ----------------------------------------------------------------------
 #t hf aug-cc-pvdz iop(5/13=1,5/36=2,99/5=2) pseudo=read geom=check gue
 ss=(read,tcheck) scf=(maxcycle=1)
 ----------------------------------------------------------------------
 -----
 title
 -----
 Structure from the checkpoint file:  "BDE49_nonexpt_258_mol2.chk"
 Charge =  0 Multiplicity = 2

                         Standard orientation:
 ---------------------------------------------------------------------
 Center     Atomic      Atomic             Coordinates (Angstroms)
 Number     Number       Type             X           Y           Z
 ---------------------------------------------------------------------
      1          9           0       -2.760067   -0.980327   -0.308535
      2          6           0       -1.301328    0.911463   -0.178342
      3          6           0       -2.357740    0.115163    0.495009
      4          1           0       -3.248650    0.722299    0.670532
      5          1           0       -1.993612   -0.302658    1.436704
      6          7           0       -0.021138    0.551995   -0.116449
      7          5           0        1.181650    0.203778   -0.051486
      8         17           0        2.814779   -0.256525    0.040568
      9          1           0       -1.574258    1.721614   -0.847510
 ---------------------------------------------------------------------

 SCF Done:  E(UHF) =  -716.877105113     A.U. after    2 cycles

 The electronic state is 2-A.
 Alpha  occ. eigenvalues --  -99.93735 -29.24072 -15.69715 -11.46374 -11.41529
 Alpha  occ. eigenvalues --  -10.50943  -9.70998  -9.70324  -9.70296  -7.72096
 Alpha  occ. eigenvalues --   -1.39685  -1.36779  -1.17016  -0.95127  -0.75546
 Alpha  occ. eigenvalues --   -0.71566  -0.69034  -0.64492  -0.61665  -0.60480
 Alpha  occ. eigenvalues --   -0.58038  -0.49223  -0.40851  -0.36135  -0.28111
 Alpha  occ. eigenvalues --   -0.24282  -0.22279
 Alpha virt. eigenvalues --    0.03300   0.03733   0.04058   0.04941   0.06291
 Alpha virt. eigenvalues --    0.07179   0.08929   0.10979   0.12792   0.13395
 Alpha virt. eigenvalues --    0.13856   0.14644   0.15106   0.15734   0.16201

  Beta  occ. eigenvalues --  -99.93724 -29.23770 -15.70692 -11.46106 -11.39948
  Beta  occ. eigenvalues --  -10.50933  -9.71103  -9.70277  -9.70185  -7.71450
  Beta  occ. eigenvalues --   -1.39135  -1.36437  -1.16337  -0.91043  -0.74858
  Beta  occ. eigenvalues --   -0.70862  -0.67053  -0.63735  -0.60718  -0.60247
  Beta  occ. eigenvalues --   -0.57662  -0.46706  -0.41827  -0.35168  -0.24166
  Beta  occ. eigenvalues --   -0.24091
  Beta virt. eigenvalues --    0.03349   0.03779   0.04061   0.04963   0.06303
  Beta virt. eigenvalues --    0.07119   0.08320   0.09255   0.11268   0.12905
  Beta virt. eigenvalues --    0.13937   0.14057   0.14928   0.15254   0.15763

 Mulliken charges and spin densities:
               1          2
     1  F    0.255947   0.026606
     2  C    1.697944   1.330513
     3  C   -2.833321  -0.325404
     4  H    1.385608   0.001922
     5  H    1.324556   0.002467
     6  N   -3.335994  -0.400401
     7  B    1.046174   0.369734
     8  Cl  -1.123337   0.044342
     9  H    1.582423  -0.049779
 Sum of Mulliken charges =   0.00000   1.00000

 Dipole moment (field-independent basis, Debye):
    X=             -0.4849    Y=             -0.6714    Z=             -0.5478  Tot=              0.9929
                          Isotropic Fermi Contact Couplings
        Atom                 a.u.       MegaHertz       Gauss      10(-4) cm-1
     1  F(19)              0.03568     150.12392      53.56795      50.07595
     2  C(13)              0.11787     132.50404      47.28074      44.19859
     3  C(13)             -0.03065     -34.46109     -12.29657     -11.49498
     4  H(1)               0.00225      10.07645       3.59553       3.36114
     5  H(1)               0.00326      14.58231       5.20333       4.86413
     6  N(14)             -0.11671     -37.70854     -13.45534     -12.57821
     7  B(11)              0.03800      54.51198      19.45123      18.18324
     8  Cl(35)             0.01344       5.89421       2.10320       1.96610

 Normal termination of Gaussian 16 at Wed Apr  9 00:19:50 2025.
