 Gaussian 16, Revision C.01,

 ----------------------------------------------------------------------
 #t hf aug-cc-pvdz symm=none int=(grid=ultrafine) guess=(read,tcheck) s
 table=(opt,rrhf)
 ----------------------------------------------------------------------
 -----
 title
 -----
 Symbolic Z-matrix:
 Charge =  0 Multiplicity = 1

 SCF Done:  E(RHF) =  -360.949603467     A.U. after   13 cycles
 Normal termination of Gaussian 16 at Tue Apr  8 23:06:13 2025.
 Gaussian 16:  ES64L-G16RevC.01  3-Jul-2019

 ----------------------------------------------------------------------
 #t hf aug-cc-pvdz iop(5/13=1,5/36=2,99/5=2) pseudo=read geom=check gue
 ss=(read,tcheck) scf=(maxcycle=1)
 ----------------------------------------------------------------------
 -----
 title
 -----
 Structure from the checkpoint file:  "BDE49_expt_366_mol1.chk"
 Charge =  0 Multiplicity = 1

                         Standard orientation:
 ---------------------------------------------------------------------
 Center     Atomic      Atomic             Coordinates (Angstroms)
 Number     Number       Type             X           Y           Z
 ---------------------------------------------------------------------
      1          6           0       -1.659139   -0.804351    0.150530
      2          6           0       -0.523319    0.195408    0.056481
      3          8           0       -0.665747    1.393056    0.061781
      4          8           0        0.669670   -0.423807    0.010531
      5          7           0       -2.904054   -0.186638   -0.285953
      6          1           0       -1.654156   -1.158547    1.196511
      7          1           0       -1.411796   -1.669741   -0.470354
      8          1           0       -2.927574    0.774608    0.040513
      9          1           0       -3.701872   -0.672558    0.106107
     10          6           0        1.838482    0.434246   -0.009173
     11          6           0        3.057949   -0.462129   -0.066995
     12          1           0        1.828678    1.059330    0.886943
     13          1           0        1.770972    1.094990   -0.876184
     14          1           0        3.099828   -1.120031    0.803781
     15          1           0        3.965712    0.146625   -0.082670
     16          1           0        3.043364   -1.081240   -0.966529
 ---------------------------------------------------------------------

 SCF Done:  E(RHF) =  -362.580846665     A.U. after    2 cycles

 The electronic state is 1-A.
 Alpha  occ. eigenvalues --  -21.08852 -21.04797 -15.73309 -11.52421 -11.44445
 Alpha  occ. eigenvalues --  -11.41546 -11.37663  -1.84264  -1.66410  -1.33199
 Alpha  occ. eigenvalues --   -1.14605  -1.01783  -0.89534  -0.75852  -0.70034
 Alpha  occ. eigenvalues --   -0.67076  -0.63393  -0.59540  -0.58936  -0.55339
 Alpha  occ. eigenvalues --   -0.53118  -0.50755  -0.48626  -0.47598  -0.41225
 Alpha  occ. eigenvalues --   -0.36119  -0.32272  -0.29886
 Alpha virt. eigenvalues --    0.03531   0.04828   0.05333   0.05611   0.05878
 Alpha virt. eigenvalues --    0.06239   0.06715   0.07306   0.08369   0.10056
 Alpha virt. eigenvalues --    0.12380   0.13295   0.13742   0.14459   0.14852

 Mulliken charges:
               1
     1  C   -3.179275
     2  C    6.815412
     3  O   -3.120161
     4  O   -3.405257
     5  N   -2.178262
     6  H    1.438609
     7  H    1.601475
     8  H    0.628285
     9  H    0.553851
    10  C   -2.318492
    11  C   -3.671724
    12  H    1.572589
    13  H    1.580668
    14  H    1.290633
    15  H    1.113042
    16  H    1.278610
 Sum of Mulliken charges =  -0.00000

 Dipole moment (field-independent basis, Debye):
    X=              0.9101    Y=             -0.9850    Z=              1.0043  Tot=              1.6755

 Test job not archived.
 1\1\GINC-SE174\SP\RHF\Aug-CC-pVDZ\C4H9N1O2\OHZDE\08-Apr-2025\0\\#t hf
 aug-cc-pvdz iop(5/13=1,5/36=2,99/5=2) pseudo=read geom=check guess=(re
 ad,tcheck) scf=(maxcycle=1)\\title\\0,1\C,0,-1.659139,-0.804351,0.1505
 3\C,0,-0.523319,0.195408,0.056481\O,0,-0.665747,1.393056,0.061781\O,0,
 0.66967,-0.423807,0.010531\N,0,-2.904054,-0.186638,-0.285953\H,0,-1.65
 4156,-1.158547,1.196511\H,0,-1.411796,-1.669741,-0.470354\H,0,-2.92757
 4,0.774608,0.040513\H,0,-3.701872,-0.672558,0.106107\C,0,1.838482,0.43
 4246,-0.009173\C,0,3.057949,-0.462129,-0.066995\H,0,1.828678,1.05933,0

 Normal termination of Gaussian 16 at Tue Apr  8 23:06:18 2025.
