 Gaussian 16, Revision C.01,

 ----------------------------------------------------------------------
 #t hf aug-cc-pvdz symm=none int=(grid=ultrafine) guess=(read,tcheck) s
 table=(opt,rrhf)
 ----------------------------------------------------------------------
 -----
 title
 -----
 Symbolic Z-matrix:
 Charge =  0 Multiplicity = 1

 SCF Done:  E(RHF) =  -485.377241038     A.U. after   11 cycles

 1\1\GINC-SE059\Stability\RHF\Aug-CC-pVDZ\B1Cl1H2\OHZDE\09-Apr-2025\0\\
 #t hf aug-cc-pvdz symm=none int=(grid=ultrafine) guess=(read,tcheck) s
 table=(opt,rrhf)\\title\\0,1\H,0,0.,1.046247,-1.749563\B,0,0.,0.,-1.19
 3645\H,0,0.,-1.046247,-1.749563\Cl,0,0.,0.,0.556903\\Version=ES64L-G16
 RevC.01\HF=-485.377241\RMSD=3.337e-09\Dipole=0.,0.,-0.4265315\Quadrupo
 le=0.5053682,-0.7728478,0.2674796,0.,0.,0.\PG=Unknown\\@
 The archive entry for this job was punched.

 Normal termination of Gaussian 16 at Wed Apr  9 00:36:16 2025.
 Gaussian 16:  ES64L-G16RevC.01  3-Jul-2019

 ----------------------------------------------------------------------
 #t hf aug-cc-pvdz iop(5/13=1,5/36=2,99/5=2) pseudo=read geom=check gue
 ss=(read,tcheck) scf=(maxcycle=1)
 ----------------------------------------------------------------------
 -----
 title
 -----
 Structure from the checkpoint file:  "BDE49_nonexpt_520_mol1.chk"
 Charge =  0 Multiplicity = 1

                         Standard orientation:
 ---------------------------------------------------------------------
 Center     Atomic      Atomic             Coordinates (Angstroms)
 Number     Number       Type             X           Y           Z
 ---------------------------------------------------------------------
      1          1           0        0.000000    1.046247   -1.749563
      2          5           0        0.000000    0.000000   -1.193645
      3          1           0       -0.000000   -1.046247   -1.749563
      4         17           0        0.000000    0.000000    0.556903
 ---------------------------------------------------------------------

 SCF Done:  E(RHF) =  -485.754962436     A.U. after    2 cycles

 The electronic state is 1-A1.
 Alpha  occ. eigenvalues --  -99.89537 -10.46833  -9.66762  -9.66198  -9.66103
 Alpha  occ. eigenvalues --   -7.67042  -1.34533  -0.85440  -0.59564  -0.56211
 Alpha  occ. eigenvalues --   -0.54202  -0.46053
 Alpha virt. eigenvalues --    0.03253   0.03451   0.03927   0.04959   0.08528
 Alpha virt. eigenvalues --    0.11360   0.11812   0.13481   0.16946   0.16991
 Alpha virt. eigenvalues --    0.18537   0.21390   0.21575   0.24727   0.27210

 Mulliken charges:
               1
     1  H   -2.557337
     2  B    6.288893
     3  H   -2.557337
     4  Cl  -1.174220
 Sum of Mulliken charges =  -0.00000

 Dipole moment (field-independent basis, Debye):
    X=              0.0000    Y=              0.0000    Z=             -0.8651  Tot=              0.8651

 Test job not archived.
 1\1\GINC-SE059\SP\RHF\Aug-CC-pVDZ\B1Cl1H2\OHZDE\09-Apr-2025\0\\#t hf a
 ug-cc-pvdz iop(5/13=1,5/36=2,99/5=2) pseudo=read geom=check guess=(rea
 d,tcheck) scf=(maxcycle=1)\\title\\0,1\H,0,0.,1.046247,-1.749563\B,0,0
 .,0.,-1.193645\H,0,0.,-1.046247,-1.749563\Cl,0,0.,0.,0.556903\\Version
 =ES64L-G16RevC.01\State=1-A1\HF=-485.7549624\RMSD=1.173e-01\Dipole=0.,
 0.,-0.3403692\Quadrupole=0.6154569,-1.1664211,0.5509642,0.,0.,0.\PG=C0
 2V [C2(B1Cl1),SGV(H2)]\\@

 Normal termination of Gaussian 16 at Wed Apr  9 00:36:18 2025.
