 Gaussian 16, Revision C.01,

 ----------------------------------------------------------------------
 #t hf aug-cc-pvdz symm=none int=(grid=ultrafine) guess=(read,tcheck) s
 table=opt
 ----------------------------------------------------------------------
 -----
 title
 -----
 Symbolic Z-matrix:
 Charge =  0 Multiplicity = 2

 SCF Done:  E(UHF) =  -430.573996270     A.U. after   18 cycles
 Normal termination of Gaussian 16 at Wed Apr  9 00:35:02 2025.
 Gaussian 16:  ES64L-G16RevC.01  3-Jul-2019

 ----------------------------------------------------------------------
 #t hf aug-cc-pvdz iop(5/13=1,5/36=2,99/5=2) pseudo=read geom=check gue
 ss=(read,tcheck) scf=(maxcycle=1)
 ----------------------------------------------------------------------
 -----
 title
 -----
 Structure from the checkpoint file:  "BDE49_nonexpt_416_mol2.chk"
 Charge =  0 Multiplicity = 2

                         Standard orientation:
 ---------------------------------------------------------------------
 Center     Atomic      Atomic             Coordinates (Angstroms)
 Number     Number       Type             X           Y           Z
 ---------------------------------------------------------------------
      1          9           0       -2.522473   -0.252330   -0.589770
      2          5           0       -1.350613   -0.824431   -0.446261
      3          6           0       -0.126700   -0.039973    0.255784
      4          8           0        0.304679    0.789099   -0.822850
      5          8           0        0.908593   -0.878400    0.725651
      6          6           0        1.309767    1.759191   -0.522630
      7          1           0        1.679645    2.118755   -1.482730
      8          1           0        2.134366    1.313868    0.041507
      9          1           0        0.900421    2.605690    0.038879
     10          6           0        1.481254   -1.752410   -0.243473
     11          1           0        2.192147   -2.380371    0.292944
     12          1           0        2.001616   -1.196770   -1.029400
     13          1           0        0.712913   -2.382423   -0.707634
     14          6           0       -0.611673    0.741517    1.478197
     15          1           0       -1.353204    1.485813    1.183836
     16          1           0        0.228527    1.234454    1.971170
     17          1           0       -1.063167    0.058568    2.200996
 ---------------------------------------------------------------------

 SCF Done:  E(UHF) =  -432.407917340     A.U. after    2 cycles

 The electronic state is 2-A.
 Alpha  occ. eigenvalues --  -29.26286 -21.05115 -21.04836 -11.46976 -11.40909
 Alpha  occ. eigenvalues --  -11.40429 -11.37352  -7.68249  -1.81885  -1.69204
 Alpha  occ. eigenvalues --   -1.15037  -1.02336  -0.98679  -0.96004  -0.79617
 Alpha  occ. eigenvalues --   -0.67677  -0.64969  -0.62573  -0.61267  -0.58857
 Alpha  occ. eigenvalues --   -0.56575  -0.55681  -0.49891  -0.49299  -0.47720
 Alpha  occ. eigenvalues --   -0.44879  -0.42153  -0.40226  -0.35153  -0.31210
 Alpha  occ. eigenvalues --   -0.29821  -0.20963
 Alpha virt. eigenvalues --    0.03606   0.04461   0.04635   0.05258   0.05688
 Alpha virt. eigenvalues --    0.05800   0.06109   0.06507   0.07193   0.09468
 Alpha virt. eigenvalues --    0.09831   0.10076   0.10985   0.12632   0.14439

  Beta  occ. eigenvalues --  -29.25993 -21.05127 -21.04874 -11.46662 -11.40891
  Beta  occ. eigenvalues --  -11.40394 -11.37295  -7.66388  -1.81782  -1.69209
  Beta  occ. eigenvalues --   -1.14131  -1.01494  -0.98019  -0.94162  -0.78646
  Beta  occ. eigenvalues --   -0.67029  -0.64430  -0.62260  -0.60608  -0.58790
  Beta  occ. eigenvalues --   -0.56402  -0.55421  -0.49236  -0.48827  -0.44876
  Beta  occ. eigenvalues --   -0.41754  -0.41003  -0.39618  -0.33975  -0.30129
  Beta  occ. eigenvalues --   -0.28932
  Beta virt. eigenvalues --    0.03418   0.04413   0.04663   0.05202   0.05608
  Beta virt. eigenvalues --    0.05807   0.06090   0.06505   0.07200   0.09009
  Beta virt. eigenvalues --    0.09519   0.09858   0.10945   0.12504   0.13394

 Mulliken charges and spin densities:
               1          2
     1  F   -0.767525  -0.122740
     2  B    0.443039   0.988125
     3  C    6.226860   0.236086
     4  O   -3.780712   0.027084
     5  O   -3.551364  -0.015939
     6  C   -3.449450   0.008369
     7  H    1.274185   0.000916
     8  H    1.393118   0.000259
     9  H    1.528724   0.001533
    10  C   -3.133771  -0.061471
    11  H    1.259549  -0.003635
    12  H    1.462226  -0.010453
    13  H    1.517600  -0.033508
    14  C   -4.109058  -0.015929
    15  H    1.296565   0.003494
    16  H    1.294372  -0.003597
    17  H    1.095641   0.001406
 Sum of Mulliken charges =   0.00000   1.00000

 Dipole moment (field-independent basis, Debye):
    X=             -2.3271    Y=              2.1522    Z=             -0.0501  Tot=              3.1702
                          Isotropic Fermi Contact Couplings
        Atom                 a.u.       MegaHertz       Gauss      10(-4) cm-1
     1  F(19)              0.05319     223.77515      79.84854      74.64336
     2  B(11)              0.19883     285.18879     101.76245      95.12874
     3  C(13)              0.06173      69.39087      24.76039      23.14630
     4  O(17)             -0.00043       0.26309       0.09388       0.08776
     5  O(17)              0.00682      -4.13162      -1.47427      -1.37816
     6  C(13)              0.00494       5.55689       1.98284       1.85358
     7  H(1)               0.00057       2.55790       0.91272       0.85322
     8  H(1)               0.00000       0.01383       0.00494       0.00461

 Normal termination of Gaussian 16 at Wed Apr  9 00:35:10 2025.
