 Gaussian 16, Revision C.01,

 ----------------------------------------------------------------------
 #t hf aug-cc-pvdz symm=none int=(grid=ultrafine) guess=(read,tcheck) s
 table=(opt,rrhf)
 ----------------------------------------------------------------------
 -----
 title
 -----
 Symbolic Z-matrix:
 Charge =  0 Multiplicity = 1

 SCF Done:  E(RHF) =  -208.833703997     A.U. after   14 cycles
 Normal termination of Gaussian 16 at Tue Apr  8 22:37:41 2025.
 Gaussian 16:  ES64L-G16RevC.01  3-Jul-2019

 ----------------------------------------------------------------------
 #t hf aug-cc-pvdz iop(5/13=1,5/36=2,99/5=2) pseudo=read geom=check gue
 ss=(read,tcheck) scf=(maxcycle=1)
 ----------------------------------------------------------------------
 -----
 title
 -----
 Structure from the checkpoint file:  "BDE49_expt_1152_mol1.chk"
 Charge =  0 Multiplicity = 1

                         Standard orientation:
 ---------------------------------------------------------------------
 Center     Atomic      Atomic             Coordinates (Angstroms)
 Number     Number       Type             X           Y           Z
 ---------------------------------------------------------------------
      1          6           0       -1.499824    0.090722   -0.000006
      2          6           0       -0.131615    0.489352   -0.000010
      3          7           0       -2.615025   -0.213143   -0.000004
      4          6           0        0.882378   -0.384324    0.000010
      5          6           0        2.327062   -0.005277    0.000008
      6          1           0        2.465467    1.077491   -0.000019
      7          1           0        2.833740   -0.420690   -0.877793
      8          1           0        2.833730   -0.420645    0.877835
      9          1           0        0.051890    1.559665   -0.000030
     10          1           0        0.652339   -1.446662    0.000029
 ---------------------------------------------------------------------

 SCF Done:  E(RHF) =  -209.815022395     A.U. after    2 cycles

 The electronic state is 1-A.
 Alpha  occ. eigenvalues --  -15.75635 -11.48187 -11.44429 -11.42324 -11.40497
 Alpha  occ. eigenvalues --   -1.32502  -1.22587  -1.05536  -0.85792  -0.73282
 Alpha  occ. eigenvalues --   -0.62341  -0.59537  -0.56835  -0.53216  -0.49924
 Alpha  occ. eigenvalues --   -0.49442  -0.43357  -0.35353
 Alpha virt. eigenvalues --    0.02607   0.05016   0.05496   0.05600   0.06601
 Alpha virt. eigenvalues --    0.08214   0.09938   0.10528   0.12430   0.12568
 Alpha virt. eigenvalues --    0.13207   0.14452   0.14530   0.14987   0.16788

 Mulliken charges:
               1
     1  C    1.228558
     2  C   -0.869613
     3  N   -2.224640
     4  C   -0.526943
     5  C   -4.320501
     6  H    1.265398
     7  H    1.152537
     8  H    1.152540
     9  H    1.600348
    10  H    1.542316
 Sum of Mulliken charges =  -0.00000

 Dipole moment (field-independent basis, Debye):
    X=              4.3583    Y=              0.4157    Z=              0.0000  Tot=              4.3781

 Test job not archived.
 1\1\GINC-SE029\SP\RHF\Aug-CC-pVDZ\C4H5N1\OHZDE\08-Apr-2025\0\\#t hf au
 g-cc-pvdz iop(5/13=1,5/36=2,99/5=2) pseudo=read geom=check guess=(read
 ,tcheck) scf=(maxcycle=1)\\title\\0,1\C,0,-1.499824,0.090722,-0.000006
 \C,0,-0.131615,0.489352,-0.00001\N,0,-2.615025,-0.213143,-0.000004\C,0
 ,0.882378,-0.384324,0.00001\C,0,2.327062,-0.005277,0.000008\H,0,2.4654
 67,1.077491,-0.000019\H,0,2.83374,-0.42069,-0.877793\H,0,2.83373,-0.42
 0645,0.877835\H,0,0.05189,1.559665,-0.00003\H,0,0.652339,-1.446662,0.0
 00029\\Version=ES64L-G16RevC.01\State=1-A\HF=-209.8150224\RMSD=9.380e-

 Normal termination of Gaussian 16 at Tue Apr  8 22:37:44 2025.
