 Gaussian 16, Revision C.01,

 ----------------------------------------------------------------------
 #t hf aug-cc-pvdz symm=none int=(grid=ultrafine) guess=(read,tcheck) s
 table=(opt,rrhf)
 ----------------------------------------------------------------------
 -----
 title
 -----
 Symbolic Z-matrix:
 Charge =  0 Multiplicity = 1

 SCF Done:  E(RHF) =  -895.065909432     A.U. after   14 cycles
 Normal termination of Gaussian 16 at Wed Apr  9 00:20:35 2025.
 Gaussian 16:  ES64L-G16RevC.01  3-Jul-2019

 ----------------------------------------------------------------------
 #t hf aug-cc-pvdz iop(5/13=1,5/36=2,99/5=2) pseudo=read geom=check gue
 ss=(read,tcheck) scf=(maxcycle=1)
 ----------------------------------------------------------------------
 -----
 title
 -----
 Structure from the checkpoint file:  "BDE49_nonexpt_2616_mol1.chk"
 Charge =  0 Multiplicity = 1

                         Standard orientation:
 ---------------------------------------------------------------------
 Center     Atomic      Atomic             Coordinates (Angstroms)
 Number     Number       Type             X           Y           Z
 ---------------------------------------------------------------------
      1          9           0       -1.571948   -0.706871   -0.008659
      2         16           0        1.318563   -0.194395   -0.089161
      3         16           0       -0.531717    0.617815    0.017511
      4          1           0        1.557994   -0.412888    1.224326
 ---------------------------------------------------------------------

 SCF Done:  E(RHF) =  -895.854019563     A.U. after    2 cycles

 The electronic state is 1-A.
 Alpha  occ. eigenvalues --  -75.79046 -75.74764 -29.27398 -13.21530 -13.16368
 Alpha  occ. eigenvalues --  -13.12844 -13.10064 -13.09300 -13.06157  -8.12841
 Alpha  occ. eigenvalues --   -8.08710  -1.28582  -1.05807  -0.67626  -0.55123
 Alpha  occ. eigenvalues --   -0.45746  -0.40587  -0.36909  -0.27828  -0.26500
 Alpha  occ. eigenvalues --   -0.19653
 Alpha virt. eigenvalues --    0.02437   0.05053   0.09141   0.11433   0.11956
 Alpha virt. eigenvalues --    0.13576   0.15144   0.15826   0.18502   0.20775
 Alpha virt. eigenvalues --    0.24545   0.24757   0.25127   0.27839   0.28855

 Mulliken charges:
               1
     1  F   -0.054667
     2  S   -1.202318
     3  S    0.100408
     4  H    1.156577
 Sum of Mulliken charges =  -0.00000

 Dipole moment (field-independent basis, Debye):
    X=             -2.1379    Y=             -1.5632    Z=             -0.7941  Tot=              2.7649

 Test job not archived.
 1\1\GINC-SE455\SP\RHF\Aug-CC-pVDZ\F1H1S2\OHZDE\09-Apr-2025\0\\#t hf au
 g-cc-pvdz iop(5/13=1,5/36=2,99/5=2) pseudo=read geom=check guess=(read
 ,tcheck) scf=(maxcycle=1)\\title\\0,1\F,0,-1.571948,-0.706871,-0.00865
 9\S,0,1.318563,-0.194395,-0.089161\S,0,-0.531717,0.617815,0.017511\H,0
 ,1.557994,-0.412888,1.224326\\Version=ES64L-G16RevC.01\State=1-A\HF=-8
 95.8540196\RMSD=7.627e-02\Dipole=-0.8411082,-0.6150242,-0.3124285\Quad
 rupole=2.4918504,-1.3635344,-1.1283159,-0.601695,-0.4671664,-0.1710361
 \PG=C01 [X(F1H1S2)]\\@

 Normal termination of Gaussian 16 at Wed Apr  9 00:20:36 2025.
