 Gaussian 16, Revision C.01,

 ----------------------------------------------------------------------
 #t hf aug-cc-pvdz symm=none int=(grid=ultrafine) guess=(read,tcheck) s
 table=(opt,rrhf)
 ----------------------------------------------------------------------
 -----
 title
 -----
 Symbolic Z-matrix:
 Charge =  0 Multiplicity = 1

 SCF Done:  E(RHF) =  -566.379314803     A.U. after   14 cycles
 Normal termination of Gaussian 16 at Tue Apr  8 22:55:36 2025.
 Gaussian 16:  ES64L-G16RevC.01  3-Jul-2019

 ----------------------------------------------------------------------
 #t hf aug-cc-pvdz iop(5/13=1,5/36=2,99/5=2) pseudo=read geom=check gue
 ss=(read,tcheck) scf=(maxcycle=1)
 ----------------------------------------------------------------------
 -----
 title
 -----
 Structure from the checkpoint file:  "BDE49_expt_1819_mol1.chk"
 Charge =  0 Multiplicity = 1

                         Standard orientation:
 ---------------------------------------------------------------------
 Center     Atomic      Atomic             Coordinates (Angstroms)
 Number     Number       Type             X           Y           Z
 ---------------------------------------------------------------------
      1          7           0       -1.232206   -0.450603   -0.000003
      2          8           0       -1.598380    0.667164   -0.000020
      3         16           0        0.617226   -0.737245   -0.000076
      4          6           0        1.247217    0.954256    0.000144
      5          1           0        1.840570    1.136395    0.895452
      6          1           0        0.371860    1.614564   -0.000119
      7          1           0        1.841132    1.136339   -0.894799
 ---------------------------------------------------------------------

 SCF Done:  E(RHF) =  -567.354321263     A.U. after    2 cycles

 The electronic state is 1-A.
 Alpha  occ. eigenvalues --  -75.71436 -21.16283 -15.91798 -13.11587 -13.10322
 Alpha  occ. eigenvalues --  -13.03289 -11.40646  -8.05407  -1.90479  -1.22413
 Alpha  occ. eigenvalues --   -1.03974  -0.86785  -0.66323  -0.60579  -0.59306
 Alpha  occ. eigenvalues --   -0.56315  -0.55181  -0.41502  -0.26130  -0.25634
 Alpha virt. eigenvalues --    0.02852   0.05564   0.06119   0.07425   0.09287
 Alpha virt. eigenvalues --    0.11631   0.12063   0.13841   0.14423   0.15321
 Alpha virt. eigenvalues --    0.17488   0.17554   0.19185   0.21061   0.21326

 Mulliken charges:
               1
     1  N    1.030296
     2  O   -1.899238
     3  S    1.307173
     4  C   -4.582718
     5  H    1.357862
     6  H    1.428809
     7  H    1.357816
 Sum of Mulliken charges =  -0.00000

 Dipole moment (field-independent basis, Debye):
    X=              1.7081    Y=              0.3929    Z=             -0.0001  Tot=              1.7527

 Test job not archived.
 1\1\GINC-SE163\SP\RHF\Aug-CC-pVDZ\C1H3N1O1S1\OHZDE\08-Apr-2025\0\\#t h
 f aug-cc-pvdz iop(5/13=1,5/36=2,99/5=2) pseudo=read geom=check guess=(
 read,tcheck) scf=(maxcycle=1)\\title\\0,1\N,0,-1.232206,-0.450603,-0.0
 00003\O,0,-1.59838,0.667164,-0.00002\S,0,0.617226,-0.737245,-0.000076\
 C,0,1.247218,0.954255,0.000144\H,0,1.840571,1.136394,0.895452\H,0,0.37
 1861,1.614564,-0.000119\H,0,1.841133,1.136338,-0.894799\\Version=ES64L
 -G16RevC.01\State=1-A\HF=-567.3543213\RMSD=7.374e-02\Dipole=0.672009,0
 .1545701,-0.0000407\Quadrupole=0.060228,0.3708126,-0.4310406,-0.537296

 Normal termination of Gaussian 16 at Tue Apr  8 22:55:38 2025.
