 Gaussian 16, Revision C.01,

 ----------------------------------------------------------------------
 #t hf aug-cc-pvdz symm=none int=(grid=ultrafine) guess=(read,tcheck) s
 table=(opt,rrhf)
 ----------------------------------------------------------------------
 -----
 title
 -----
 Symbolic Z-matrix:
 Charge =  0 Multiplicity = 1

 SCF Done:  E(RHF) =  -635.408758845     A.U. after   13 cycles
 Normal termination of Gaussian 16 at Tue Apr  8 23:31:40 2025.
 Gaussian 16:  ES64L-G16RevC.01  3-Jul-2019

 ----------------------------------------------------------------------
 #t hf aug-cc-pvdz iop(5/13=1,5/36=2,99/5=2) pseudo=read geom=check gue
 ss=(read,tcheck) scf=(maxcycle=1)
 ----------------------------------------------------------------------
 -----
 title
 -----
 Structure from the checkpoint file:  "BDE49_nonexpt_1373_mol1.chk"
 Charge =  0 Multiplicity = 1

                         Standard orientation:
 ---------------------------------------------------------------------
 Center     Atomic      Atomic             Coordinates (Angstroms)
 Number     Number       Type             X           Y           Z
 ---------------------------------------------------------------------
      1          9           0       -1.846600   -0.510090    0.000000
      2         15           0       -0.406308   -1.330744    0.000000
      3          6           0        0.405948   -0.429761    1.399168
      4          6           0        0.405948    1.102465    1.281354
      5          6           0        1.083327    1.608901   -0.000000
      6          6           0        0.405948    1.102465   -1.281354
      7          6           0        0.405948   -0.429761   -1.399168
      8          1           0        1.431543   -0.821973    1.440020
      9          1           0       -0.081787   -0.754820    2.323196
     10          1           0        0.905761    1.530828   -2.156867
     11          1           0       -0.629654    1.456292   -1.307699
     12          1           0        1.431543   -0.821973   -1.440020
     13          1           0       -0.081787   -0.754820   -2.323196
     14          1           0        0.905761    1.530828    2.156867
     15          1           0       -0.629654    1.456292    1.307699
     16          1           0        2.137924    1.301946   -0.000000
     17          1           0        1.081653    2.703518   -0.000000
 ---------------------------------------------------------------------

 SCF Done:  E(RHF) =  -636.944996697     A.U. after    2 cycles

 The electronic state is 1-A'.
 Alpha  occ. eigenvalues -- -105.21120 -29.24329 -11.43075 -11.42409 -11.39147
 Alpha  occ. eigenvalues --  -11.36909 -11.35141  -2.80056  -1.52509  -1.51572
 Alpha  occ. eigenvalues --   -1.49990  -1.25136  -1.09817  -1.00877  -0.85997
 Alpha  occ. eigenvalues --   -0.83076  -0.73960  -0.64722  -0.61478  -0.61130
 Alpha  occ. eigenvalues --   -0.56743  -0.54787  -0.48983  -0.46812  -0.45252
 Alpha  occ. eigenvalues --   -0.44735  -0.44017  -0.30865  -0.30355  -0.19033
 Alpha  occ. eigenvalues --   -0.17863   0.00347
 Alpha virt. eigenvalues --    0.04271   0.05468   0.05625   0.05772   0.05816
 Alpha virt. eigenvalues --    0.06238   0.06279   0.07549   0.07824   0.08663
 Alpha virt. eigenvalues --    0.10745   0.12042   0.12714   0.13010   0.13803

 Mulliken charges:
               1
     1  F   -0.613136
     2  P    5.937800
     3  C   -4.174119
     4  C   -2.991997
     5  C   -3.553327
     6  C   -2.991997
     7  C   -4.174119
     8  H    1.120552
     9  H    1.182578
    10  H    1.228873
    11  H    1.370126
    12  H    1.120552
    13  H    1.182578
    14  H    1.228873
    15  H    1.370126
    16  H    1.455891
    17  H    1.300746
 Sum of Mulliken charges =  -0.00000

 Dipole moment (field-independent basis, Debye):
    X=             -3.5348    Y=              5.7095    Z=              0.0000  Tot=              6.7151

 Test job not archived.
 1\1\GINC-SE363\SP\RHF\Aug-CC-pVDZ\C5H10F1P1\OHZDE\08-Apr-2025\0\\#t hf
  aug-cc-pvdz iop(5/13=1,5/36=2,99/5=2) pseudo=read geom=check guess=(r
 ead,tcheck) scf=(maxcycle=1)\\title\\0,1\F,0,-1.8466,-0.51009,0.\P,0,-
 0.406308,-1.330744,0.\C,0,0.405948,-0.429761,1.399168\C,0,0.405948,1.1
 02465,1.281354\C,0,1.083327,1.608901,0.\C,0,0.405948,1.102465,-1.28135
 4\C,0,0.405948,-0.429761,-1.399168\H,0,1.431543,-0.821973,1.44002\H,0,
 -0.081787,-0.75482,2.323196\H,0,0.905761,1.530828,-2.156867\H,0,-0.629
 654,1.456292,-1.307699\H,0,1.431543,-0.821973,-1.44002\H,0,-0.081787,-

 Normal termination of Gaussian 16 at Tue Apr  8 23:31:45 2025.
