 Gaussian 16, Revision C.01,

 ----------------------------------------------------------------------
 #t hf aug-cc-pvdz symm=none int=(grid=ultrafine) guess=(read,tcheck) s
 table=(opt,rrhf)
 ----------------------------------------------------------------------
 -----
 title
 -----
 Symbolic Z-matrix:
 Charge =  0 Multiplicity = 1

 SCF Done:  E(RHF) =  -1499.30469125     A.U. after   10 cycles
 Normal termination of Gaussian 16 at Wed Apr  9 00:09:30 2025.
 Gaussian 16:  ES64L-G16RevC.01  3-Jul-2019

 ----------------------------------------------------------------------
 #t hf aug-cc-pvdz iop(5/13=1,5/36=2,99/5=2) pseudo=read geom=check gue
 ss=(read,tcheck) scf=(maxcycle=1)
 ----------------------------------------------------------------------
 -----
 title
 -----
 Structure from the checkpoint file:  "BDE49_nonexpt_2314_mol1.chk"
 Charge =  0 Multiplicity = 1

                         Standard orientation:
 ---------------------------------------------------------------------
 Center     Atomic      Atomic             Coordinates (Angstroms)
 Number     Number       Type             X           Y           Z
 ---------------------------------------------------------------------
      1         14           0       -0.877006    0.785742    0.000000
      2         14           0        0.877006   -0.785742    0.000000
      3          1           0        0.850704   -1.631093    1.210914
      4         17           0        2.681591    0.272502    0.000000
      5          1           0        0.850704   -1.631093   -1.210914
      6         17           0       -2.681591   -0.272502   -0.000001
      7          1           0       -0.850704    1.631093   -1.210914
      8          1           0       -0.850705    1.631093    1.210914
 ---------------------------------------------------------------------

 SCF Done:  E(RHF) =  -1500.10246985     A.U. after    2 cycles

 The electronic state is 1-A.
 Alpha  occ. eigenvalues --  -99.89312 -99.89307 -76.27452 -76.27411 -10.46680
 Alpha  occ. eigenvalues --  -10.46673  -9.66588  -9.66529  -9.65967  -9.65908
 Alpha  occ. eigenvalues --   -9.65895  -9.65889  -5.60879  -5.60871  -2.23056
 Alpha  occ. eigenvalues --   -2.23031  -2.22627  -2.22418  -2.21924  -2.21091
 Alpha  occ. eigenvalues --   -1.29641  -1.29385  -0.83253  -0.74870  -0.57282
 Alpha  occ. eigenvalues --   -0.56652  -0.55475  -0.55455  -0.55364  -0.53215
 Alpha  occ. eigenvalues --   -0.48616  -0.47911  -0.37726
 Alpha virt. eigenvalues --    0.03557   0.04191   0.04306   0.06432   0.07019
 Alpha virt. eigenvalues --    0.07596   0.07892   0.08169   0.09372   0.09395
 Alpha virt. eigenvalues --    0.09965   0.10916   0.11765   0.12079   0.13194

 Mulliken charges:
               1
     1  Si   4.172960
     2  Si   4.172959
     3  H   -1.622582
     4  Cl  -0.927794
     5  H   -1.622582
     6  Cl  -0.927794
     7  H   -1.622583
     8  H   -1.622583
 Sum of Mulliken charges =   0.00000

 Dipole moment (field-independent basis, Debye):
    X=              0.0000    Y=             -0.0000    Z=              0.0000  Tot=              0.0000

 Test job not archived.
 1\1\GINC-SE095\SP\RHF\Aug-CC-pVDZ\Cl2H4Si2\OHZDE\09-Apr-2025\0\\#t hf
 aug-cc-pvdz iop(5/13=1,5/36=2,99/5=2) pseudo=read geom=check guess=(re
 ad,tcheck) scf=(maxcycle=1)\\title\\0,1\Si,0,0.877006,-0.785742,0.\Si,
 0,-0.877006,0.785742,0.\H,0,-0.850704,1.631093,1.210914\Cl,0,-2.681591
 ,-0.272502,0.\H,0,-0.850704,1.631093,-1.210914\Cl,0,2.681591,0.272502,
 -0.000001\H,0,0.850704,-1.631093,-1.210914\H,0,0.850705,-1.631093,1.21
 0914\\Version=ES64L-G16RevC.01\State=1-A\HF=-1500.1024699\RMSD=7.684e-
 02\Dipole=-0.0000008,0.0000001,0.0000005\Quadrupole=-3.3402592,2.24837

 Normal termination of Gaussian 16 at Wed Apr  9 00:09:33 2025.
