 Gaussian 16, Revision C.01,

 ----------------------------------------------------------------------
 #t hf aug-cc-pvdz symm=none int=(grid=ultrafine) guess=(read,tcheck) s
 table=(opt,rrhf)
 ----------------------------------------------------------------------
 -----
 title
 -----
 Symbolic Z-matrix:
 Charge =  0 Multiplicity = 1

 SCF Done:  E(RHF) =  -1013.42781102     A.U. after   13 cycles
 Normal termination of Gaussian 16 at Tue Apr  8 23:43:05 2025.
 Gaussian 16:  ES64L-G16RevC.01  3-Jul-2019

 ----------------------------------------------------------------------
 #t hf aug-cc-pvdz iop(5/13=1,5/36=2,99/5=2) pseudo=read geom=check gue
 ss=(read,tcheck) scf=(maxcycle=1)
 ----------------------------------------------------------------------
 -----
 title
 -----
 Structure from the checkpoint file:  "BDE49_nonexpt_1647_mol1.chk"
 Charge =  0 Multiplicity = 1

                         Standard orientation:
 ---------------------------------------------------------------------
 Center     Atomic      Atomic             Coordinates (Angstroms)
 Number     Number       Type             X           Y           Z
 ---------------------------------------------------------------------
      1          6           0       -1.873723   -0.075113    0.018904
      2         15           0        1.601114   -0.084775    0.100308
      3          8           0        1.739337   -0.895154    1.327177
      4          6           0       -3.133029    0.809852   -0.114036
      5          1           0       -3.187318    1.302275   -1.089887
      6          1           0       -3.172829    1.583865    0.658470
      7          6           0       -1.859932   -0.754024    1.404747
      8          1           0       -1.898697   -0.018344    2.213902
      9          1           0       -0.965211   -1.362870    1.554154
     10          1           0       -2.736926   -1.404287    1.507957
     11          1           0       -4.033285    0.192844   -0.006833
     12          6           0       -1.878776   -1.144211   -1.093105
     13          1           0       -2.776687   -1.767251   -1.003616
     14          1           0       -1.009474   -1.803414   -1.033134
     15          1           0       -1.887510   -0.694078   -2.090437
     16         14           0       -0.353379    1.057686   -0.157787
     17          8           0        2.799670    1.006230   -0.052762
     18          1           0        3.212220    1.177771    0.803219
     19          8           0        1.712133   -0.874804   -1.300719
     20          1           0        2.479122   -1.462338   -1.348371
     21          1           0       -0.315896    2.071934    0.923146
     22          1           0       -0.313280    1.738705   -1.472804
 ---------------------------------------------------------------------

 SCF Done:  E(RHF) =  -1015.55342171     A.U. after    2 cycles

 The electronic state is 1-A.
 Alpha  occ. eigenvalues -- -105.29125 -76.22634 -21.11137 -21.10690 -21.01499
 Alpha  occ. eigenvalues --  -11.41384 -11.39635 -11.39039 -11.35022  -5.56435
 Alpha  occ. eigenvalues --   -2.90810  -2.20766  -2.19025  -2.18849  -1.95416
 Alpha  occ. eigenvalues --   -1.87494  -1.78559  -1.49481  -1.39301  -1.25957
 Alpha  occ. eigenvalues --   -1.25082  -1.00986  -1.00640  -0.82453  -0.73710
 Alpha  occ. eigenvalues --   -0.67668  -0.61300  -0.60812  -0.60017  -0.59966
 Alpha  occ. eigenvalues --   -0.54521  -0.54491  -0.52621  -0.51678  -0.48587
 Alpha  occ. eigenvalues --   -0.44922  -0.44127  -0.44013  -0.40543  -0.37230
 Alpha  occ. eigenvalues --   -0.33630  -0.33468  -0.29277  -0.21335  -0.12950
 Alpha virt. eigenvalues --    0.03753   0.05177   0.05563   0.05726   0.05972
 Alpha virt. eigenvalues --    0.06014   0.06149   0.06272   0.07103   0.07660
 Alpha virt. eigenvalues --    0.08670   0.09411   0.09551   0.09743   0.10778

 Mulliken charges:
               1
     1  C    1.306634
     2  P    7.384424
     3  O   -3.082521
     4  C   -4.778243
     5  H    1.304234
     6  H    1.308267
     7  C   -4.190832
     8  H    1.243030
     9  H    1.398894
    10  H    1.239222
    11  H    1.286093
    12  C   -4.449826
    13  H    1.241387
    14  H    1.429295
    15  H    1.358057
    16  Si   4.095480
    17  O   -2.761979
    18  H    0.771552
    19  O   -2.943789
    20  H    0.827918
    21  H   -2.152406
    22  H   -1.834890
 Sum of Mulliken charges =  -0.00000

 Dipole moment (field-independent basis, Debye):
    X=              0.7231    Y=             -0.0833    Z=             -1.9031  Tot=              2.0375

 Test job not archived.
 1\1\GINC-SE344\SP\RHF\Aug-CC-pVDZ\C4H13O3P1Si1\OHZDE\08-Apr-2025\0\\#t
  hf aug-cc-pvdz iop(5/13=1,5/36=2,99/5=2) pseudo=read geom=check guess
 =(read,tcheck) scf=(maxcycle=1)\\title\\0,1\C,0,-1.873723,-0.075113,0.
 018904\P,0,1.601114,-0.084775,0.100308\O,0,1.739337,-0.895154,1.327177
 \C,0,-3.133029,0.809852,-0.114036\H,0,-3.187318,1.302275,-1.089887\H,0
 ,-3.172829,1.583865,0.65847\C,0,-1.859932,-0.754024,1.404747\H,0,-1.89
 8697,-0.018344,2.213902\H,0,-0.965211,-1.36287,1.554154\H,0,-2.736926,
 -1.404287,1.507957\H,0,-4.033285,0.192844,-0.006833\C,0,-1.878776,-1.1

 Normal termination of Gaussian 16 at Tue Apr  8 23:43:19 2025.
