 Gaussian 16, Revision C.01,

 ----------------------------------------------------------------------
 #t hf aug-cc-pvdz symm=none int=(grid=ultrafine) guess=(read,tcheck) s
 table=(opt,rrhf)
 ----------------------------------------------------------------------
 -----
 title
 -----
 Symbolic Z-matrix:
 Charge =  0 Multiplicity = 1

 SCF Done:  E(RHF) =  -423.980070167     A.U. after   12 cycles
 Normal termination of Gaussian 16 at Wed Apr  9 00:34:44 2025.
 Gaussian 16:  ES64L-G16RevC.01  3-Jul-2019

 ----------------------------------------------------------------------
 #t hf aug-cc-pvdz iop(5/13=1,5/36=2,99/5=2) pseudo=read geom=check gue
 ss=(read,tcheck) scf=(maxcycle=1)
 ----------------------------------------------------------------------
 -----
 title
 -----
 Structure from the checkpoint file:  "BDE49_nonexpt_449_mol1.chk"
 Charge =  0 Multiplicity = 1

                         Standard orientation:
 ---------------------------------------------------------------------
 Center     Atomic      Atomic             Coordinates (Angstroms)
 Number     Number       Type             X           Y           Z
 ---------------------------------------------------------------------
      1          1           0       -1.807125   -1.005493    0.000069
      2          1           0       -1.774172    1.076656    0.000057
      3         16           0        0.552231   -0.089341    0.000025
      4          5           0       -1.222801    0.027379   -0.000112
      5          1           0        0.859598    1.221390    0.000026
 ---------------------------------------------------------------------

 SCF Done:  E(RHF) =  -424.342428293     A.U. after    2 cycles

 The electronic state is 1-A.
 Alpha  occ. eigenvalues --  -75.69733 -13.15435 -13.08733 -13.02470  -8.03718
 Alpha  occ. eigenvalues --   -7.63493  -1.16635  -0.78988  -0.55563  -0.46312
 Alpha  occ. eigenvalues --   -0.35748  -0.30525
 Alpha virt. eigenvalues --    0.02394   0.03006   0.04314   0.04511   0.09210
 Alpha virt. eigenvalues --    0.10671   0.11573   0.12243   0.13430   0.15445
 Alpha virt. eigenvalues --    0.16870   0.18566   0.21524   0.21948   0.25693

 Mulliken charges:
               1
     1  H   -2.613885
     2  H   -2.282400
     3  S   -2.318076
     4  B    6.299605
     5  H    0.914756
 Sum of Mulliken charges =   0.00000

 Dipole moment (field-independent basis, Debye):
    X=              1.4447    Y=             -0.8062    Z=              0.0001  Tot=              1.6544

 Test job not archived.
 1\1\GINC-SE342\SP\RHF\Aug-CC-pVDZ\B1H3S1\OHZDE\09-Apr-2025\0\\#t hf au
 g-cc-pvdz iop(5/13=1,5/36=2,99/5=2) pseudo=read geom=check guess=(read
 ,tcheck) scf=(maxcycle=1)\\title\\0,1\H,0,1.807125,-1.005493,-0.000069
 \H,0,1.774172,1.076656,-0.000057\S,0,-0.552231,-0.089341,-0.000025\B,0
 ,1.222801,0.027379,0.000112\H,0,-0.859598,1.22139,-0.000026\\Version=E
 S64L-G16RevC.01\State=1-A\HF=-424.3424283\RMSD=1.701e-01\Dipole=-0.568
 4028,-0.3171697,-0.000051\Quadrupole=-0.0975995,0.5314841,-0.4338846,-
 0.3627081,0.0005341,0.0000408\PG=C01 [X(B1H3S1)]\\@

 Normal termination of Gaussian 16 at Wed Apr  9 00:34:45 2025.
