 Gaussian 16, Revision C.01,

 ----------------------------------------------------------------------
 #t hf aug-cc-pvdz symm=none int=(grid=ultrafine) guess=(read,tcheck) s
 table=(opt,rrhf)
 ----------------------------------------------------------------------
 -----
 title
 -----
 Symbolic Z-matrix:
 Charge =  0 Multiplicity = 1

 SCF Done:  E(RHF) =  -625.232865227     A.U. after   13 cycles
 Normal termination of Gaussian 16 at Tue Apr  8 23:36:27 2025.
 Gaussian 16:  ES64L-G16RevC.01  3-Jul-2019

 ----------------------------------------------------------------------
 #t hf aug-cc-pvdz iop(5/13=1,5/36=2,99/5=2) pseudo=read geom=check gue
 ss=(read,tcheck) scf=(maxcycle=1)
 ----------------------------------------------------------------------
 -----
 title
 -----
 Structure from the checkpoint file:  "BDE49_nonexpt_1501_mol1.chk"
 Charge =  0 Multiplicity = 1

                         Standard orientation:
 ---------------------------------------------------------------------
 Center     Atomic      Atomic             Coordinates (Angstroms)
 Number     Number       Type             X           Y           Z
 ---------------------------------------------------------------------
      1         15           0       -0.618824   -0.020915   -0.583665
      2          7           0        0.885470   -0.026542    0.419471
      3          8           0        1.644467   -1.165712    0.042250
      4          8           0        1.610999    1.130250   -0.024953
      5          6           0       -1.420179    1.438866    0.212825
      6          1           0       -0.936075    2.351591   -0.134917
      7          1           0       -1.356402    1.383015    1.302346
      8          6           0       -1.454883   -1.389268    0.330325
      9          1           0       -2.490363   -1.458005   -0.013665
     10          1           0       -1.434446   -1.222509    1.409616
     11          1           0       -0.953155   -2.330677    0.103793
     12          1           0       -2.470779    1.466460   -0.088394
     13          1           0        1.808410   -1.076662   -0.913629
     14          1           0        2.123525    1.372398    0.756248
 ---------------------------------------------------------------------

 SCF Done:  E(RHF) =  -626.711048087     A.U. after    2 cycles

 The electronic state is 1-A.
 Alpha  occ. eigenvalues -- -105.18922 -21.09944 -21.09473 -15.79480 -11.37411
 Alpha  occ. eigenvalues --  -11.37136  -2.77508  -1.85595  -1.67434  -1.50162
 Alpha  occ. eigenvalues --   -1.49833  -1.47340  -1.06946  -0.98390  -0.96962
 Alpha  occ. eigenvalues --   -0.70492  -0.64430  -0.58459  -0.58033  -0.56643
 Alpha  occ. eigenvalues --   -0.55196  -0.54559  -0.51574  -0.45805  -0.35357
 Alpha  occ. eigenvalues --   -0.31255  -0.23221  -0.20496  -0.02385
 Alpha virt. eigenvalues --    0.05082   0.05555   0.05881   0.06479   0.06872
 Alpha virt. eigenvalues --    0.07315   0.07593   0.07831   0.10020   0.11520
 Alpha virt. eigenvalues --    0.11870   0.14501   0.15174   0.16119   0.16769

 Mulliken charges:
               1
     1  P    7.274726
     2  N    1.611323
     3  O   -2.320659
     4  O   -2.475236
     5  C   -6.133447
     6  H    1.312897
     7  H    0.937901
     8  C   -6.094157
     9  H    1.068686
    10  H    1.009735
    11  H    1.176161
    12  H    1.049664
    13  H    0.812552
    14  H    0.769855
 Sum of Mulliken charges =  -0.00000

 Dipole moment (field-independent basis, Debye):
    X=              1.5961    Y=              0.7009    Z=             -1.1795  Tot=              2.1047

 Test job not archived.
 1\1\GINC-SE082\SP\RHF\Aug-CC-pVDZ\C2H8N1O2P1\OHZDE\08-Apr-2025\0\\#t h
 f aug-cc-pvdz iop(5/13=1,5/36=2,99/5=2) pseudo=read geom=check guess=(
 read,tcheck) scf=(maxcycle=1)\\title\\0,1\P,0,-0.618824,-0.020915,-0.5
 83665\N,0,0.88547,-0.026542,0.419471\O,0,1.644467,-1.165712,0.04225\O,
 0,1.610999,1.13025,-0.024953\C,0,-1.420179,1.438866,0.212825\H,0,-0.93
 6075,2.351591,-0.134917\H,0,-1.356402,1.383015,1.302346\C,0,-1.454883,
 -1.389268,0.330325\H,0,-2.490363,-1.458005,-0.013665\H,0,-1.434446,-1.
 222509,1.409616\H,0,-0.953155,-2.330677,0.103793\H,0,-2.470779,1.46646

 Normal termination of Gaussian 16 at Tue Apr  8 23:36:32 2025.
