 Gaussian 16, Revision C.01,

 ----------------------------------------------------------------------
 #t hf aug-cc-pvdz symm=none int=(grid=ultrafine) guess=(read,tcheck) s
 table=(opt,rrhf)
 ----------------------------------------------------------------------
 -----
 title
 -----
 Symbolic Z-matrix:
 Charge =  0 Multiplicity = 1

 SCF Done:  E(RHF) =  -970.263910586     A.U. after   14 cycles
 Normal termination of Gaussian 16 at Tue Apr  8 23:18:49 2025.
 Gaussian 16:  ES64L-G16RevC.01  3-Jul-2019

 ----------------------------------------------------------------------
 #t hf aug-cc-pvdz iop(5/13=1,5/36=2,99/5=2) pseudo=read geom=check gue
 ss=(read,tcheck) scf=(maxcycle=1)
 ----------------------------------------------------------------------
 -----
 title
 -----
 Structure from the checkpoint file:  "BDE49_nonexpt_1058_mol1.chk"
 Charge =  0 Multiplicity = 1

                         Standard orientation:
 ---------------------------------------------------------------------
 Center     Atomic      Atomic             Coordinates (Angstroms)
 Number     Number       Type             X           Y           Z
 ---------------------------------------------------------------------
      1         17           0        1.585340   -0.433265   -0.000000
      2          8           0        0.591716    1.022850   -0.000000
      3          6           0       -0.732547    0.847244   -0.000000
      4         16           0       -1.634187   -0.485154   -0.000000
      5          1           0       -1.142233    1.861714    0.000001
 ---------------------------------------------------------------------

 SCF Done:  E(RHF) =  -971.210932108     A.U. after    2 cycles

 The electronic state is 1-A.
 Alpha  occ. eigenvalues --  -99.97158 -75.68550 -21.18111 -13.16933 -13.01668
 Alpha  occ. eigenvalues --  -12.99398 -11.51978 -10.53759  -9.73571  -9.72784
 Alpha  occ. eigenvalues --   -9.72673  -8.02865  -1.84972  -1.29621  -1.16857
 Alpha  occ. eigenvalues --   -0.86833  -0.69430  -0.62528  -0.61588  -0.54866
 Alpha  occ. eigenvalues --   -0.50107  -0.44498  -0.30373  -0.24939
 Alpha virt. eigenvalues --    0.01561   0.02949   0.06904   0.07628   0.08842
 Alpha virt. eigenvalues --    0.11963   0.12289   0.13221   0.13996   0.14599
 Alpha virt. eigenvalues --    0.16178   0.17626   0.18110   0.20065   0.23348

 Mulliken charges:
               1
     1  Cl   0.566214
     2  O   -1.967780
     3  C   -1.363471
     4  S    1.401194
     5  H    1.363843
 Sum of Mulliken charges =  -0.00000

 Dipole moment (field-independent basis, Debye):
    X=             -2.1864    Y=              0.2361    Z=              0.0000  Tot=              2.1991

 Test job not archived.
 1\1\GINC-SE127\SP\RHF\Aug-CC-pVDZ\C1H1Cl1O1S1\OHZDE\08-Apr-2025\0\\#t
 hf aug-cc-pvdz iop(5/13=1,5/36=2,99/5=2) pseudo=read geom=check guess=
 (read,tcheck) scf=(maxcycle=1)\\title\\0,1\Cl,0,-1.58534,-0.433265,0.\
 O,0,-0.591716,1.02285,0.\C,0,0.732547,0.847244,0.\S,0,1.634187,-0.4851
 54,0.\H,0,1.142233,1.861714,-0.000001\\Version=ES64L-G16RevC.01\State=
 1-A\HF=-971.2109321\RMSD=1.246e-01\Dipole=0.8601829,0.0928891,-0.00000
 05\Quadrupole=-0.3300839,2.241962,-1.9118781,-0.9382781,-0.0000008,-0.
 0000005\PG=C01 [X(C1H1Cl1O1S1)]\\@

 Normal termination of Gaussian 16 at Tue Apr  8 23:18:51 2025.
