 Gaussian 16, Revision C.01,

 ----------------------------------------------------------------------
 #t hf aug-cc-pvdz symm=none int=(grid=ultrafine) guess=(read,tcheck) s
 table=(opt,rrhf)
 ----------------------------------------------------------------------
 -----
 title
 -----
 Symbolic Z-matrix:
 Charge =  0 Multiplicity = 1

 SCF Done:  E(RHF) =  -1013.76294951     A.U. after   14 cycles
 Normal termination of Gaussian 16 at Wed Apr  9 00:17:24 2025.
 Gaussian 16:  ES64L-G16RevC.01  3-Jul-2019

 ----------------------------------------------------------------------
 #t hf aug-cc-pvdz iop(5/13=1,5/36=2,99/5=2) pseudo=read geom=check gue
 ss=(read,tcheck) scf=(maxcycle=1)
 ----------------------------------------------------------------------
 -----
 title
 -----
 Structure from the checkpoint file:  "BDE49_nonexpt_2545_mol1.chk"
 Charge =  0 Multiplicity = 1

                         Standard orientation:
 ---------------------------------------------------------------------
 Center     Atomic      Atomic             Coordinates (Angstroms)
 Number     Number       Type             X           Y           Z
 ---------------------------------------------------------------------
      1         17           0        1.860863   -0.535431   -0.615537
      2         16           0        0.668289   -0.142459    1.050903
      3          6           0       -0.763862    0.743870    0.307271
      4          6           0       -1.599575   -0.114795   -0.652671
      5          6           0       -0.365385    2.092975   -0.291345
      6          1           0        0.265159    1.955169   -1.172673
      7          1           0        0.184086    2.700216    0.429486
      8          1           0       -1.259591    2.642872   -0.600516
      9          1           0       -1.339415    0.911941    1.230738
     10          6           0       -2.215860   -1.371154   -0.036483
     11          1           0       -0.978157   -0.382851   -1.513228
     12          1           0       -2.396956    0.529066   -1.042810
     13          1           0       -1.446702   -2.057875    0.321972
     14          1           0       -2.823935   -1.900949   -0.773832
     15          1           0       -2.863686   -1.121284    0.809910
 ---------------------------------------------------------------------

 SCF Done:  E(RHF) =  -1015.05616553     A.U. after    2 cycles

 The electronic state is 1-A.
 Alpha  occ. eigenvalues --  -99.89843 -75.73040 -13.15878 -13.10718 -13.09633
 Alpha  occ. eigenvalues --  -11.45285 -11.40952 -11.38319 -11.36100 -10.46957
 Alpha  occ. eigenvalues --   -9.66782  -9.66221  -9.66085  -8.06754  -1.34703
 Alpha  occ. eigenvalues --   -1.25728  -1.10429  -1.03628  -0.92474  -0.82348
 Alpha  occ. eigenvalues --   -0.65356  -0.61385  -0.60275  -0.58096  -0.55001
 Alpha  occ. eigenvalues --   -0.54555  -0.53577  -0.51504  -0.49452  -0.47230
 Alpha  occ. eigenvalues --   -0.45173  -0.37004  -0.24810
 Alpha virt. eigenvalues --    0.03420   0.04381   0.04771   0.05435   0.05929
 Alpha virt. eigenvalues --    0.06590   0.06788   0.06997   0.07308   0.09014
 Alpha virt. eigenvalues --    0.09974   0.12051   0.12893   0.14008   0.14246

 Mulliken charges:
               1
     1  Cl  -0.462081
     2  S    0.463910
     3  C   -1.164034
     4  C   -2.941458
     5  C   -4.155501
     6  H    1.253142
     7  H    1.178579
     8  H    1.269300
     9  H    1.843847
    10  C   -3.946211
    11  H    1.392908
    12  H    1.400897
    13  H    1.537357
    14  H    1.097870
    15  H    1.231477
 Sum of Mulliken charges =  -0.00000

 Dipole moment (field-independent basis, Debye):
    X=             -2.4132    Y=              0.8301    Z=              2.4633  Tot=              3.5468

 Test job not archived.
 1\1\GINC-SE094\SP\RHF\Aug-CC-pVDZ\C4H9Cl1S1\OHZDE\09-Apr-2025\0\\#t hf
  aug-cc-pvdz iop(5/13=1,5/36=2,99/5=2) pseudo=read geom=check guess=(r
 ead,tcheck) scf=(maxcycle=1)\\title\\0,1\Cl,0,1.860863,-0.535431,-0.61
 5537\S,0,0.668289,-0.142459,1.050903\C,0,-0.763862,0.74387,0.307271\C,
 0,-1.599575,-0.114795,-0.652671\C,0,-0.365385,2.092975,-0.291345\H,0,0
 .265159,1.955169,-1.172673\H,0,0.184086,2.700216,0.429486\H,0,-1.25959
 1,2.642872,-0.600516\H,0,-1.339415,0.911941,1.230738\C,0,-2.21586,-1.3
 71154,-0.036483\H,0,-0.978157,-0.382851,-1.513228\H,0,-2.396956,0.5290

 Normal termination of Gaussian 16 at Wed Apr  9 00:17:29 2025.
