 Gaussian 16, Revision C.01,

 ----------------------------------------------------------------------
 #t hf aug-cc-pvdz symm=none int=(grid=ultrafine) guess=(read,tcheck) s
 table=(opt,rrhf)
 ----------------------------------------------------------------------
 -----
 title
 -----
 Symbolic Z-matrix:
 Charge =  0 Multiplicity = 1

 SCF Done:  E(RHF) =  -175.665143368     A.U. after   12 cycles
 Normal termination of Gaussian 16 at Tue Apr  8 22:45:27 2025.
 Gaussian 16:  ES64L-G16RevC.01  3-Jul-2019

 ----------------------------------------------------------------------
 #t hf aug-cc-pvdz iop(5/13=1,5/36=2,99/5=2) pseudo=read geom=check gue
 ss=(read,tcheck) scf=(maxcycle=1)
 ----------------------------------------------------------------------
 -----
 title
 -----
 Structure from the checkpoint file:  "BDE49_expt_1507_mol1.chk"
 Charge =  0 Multiplicity = 1

                         Standard orientation:
 ---------------------------------------------------------------------
 Center     Atomic      Atomic             Coordinates (Angstroms)
 Number     Number       Type             X           Y           Z
 ---------------------------------------------------------------------
      1          6           0        0.000000    0.000000   -0.095222
      2          9           0        0.000000    0.000000    1.183547
      3          6           0        0.000000    0.000000   -1.288535
      4          1           0        0.000000    0.000000   -2.349376
 ---------------------------------------------------------------------

 SCF Done:  E(RHF) =  -176.348181855     A.U. after    2 cycles

 The electronic state is 1-SG.
 Alpha  occ. eigenvalues --  -29.36632 -11.48286 -11.41605  -1.18853  -0.93420
 Alpha  occ. eigenvalues --   -0.71182  -0.53008  -0.53008  -0.45717  -0.28252
 Alpha  occ. eigenvalues --   -0.28252
 Alpha virt. eigenvalues --    0.03501   0.09620   0.11863   0.11975   0.11975
 Alpha virt. eigenvalues --    0.12970   0.12970   0.15578   0.22542   0.24021
 Alpha virt. eigenvalues --    0.24021   0.30630   0.33150   0.34021   0.34021

 Mulliken charges:
               1
     1  C   -1.706663
     2  F    0.569216
     3  C    0.387224
     4  H    0.750224
 Sum of Mulliken charges =  -0.00000

 Dipole moment (field-independent basis, Debye):
    X=              0.0000    Y=             -0.0000    Z=              2.6673  Tot=              2.6673

 Test job not archived.
 1\1\GINC-SE165\SP\RHF\Aug-CC-pVDZ\C2H1F1\OHZDE\08-Apr-2025\0\\#t hf au
 g-cc-pvdz iop(5/13=1,5/36=2,99/5=2) pseudo=read geom=check guess=(read
 ,tcheck) scf=(maxcycle=1)\\title\\0,1\C,0,0.,0.,-0.095222\F,0,0.,0.,1.
 183547\C,0,0.,0.,-1.288535\H,0,0.,0.,-2.349376\\Version=ES64L-G16RevC.
 01\State=1-SG\HF=-176.3481819\RMSD=5.711e-01\Dipole=0.,0.,1.0494029\Qu
 adrupole=-1.7192502,-1.7192502,3.4385003,0.,0.,0.\PG=C*V [C*(H1C1C1F1)
 ]\\@

 Normal termination of Gaussian 16 at Tue Apr  8 22:45:29 2025.
