 Gaussian 16, Revision C.01,

 ----------------------------------------------------------------------
 #t hf aug-cc-pvdz symm=none int=(grid=ultrafine) guess=(read,tcheck) s
 table=opt
 ----------------------------------------------------------------------
 -----
 title
 -----
 Symbolic Z-matrix:
 Charge =  0 Multiplicity = 2

 SCF Done:  E(UHF) =  -453.783289702     A.U. after   23 cycles
 Normal termination of Gaussian 16 at Tue Apr  8 23:04:40 2025.
 Gaussian 16:  ES64L-G16RevC.01  3-Jul-2019

 ----------------------------------------------------------------------
 #t hf aug-cc-pvdz iop(5/13=1,5/36=2,99/5=2) pseudo=read geom=check gue
 ss=(read,tcheck) scf=(maxcycle=1)
 ----------------------------------------------------------------------
 -----
 title
 -----
 Structure from the checkpoint file:  "BDE49_expt_268_mol2.chk"
 Charge =  0 Multiplicity = 2

                         Standard orientation:
 ---------------------------------------------------------------------
 Center     Atomic      Atomic             Coordinates (Angstroms)
 Number     Number       Type             X           Y           Z
 ---------------------------------------------------------------------
      1          6           0        2.834306   -0.335276    0.130811
      2          6           0        1.526756    0.256680   -0.013553
      3          1           0        3.588614    0.240269    0.647078
      4          1           0        3.052338   -1.321801   -0.252586
      5          8           0        1.168216    1.337721    0.374717
      6          8           0        0.703031   -0.641309   -0.694966
      7          6           0       -1.425877   -0.237654    0.171606
      8          8           0       -1.110538   -0.786718    1.179886
      9          6           0       -2.739994    0.421342   -0.156417
     10          1           0       -2.687008    1.464905    0.164011
     11          1           0       -3.528595   -0.079797    0.402760
     12          1           0       -2.950130    0.398024   -1.225135
     13          8           0       -0.591505   -0.076213   -0.925988
 ---------------------------------------------------------------------

 SCF Done:  E(UHF) =  -455.675894352     A.U. after    2 cycles

 The electronic state is 2-A.
 Alpha  occ. eigenvalues --  -21.14682 -21.14293 -21.08845 -21.07054 -11.54116
 Alpha  occ. eigenvalues --  -11.53431 -11.43699 -11.40912  -2.03036  -1.76017
 Alpha  occ. eigenvalues --   -1.71747  -1.50888  -1.13246  -1.10520  -0.82523
 Alpha  occ. eigenvalues --   -0.74432  -0.68675  -0.66988  -0.64881  -0.61524
 Alpha  occ. eigenvalues --   -0.61326  -0.56970  -0.54297  -0.51950  -0.48600
 Alpha  occ. eigenvalues --   -0.44257  -0.37242  -0.36812  -0.34777  -0.32176
 Alpha  occ. eigenvalues --   -0.30697
 Alpha virt. eigenvalues --    0.03190   0.05036   0.05191   0.06204   0.07134
 Alpha virt. eigenvalues --    0.08199   0.11034   0.11384   0.12239   0.12986
 Alpha virt. eigenvalues --    0.13276   0.13670   0.13856   0.14540   0.16666

  Beta  occ. eigenvalues --  -21.14703 -21.14301 -21.07501 -21.07056 -11.54115
  Beta  occ. eigenvalues --  -11.54027 -11.41751 -11.40908  -2.03072  -1.74932
  Beta  occ. eigenvalues --   -1.70514  -1.50608  -1.11952  -1.04714  -0.81908
  Beta  occ. eigenvalues --   -0.74073  -0.68326  -0.66873  -0.64002  -0.61391
  Beta  occ. eigenvalues --   -0.60985  -0.54773  -0.53652  -0.51430  -0.48172
  Beta  occ. eigenvalues --   -0.43792  -0.35344  -0.34102  -0.31063  -0.30342
  Beta virt. eigenvalues --    0.03278   0.04898   0.05140   0.05307   0.06343
  Beta virt. eigenvalues --    0.07142   0.08214   0.11081   0.12236   0.12800
  Beta virt. eigenvalues --    0.13183   0.13449   0.13928   0.14220   0.14830

 Mulliken charges and spin densities:
               1          2
     1  C   -3.769260   1.348069
     2  C    5.607768  -0.581334
     3  H    1.485388  -0.057362
     4  H    1.622153  -0.062770
     5  O   -3.066774   0.365363
     6  O   -1.868205  -0.003391
     7  C    5.044236   0.005526
     8  O   -3.059448   0.003410
     9  C   -3.966234  -0.002654
    10  H    1.246631   0.000168
    11  H    1.155114  -0.000074
    12  H    1.360475  -0.000253
    13  O   -1.791844  -0.014698
 Sum of Mulliken charges =   0.00000   1.00000

 Dipole moment (field-independent basis, Debye):
    X=              0.2367    Y=             -0.2568    Z=             -0.8327  Tot=              0.9030
                          Isotropic Fermi Contact Couplings
        Atom                 a.u.       MegaHertz       Gauss      10(-4) cm-1
     1  C(13)              0.11195     125.85019      44.90648      41.97910
     2  C(13)             -0.06165     -69.30703     -24.73047     -23.11834
     3  H(1)              -0.01686     -75.36854     -26.89337     -25.14024
     4  H(1)              -0.01693     -75.68161     -27.00508     -25.24467
     5  O(17)              0.07557     -45.81092     -16.34648     -15.28088
     6  O(17)             -0.01367       8.28718       2.95707       2.76431
     7  C(13)              0.00065       0.73401       0.26191       0.24484
     8  O(17)              0.00044      -0.26499      -0.09455      -0.08839

 Normal termination of Gaussian 16 at Tue Apr  8 23:04:45 2025.
