 Gaussian 16, Revision C.01,

 ----------------------------------------------------------------------
 #t hf aug-cc-pvdz symm=none int=(grid=ultrafine) guess=(read,tcheck) s
 table=(opt,rrhf)
 ----------------------------------------------------------------------
 -----
 title
 -----
 Symbolic Z-matrix:
 Charge =  0 Multiplicity = 1

 SCF Done:  E(RHF) =  -683.106609616     A.U. after   13 cycles
 Normal termination of Gaussian 16 at Tue Apr  8 23:29:25 2025.
 Gaussian 16:  ES64L-G16RevC.01  3-Jul-2019

 ----------------------------------------------------------------------
 #t hf aug-cc-pvdz iop(5/13=1,5/36=2,99/5=2) pseudo=read geom=check gue
 ss=(read,tcheck) scf=(maxcycle=1)
 ----------------------------------------------------------------------
 -----
 title
 -----
 Structure from the checkpoint file:  "BDE49_nonexpt_1334_mol1.chk"
 Charge =  0 Multiplicity = 1

                         Standard orientation:
 ---------------------------------------------------------------------
 Center     Atomic      Atomic             Coordinates (Angstroms)
 Number     Number       Type             X           Y           Z
 ---------------------------------------------------------------------
      1         15           0        0.642820   -0.001600    0.103116
      2          8           0        0.650860   -0.284824    1.546818
      3          8           0        1.311648    1.371501   -0.384965
      4          6           0       -0.962348    0.107715   -0.651959
      5          6           0       -2.095051    0.714855    0.153744
      6          6           0       -2.072536   -0.762398   -0.090234
      7          1           0       -2.807204    1.324097   -0.388716
      8          1           0       -1.863206    1.056857    1.154369
      9          1           0       -0.952523    0.284068   -1.721447
     10          1           0       -1.829179   -1.399145    0.751145
     11          1           0       -2.769032   -1.185618   -0.803356
     12          1           0        2.200212    1.500294   -0.030753
     13          8           0        1.482256   -1.088880   -0.753380
     14          1           0        1.600117   -1.899968   -0.245078
 ---------------------------------------------------------------------

 SCF Done:  E(RHF) =  -684.829495814     A.U. after    2 cycles

 The electronic state is 1-A.
 Alpha  occ. eigenvalues -- -105.29188 -21.11052 -21.10707 -21.01397 -11.42946
 Alpha  occ. eigenvalues --  -11.42098 -11.37734  -2.91925  -1.96638  -1.88546
 Alpha  occ. eigenvalues --   -1.80342  -1.55181  -1.39423  -1.29091  -1.24859
 Alpha  occ. eigenvalues --   -0.87479  -0.84890  -0.71047  -0.67614  -0.60568
 Alpha  occ. eigenvalues --   -0.60023  -0.53545  -0.52365  -0.45449  -0.43574
 Alpha  occ. eigenvalues --   -0.43219  -0.38794  -0.34622  -0.33540  -0.29108
 Alpha  occ. eigenvalues --   -0.24329  -0.14830
 Alpha virt. eigenvalues --    0.03790   0.05481   0.05592   0.06039   0.06108
 Alpha virt. eigenvalues --    0.07109   0.07226   0.10514   0.11082   0.12901
 Alpha virt. eigenvalues --    0.12966   0.13780   0.14406   0.14887   0.15338

 Mulliken charges:
               1
     1  P   10.079560
     2  O   -2.958459
     3  O   -2.916761
     4  C   -3.759134
     5  C   -2.532798
     6  C   -2.493822
     7  H    1.189794
     8  H    1.197704
     9  H    0.993771
    10  H    1.207093
    11  H    1.178156
    12  H    0.933512
    13  O   -2.880320
    14  H    0.761703
 Sum of Mulliken charges =   0.00000

 Dipole moment (field-independent basis, Debye):
    X=             -0.3109    Y=              0.3647    Z=             -2.9347  Tot=              2.9736

 Test job not archived.
 1\1\GINC-SE455\SP\RHF\Aug-CC-pVDZ\C3H7O3P1\OHZDE\08-Apr-2025\0\\#t hf
 aug-cc-pvdz iop(5/13=1,5/36=2,99/5=2) pseudo=read geom=check guess=(re
 ad,tcheck) scf=(maxcycle=1)\\title\\0,1\P,0,0.64282,-0.0016,0.103116\O
 ,0,0.65086,-0.284824,1.546818\O,0,1.311648,1.371501,-0.384965\C,0,-0.9
 62348,0.107715,-0.651959\C,0,-2.095051,0.714855,0.153744\C,0,-2.072536
 ,-0.762398,-0.090234\H,0,-2.807204,1.324097,-0.388716\H,0,-1.863206,1.
 056857,1.154369\H,0,-0.952523,0.284068,-1.721447\H,0,-1.829179,-1.3991
 45,0.751145\H,0,-2.769032,-1.185618,-0.803356\H,0,2.200212,1.500294,-0

 Normal termination of Gaussian 16 at Tue Apr  8 23:29:30 2025.
