 Gaussian 16, Revision C.01,

 ----------------------------------------------------------------------
 #t hf aug-cc-pvdz symm=none int=(grid=ultrafine) guess=(read,tcheck) s
 table=(opt,rrhf)
 ----------------------------------------------------------------------
 -----
 title
 -----
 Symbolic Z-matrix:
 Charge =  0 Multiplicity = 1

 SCF Done:  E(RHF) =  -1195.10262828     A.U. after   13 cycles
 Normal termination of Gaussian 16 at Wed Apr  9 00:32:24 2025.
 Gaussian 16:  ES64L-G16RevC.01  3-Jul-2019

 ----------------------------------------------------------------------
 #t hf aug-cc-pvdz iop(5/13=1,5/36=2,99/5=2) pseudo=read geom=check gue
 ss=(read,tcheck) scf=(maxcycle=1)
 ----------------------------------------------------------------------
 -----
 title
 -----
 Structure from the checkpoint file:  "BDE49_nonexpt_37_mol1.chk"
 Charge =  0 Multiplicity = 1

                         Standard orientation:
 ---------------------------------------------------------------------
 Center     Atomic      Atomic             Coordinates (Angstroms)
 Number     Number       Type             X           Y           Z
 ---------------------------------------------------------------------
      1          5           0       -0.753655    0.010858    0.487295
      2          5           0        0.753655   -0.010858   -0.487295
      3          6           0       -1.338466   -1.378423    0.154791
      4          8           0       -1.712472   -2.402014   -0.135611
      5         17           0       -2.000581    1.291661   -0.062518
      6          6           0        1.338466    1.378423   -0.154792
      7          8           0        1.712470    2.402014    0.135611
      8         17           0        2.000582   -1.291661    0.062518
      9          1           0        0.542675   -0.012367   -1.667119
     10          1           0       -0.542675    0.012366    1.667119
 ---------------------------------------------------------------------

 SCF Done:  E(RHF) =  -1196.76015068     A.U. after    2 cycles

 The electronic state is 1-A.
 Alpha  occ. eigenvalues --  -99.87373 -99.87373 -21.24427 -21.24422 -11.60423
 Alpha  occ. eigenvalues --  -11.60303 -10.44506 -10.44503  -9.64497  -9.64476
 Alpha  occ. eigenvalues --   -9.64106  -9.64058  -9.64036  -9.63956  -7.63884
 Alpha  occ. eigenvalues --   -7.63536  -1.87233  -1.87013  -1.33297  -1.30294
 Alpha  occ. eigenvalues --   -1.07420  -0.96946  -0.74592  -0.72716  -0.64961
 Alpha  occ. eigenvalues --   -0.63458  -0.63009  -0.61204  -0.58109  -0.57412
 Alpha  occ. eigenvalues --   -0.55161  -0.52568  -0.51124  -0.50842  -0.47217
 Alpha  occ. eigenvalues --   -0.46782  -0.36230
 Alpha virt. eigenvalues --    0.02701   0.03006   0.03600   0.04290   0.05836
 Alpha virt. eigenvalues --    0.07549   0.07806   0.07991   0.08713   0.09622
 Alpha virt. eigenvalues --    0.10067   0.11221   0.11761   0.13056   0.13280

 Mulliken charges:
               1
     1  B    6.378455
     2  B    6.378447
     3  C   -0.170794
     4  O   -2.264104
     5  Cl  -1.458578
     6  C   -0.170799
     7  O   -2.264102
     8  Cl  -1.458577
     9  H   -2.484971
    10  H   -2.484976
 Sum of Mulliken charges =  -0.00000

 Dipole moment (field-independent basis, Debye):
    X=             -0.0000    Y=              0.0000    Z=              0.0000  Tot=              0.0000

 Test job not archived.
 1\1\GINC-SE460\SP\RHF\Aug-CC-pVDZ\C2H2B2Cl2O2\OHZDE\09-Apr-2025\0\\#t
 hf aug-cc-pvdz iop(5/13=1,5/36=2,99/5=2) pseudo=read geom=check guess=
 (read,tcheck) scf=(maxcycle=1)\\title\\0,1\B,0,0.753655,0.010857,-0.48
 7295\B,0,-0.753655,-0.010857,0.487295\C,0,1.338464,-1.378425,-0.154791
 \O,0,1.712468,-2.402016,0.135611\Cl,0,2.000583,1.291658,0.062518\C,0,-
 1.338464,1.378425,0.154792\O,0,-1.712467,2.402017,-0.135611\Cl,0,-2.00
 0584,-1.291658,-0.062518\H,0,-0.542675,-0.012366,1.667119\H,0,0.542675
 ,0.012365,-1.667119\\Version=ES64L-G16RevC.01\State=1-A\HF=-1196.76015

 Normal termination of Gaussian 16 at Wed Apr  9 00:32:28 2025.
