 Gaussian 16, Revision C.01,

 ----------------------------------------------------------------------
 #t hf aug-cc-pvdz symm=none int=(grid=ultrafine) guess=(read,tcheck) s
 table=(opt,rrhf)
 ----------------------------------------------------------------------
 -----
 title
 -----
 Symbolic Z-matrix:
 Charge =  0 Multiplicity = 1

 SCF Done:  E(RHF) =  -761.574504716     A.U. after   17 cycles
 Normal termination of Gaussian 16 at Tue Apr  8 22:57:34 2025.
 Gaussian 16:  ES64L-G16RevC.01  3-Jul-2019

 ----------------------------------------------------------------------
 #t hf aug-cc-pvdz iop(5/13=1,5/36=2,99/5=2) pseudo=read geom=check gue
 ss=(read,tcheck) scf=(maxcycle=1)
 ----------------------------------------------------------------------
 -----
 title
 -----
 Structure from the checkpoint file:  "BDE49_expt_1821_mol1.chk"
 Charge =  0 Multiplicity = 1

                         Standard orientation:
 ---------------------------------------------------------------------
 Center     Atomic      Atomic             Coordinates (Angstroms)
 Number     Number       Type             X           Y           Z
 ---------------------------------------------------------------------
      1          7           0       -2.689058    1.385728   -0.262479
      2          8           0       -2.291258    1.666721    0.811226
      3         16           0       -2.458754   -0.375899   -0.815274
      4          6           0       -1.623163   -1.134285    0.610309
      5          6           0       -0.131935   -1.429535    0.399202
      6          1           0       -2.179429   -2.043245    0.847401
      7          1           0       -1.768049   -0.425661    1.435555
      8          6           0        0.748018   -0.181706    0.275644
      9          1           0       -0.006417   -2.061386   -0.486959
     10          1           0        0.205891   -2.028764    1.254046
     11          6           0        2.228051   -0.508927    0.049541
     12          1           0        0.642205    0.425210    1.182966
     13          1           0        0.384473    0.437385   -0.552785
     14          6           0        3.117136    0.734291   -0.068542
     15          1           0        2.330643   -1.113354   -0.861006
     16          1           0        2.593134   -1.136239    0.873294
     17          6           0        4.594221    0.401420   -0.296664
     18          1           0        3.014753    1.338136    0.841118
     19          1           0        2.752231    1.360734   -0.891237
     20          1           0        4.997342   -0.195749    0.527303
     21          1           0        5.200005    1.308068   -0.376236
     22          1           0        4.732789   -0.172161   -1.218481
 ---------------------------------------------------------------------

 SCF Done:  E(RHF) =  -763.570946178     A.U. after    2 cycles

 The electronic state is 1-A.
 Alpha  occ. eigenvalues --  -75.71011 -21.15623 -15.91136 -13.13870 -13.11407
 Alpha  occ. eigenvalues --  -13.06539 -11.45116 -11.42485 -11.41157 -11.38733
 Alpha  occ. eigenvalues --  -11.36668 -11.34442  -8.04985  -1.89757  -1.29402
 Alpha  occ. eigenvalues --   -1.21517  -1.13474  -1.04444  -0.95782  -0.88572
 Alpha  occ. eigenvalues --   -0.83061  -0.81736  -0.67546  -0.65420  -0.61755
 Alpha  occ. eigenvalues --   -0.60181  -0.58385  -0.57970  -0.56428  -0.54090
 Alpha  occ. eigenvalues --   -0.53146  -0.52459  -0.48156  -0.47044  -0.45429
 Alpha  occ. eigenvalues --   -0.44858  -0.40460  -0.38665  -0.25770  -0.25393
 Alpha virt. eigenvalues --    0.03783   0.04339   0.05147   0.05456   0.05699
 Alpha virt. eigenvalues --    0.05995   0.06295   0.06701   0.07766   0.08094
 Alpha virt. eigenvalues --    0.08427   0.08804   0.09642   0.10659   0.11475

 Mulliken charges:
               1
     1  N    1.106749
     2  O   -1.959671
     3  S    1.266014
     4  C   -4.694049
     5  C   -2.526271
     6  H    1.222889
     7  H    1.803222
     8  C   -2.790148
     9  H    1.444449
    10  H    1.419782
    11  C   -1.913284
    12  H    1.629209
    13  H    1.705824
    14  C   -3.090865
    15  H    1.596765
    16  H    1.553253
    17  C   -4.435373
    18  H    1.462337
    19  H    1.454229
    20  H    1.332618
    21  H    1.077421
    22  H    1.334898
 Sum of Mulliken charges =  -0.00000

 Dipole moment (field-independent basis, Debye):
    X=              0.7271    Y=             -1.6340    Z=              0.1688  Tot=              1.7964

 Test job not archived.
 1\1\GINC-SE165\SP\RHF\Aug-CC-pVDZ\C6H13N1O1S1\OHZDE\08-Apr-2025\0\\#t
 hf aug-cc-pvdz iop(5/13=1,5/36=2,99/5=2) pseudo=read geom=check guess=
 (read,tcheck) scf=(maxcycle=1)\\title\\0,1\N,0,-2.689058,1.385728,-0.2
 62479\O,0,-2.291258,1.666721,0.811226\S,0,-2.458754,-0.375899,-0.81527
 4\C,0,-1.623163,-1.134285,0.610309\C,0,-0.131935,-1.429535,0.399202\H,
 0,-2.179429,-2.043245,0.847401\H,0,-1.768049,-0.425661,1.435555\C,0,0.
 748018,-0.181706,0.275644\H,0,-0.006417,-2.061386,-0.486959\H,0,0.2058
 91,-2.028764,1.254046\C,0,2.228051,-0.508927,0.049541\H,0,0.642205,0.4

 Normal termination of Gaussian 16 at Tue Apr  8 22:57:47 2025.
