 Gaussian 16, Revision C.01,

 ----------------------------------------------------------------------
 #t hf aug-cc-pvdz symm=none int=(grid=ultrafine) guess=(read,tcheck) s
 table=opt
 ----------------------------------------------------------------------
 -----
 title
 -----
 Symbolic Z-matrix:
 Charge =  0 Multiplicity = 2

 SCF Done:  E(UHF) =  -917.417912076     A.U. after   20 cycles
 Normal termination of Gaussian 16 at Tue Apr  8 23:47:20 2025.
 Gaussian 16:  ES64L-G16RevC.01  3-Jul-2019

 ----------------------------------------------------------------------
 #t hf aug-cc-pvdz iop(5/13=1,5/36=2,99/5=2) pseudo=read geom=check gue
 ss=(read,tcheck) scf=(maxcycle=1)
 ----------------------------------------------------------------------
 -----
 title
 -----
 Structure from the checkpoint file:  "BDE49_nonexpt_1782_mol2.chk"
 Charge =  0 Multiplicity = 2

                         Standard orientation:
 ---------------------------------------------------------------------
 Center     Atomic      Atomic             Coordinates (Angstroms)
 Number     Number       Type             X           Y           Z
 ---------------------------------------------------------------------
      1         14           0        0.329945   -0.893352   -0.264888
      2          6           0       -1.328552    0.045792    0.007976
      3         17           0        1.982942    0.348484    0.122734
      4          7           0       -1.367517    1.396012   -0.117067
      5          1           0       -0.521367    1.938173   -0.186625
      6          1           0       -2.243690    1.874546    0.042103
      7          8           0       -2.300069   -0.657161    0.230328
      8          1           0        0.380293   -2.019573    0.695476
 ---------------------------------------------------------------------

 SCF Done:  E(UHF) =  -918.510573395     A.U. after    2 cycles

 The electronic state is 2-A.
 Alpha  occ. eigenvalues --  -99.90192 -76.29087 -21.04972 -15.79615 -11.48128
 Alpha  occ. eigenvalues --  -10.47521  -9.67417  -9.66803  -9.66766  -5.62485
 Alpha  occ. eigenvalues --   -2.25578  -2.24318  -2.22961  -1.71685  -1.35721
 Alpha  occ. eigenvalues --   -1.30377  -0.88446  -0.77637  -0.71491  -0.60888
 Alpha  occ. eigenvalues --   -0.56899  -0.56134  -0.54735  -0.52899  -0.48441
 Alpha  occ. eigenvalues --   -0.35832  -0.33055  -0.27017
 Alpha virt. eigenvalues --    0.03479   0.05143   0.05218   0.06109   0.07145
 Alpha virt. eigenvalues --    0.07610   0.09709   0.12136   0.12391   0.13170
 Alpha virt. eigenvalues --    0.13675   0.14201   0.15181   0.15840   0.16121

  Beta  occ. eigenvalues --  -99.90103 -76.28509 -21.04720 -15.79623 -11.48061
  Beta  occ. eigenvalues --  -10.47424  -9.67292  -9.66733  -9.66492  -5.61557
  Beta  occ. eigenvalues --   -2.24900  -2.23690  -2.19418  -1.71211  -1.35612
  Beta  occ. eigenvalues --   -1.29658  -0.86686  -0.75986  -0.70384  -0.60259
  Beta  occ. eigenvalues --   -0.56033  -0.55527  -0.53894  -0.52082  -0.47775
  Beta  occ. eigenvalues --   -0.33932  -0.29311
  Beta virt. eigenvalues --    0.01723   0.03716   0.05406   0.05619   0.06715
  Beta virt. eigenvalues --    0.07343   0.07822   0.10602   0.12508   0.13128
  Beta virt. eigenvalues --    0.14299   0.14403   0.15025   0.15778   0.16519

 Mulliken charges and spin densities:
               1          2
     1  Si   3.490352   0.840680
     2  C    2.692227  -0.067217
     3  Cl  -0.917769   0.059654
     4  N   -2.627666   0.008138
     5  H    0.767543   0.004496
     6  H    0.715033  -0.002567
     7  O   -2.494423   0.077502
     8  H   -1.625297   0.079313
 Sum of Mulliken charges =  -0.00000   1.00000

 Dipole moment (field-independent basis, Debye):
    X=             -0.7872    Y=              1.1164    Z=             -0.6537  Tot=              1.5144
                          Isotropic Fermi Contact Couplings
        Atom                 a.u.       MegaHertz       Gauss      10(-4) cm-1
     1  Si(29)             0.59160    -525.77057    -187.60801    -175.37818
     2  C(13)              0.02070      23.26853       8.30279       7.76154
     3  Cl(35)             0.05867      25.72467       9.17920       8.58083
     4  N(14)              0.00026       0.08311       0.02966       0.02772
     5  H(1)              -0.00002      -0.09045      -0.03227      -0.03017
     6  H(1)               0.00046       2.05738       0.73412       0.68627
     7  O(17)              0.01466      -8.88887      -3.17177      -2.96501
     8  H(1)               0.01397      62.43134      22.27706      20.82485

 Normal termination of Gaussian 16 at Tue Apr  8 23:47:23 2025.
