 Gaussian 16, Revision C.01,

 ----------------------------------------------------------------------
 #t hf aug-cc-pvdz symm=none int=(grid=ultrafine) guess=(read,tcheck) s
 table=(opt,rrhf)
 ----------------------------------------------------------------------
 -----
 title
 -----
 Symbolic Z-matrix:
 Charge =  0 Multiplicity = 1

 SCF Done:  E(RHF) =  -330.920396101     A.U. after   14 cycles
 Normal termination of Gaussian 16 at Tue Apr  8 23:21:13 2025.
 Gaussian 16:  ES64L-G16RevC.01  3-Jul-2019

 ----------------------------------------------------------------------
 #t hf aug-cc-pvdz iop(5/13=1,5/36=2,99/5=2) pseudo=read geom=check gue
 ss=(read,tcheck) scf=(maxcycle=1)
 ----------------------------------------------------------------------
 -----
 title
 -----
 Structure from the checkpoint file:  "BDE49_nonexpt_1123_mol1.chk"
 Charge =  0 Multiplicity = 1

                         Standard orientation:
 ---------------------------------------------------------------------
 Center     Atomic      Atomic             Coordinates (Angstroms)
 Number     Number       Type             X           Y           Z
 ---------------------------------------------------------------------
      1          9           0        1.861672   -1.139195    0.145262
      2          8           0        0.593524   -0.772396   -0.457256
      3          6           0        0.119849    0.367221    0.272863
      4          6           0       -1.320731    0.529111   -0.232772
      5          6           0        0.999399    1.585737    0.030180
      6          1           0        0.983988    1.865582   -1.026270
      7          1           0        2.029097    1.371240    0.317634
      8          1           0        0.645867    2.433472    0.623158
      9          1           0        0.109390    0.098234    1.335455
     10          6           0       -2.261755   -0.609254    0.169276
     11          1           0       -1.293990    0.639121   -1.322185
     12          1           0       -1.685188    1.481599    0.165466
     13          1           0       -1.917138   -1.564965   -0.228483
     14          1           0       -3.270753   -0.427611   -0.208839
     15          1           0       -2.325083   -0.701630    1.257467
 ---------------------------------------------------------------------

 SCF Done:  E(RHF) =  -332.369075135     A.U. after    2 cycles

 The electronic state is 1-A.
 Alpha  occ. eigenvalues --  -29.27329 -21.13858 -11.46688 -11.41904 -11.38628
 Alpha  occ. eigenvalues --  -11.36351  -1.79360  -1.21829  -1.08759  -0.93993
 Alpha  occ. eigenvalues --   -0.84214  -0.72533  -0.63795  -0.61490  -0.59169
 Alpha  occ. eigenvalues --   -0.57747  -0.54124  -0.50015  -0.49219  -0.47648
 Alpha  occ. eigenvalues --   -0.45549  -0.42022  -0.33656  -0.24482  -0.20689
 Alpha virt. eigenvalues --    0.04033   0.04896   0.05474   0.05820   0.05901
 Alpha virt. eigenvalues --    0.06173   0.06733   0.08194   0.09070   0.10705
 Alpha virt. eigenvalues --    0.13098   0.13847   0.14417   0.15262   0.16094

 Mulliken charges:
               1
     1  F   -0.318709
     2  O   -1.515231
     3  C    0.446321
     4  C   -2.874578
     5  C   -3.961941
     6  H    1.168743
     7  H    1.167707
     8  H    1.226618
     9  H    1.817060
    10  C   -3.757258
    11  H    1.410591
    12  H    1.481084
    13  H    1.347836
    14  H    1.094991
    15  H    1.266765
 Sum of Mulliken charges =  -0.00000

 Dipole moment (field-independent basis, Debye):
    X=              0.2150    Y=              0.3779    Z=              0.6236  Tot=              0.7603

 Test job not archived.
 1\1\GINC-SE048\SP\RHF\Aug-CC-pVDZ\C4H9F1O1\OHZDE\08-Apr-2025\0\\#t hf
 aug-cc-pvdz iop(5/13=1,5/36=2,99/5=2) pseudo=read geom=check guess=(re
 ad,tcheck) scf=(maxcycle=1)\\title\\0,1\F,0,1.861672,-1.139195,0.14526
 2\O,0,0.593524,-0.772396,-0.457256\C,0,0.119849,0.367221,0.272863\C,0,
 -1.320731,0.529111,-0.232772\C,0,0.999399,1.585737,0.03018\H,0,0.98398
 8,1.865582,-1.02627\H,0,2.029097,1.37124,0.317634\H,0,0.645867,2.43347
 2,0.623158\H,0,0.10939,0.098234,1.335455\C,0,-2.261755,-0.609254,0.169
 276\H,0,-1.29399,0.639121,-1.322185\H,0,-1.685188,1.481599,0.165466\H,

 Normal termination of Gaussian 16 at Tue Apr  8 23:21:17 2025.
