 Gaussian 16, Revision C.01,

 ----------------------------------------------------------------------
 #t hf aug-cc-pvdz symm=none int=(grid=ultrafine) guess=(read,tcheck) s
 table=(opt,rrhf)
 ----------------------------------------------------------------------
 -----
 title
 -----
 Symbolic Z-matrix:
 Charge =  0 Multiplicity = 1

 SCF Done:  E(RHF) =  -350.450707265     A.U. after   13 cycles
 Normal termination of Gaussian 16 at Wed Apr  9 00:39:54 2025.
 Gaussian 16:  ES64L-G16RevC.01  3-Jul-2019

 ----------------------------------------------------------------------
 #t hf aug-cc-pvdz iop(5/13=1,5/36=2,99/5=2) pseudo=read geom=check gue
 ss=(read,tcheck) scf=(maxcycle=1)
 ----------------------------------------------------------------------
 -----
 title
 -----
 Structure from the checkpoint file:  "BDE49_nonexpt_593_mol1.chk"
 Charge =  0 Multiplicity = 1

                         Standard orientation:
 ---------------------------------------------------------------------
 Center     Atomic      Atomic             Coordinates (Angstroms)
 Number     Number       Type             X           Y           Z
 ---------------------------------------------------------------------
      1          6           0        0.785158    0.083384   -0.000014
      2          5           0       -1.777110   -0.086007    0.000011
      3          6           0       -2.073031    1.456507   -0.000016
      4          1           0       -1.613368    1.945442    0.865260
      5          1           0       -3.143809    1.677309   -0.000022
      6          1           0       -1.613363    1.945417   -0.865302
      7          8           0        0.866409    1.290794   -0.000011
      8          6           0        2.013009   -0.825870    0.000007
      9          6           0       -2.947495   -1.145931    0.000014
     10          1           0       -2.633557   -2.194966    0.000024
     11          1           0       -3.595098   -0.989771   -0.871573
     12          1           0       -3.595104   -0.989757    0.871595
     13          6           0        3.329191   -0.055162    0.000004
     14          1           0        1.946907   -1.484751   -0.874845
     15          1           0        1.946896   -1.484726    0.874876
     16          1           0        3.404247    0.587316   -0.878900
     17          1           0        4.177574   -0.743634    0.000020
     18          1           0        3.404235    0.587343    0.878890
     19          7           0       -0.434495   -0.602789    0.000004
     20          1           0       -0.330812   -1.609583    0.000014
 ---------------------------------------------------------------------

 SCF Done:  E(RHF) =  -352.123934057     A.U. after    2 cycles

 The electronic state is 1-A.
 Alpha  occ. eigenvalues --  -21.03194 -15.73475 -11.51093 -11.42036 -11.37008
 Alpha  occ. eigenvalues --  -11.33400 -11.31781  -7.60317  -1.71118  -1.38615
 Alpha  occ. eigenvalues --   -1.18067  -1.09838  -1.00245  -0.94246  -0.79498
 Alpha  occ. eigenvalues --   -0.72610  -0.67082  -0.64171  -0.58890  -0.56050
 Alpha  occ. eigenvalues --   -0.54336  -0.52870  -0.52149  -0.51536  -0.51444
 Alpha  occ. eigenvalues --   -0.47286  -0.46984  -0.44176  -0.40338  -0.34871
 Alpha  occ. eigenvalues --   -0.28349
 Alpha virt. eigenvalues --    0.03054   0.03901   0.04386   0.04557   0.05815
 Alpha virt. eigenvalues --    0.06226   0.06442   0.07167   0.07697   0.08202
 Alpha virt. eigenvalues --    0.08662   0.08954   0.09001   0.09649   0.10229

 Mulliken charges:
               1
     1  C    7.001561
     2  B    6.835556
     3  C   -6.701760
     4  H    1.104997
     5  H    0.859963
     6  H    1.104999
     7  O   -3.278977
     8  C   -3.694574
     9  C   -6.064557
    10  H    1.273902
    11  H    0.811106
    12  H    0.811093
    13  C   -3.748228
    14  H    1.565247
    15  H    1.565239
    16  H    1.241971
    17  H    1.027662
    18  H    1.241986
    19  N   -4.195084
    20  H    1.237898
 Sum of Mulliken charges =   0.00000

 Dipole moment (field-independent basis, Debye):
    X=              0.2609    Y=             -1.7056    Z=              0.0000  Tot=              1.7255

 Test job not archived.
 1\1\GINC-SE253\SP\RHF\Aug-CC-pVDZ\C5H12B1N1O1\OHZDE\09-Apr-2025\0\\#t
 hf aug-cc-pvdz iop(5/13=1,5/36=2,99/5=2) pseudo=read geom=check guess=
 (read,tcheck) scf=(maxcycle=1)\\title\\0,1\C,0,-0.785158,0.083384,0.00
 0014\B,0,1.77711,-0.086007,-0.000011\C,0,2.073031,1.456507,0.000016\H,
 0,1.613368,1.945442,-0.86526\H,0,3.143809,1.677309,0.000022\H,0,1.6133
 63,1.945417,0.865302\O,0,-0.866409,1.290794,0.000011\C,0,-2.013009,-0.
 82587,-0.000007\C,0,2.947495,-1.145931,-0.000014\H,0,2.633557,-2.19496
 6,-0.000024\H,0,3.595098,-0.989771,0.871573\H,0,3.595104,-0.989757,-0.

 Normal termination of Gaussian 16 at Wed Apr  9 00:40:03 2025.
