 Gaussian 16, Revision C.01,

 ----------------------------------------------------------------------
 #t hf aug-cc-pvdz symm=none int=(grid=ultrafine) guess=(read,tcheck) s
 table=(opt,rrhf)
 ----------------------------------------------------------------------
 -----
 title
 -----
 Symbolic Z-matrix:
 Charge =  0 Multiplicity = 1

 SCF Done:  E(RHF) =  -750.687144632     A.U. after   13 cycles
 Normal termination of Gaussian 16 at Wed Apr  9 00:47:37 2025.
 Gaussian 16:  ES64L-G16RevC.01  3-Jul-2019

 ----------------------------------------------------------------------
 #t hf aug-cc-pvdz iop(5/13=1,5/36=2,99/5=2) pseudo=read geom=check gue
 ss=(read,tcheck) scf=(maxcycle=1)
 ----------------------------------------------------------------------
 -----
 title
 -----
 Structure from the checkpoint file:  "BDE49_nonexpt_757_mol1.chk"
 Charge =  0 Multiplicity = 1

                         Standard orientation:
 ---------------------------------------------------------------------
 Center     Atomic      Atomic             Coordinates (Angstroms)
 Number     Number       Type             X           Y           Z
 ---------------------------------------------------------------------
      1          6           0       -2.921859   -0.674372    0.534558
      2          6           0       -1.583128   -1.336815    0.172939
      3          6           0       -3.191955    0.566401   -0.326812
      4          1           0       -2.903443   -0.382695    1.592639
      5          1           0       -3.735739   -1.398769    0.425727
      6          6           0       -2.029477    1.564113   -0.242672
      7          1           0       -4.126956    1.045681   -0.018990
      8          1           0       -3.328753    0.257719   -1.371532
      9          6           0       -0.686311    0.907286   -0.603244
     10          1           0       -1.970095    1.965363    0.777165
     11          1           0       -2.212367    2.418911   -0.902394
     12          6           0       -0.409173   -0.340241    0.254460
     13          1           0        0.124589    1.629519   -0.480579
     14          1           0       -0.698854    0.616068   -1.661761
     15          1           0       -1.644903   -1.736942   -0.848027
     16          1           0       -1.394434   -2.191716    0.829136
     17          5           0        2.528741    0.192133    0.121680
     18          8           0        2.323916    1.110258    1.107951
     19          8           0        3.704827    0.252881   -0.579108
     20          1           0        3.790096   -0.416683   -1.262503
     21          1           0        3.073208    1.711695    1.199872
     22         15           0        1.213542   -1.219943   -0.108247
     23          1           0       -0.300580   -0.021151    1.299271
     24          1           0        1.182870   -1.181861   -1.528837
 ---------------------------------------------------------------------

 SCF Done:  E(RHF) =  -752.809356258     A.U. after    2 cycles

 The electronic state is 1-A.
 Alpha  occ. eigenvalues -- -105.15362 -21.06791 -21.05875 -11.43389 -11.43247
 Alpha  occ. eigenvalues --  -11.41814 -11.37198 -11.37069 -11.33765  -7.64692
 Alpha  occ. eigenvalues --   -2.72832  -1.81956  -1.65969  -1.48215  -1.44592
 Alpha  occ. eigenvalues --   -1.42066  -1.29761  -1.09779  -1.08367  -0.88020
 Alpha  occ. eigenvalues --   -0.86846  -0.78288  -0.75706  -0.69640  -0.64384
 Alpha  occ. eigenvalues --   -0.62621  -0.60917  -0.60410  -0.57242  -0.52389
 Alpha  occ. eigenvalues --   -0.50273  -0.48891  -0.47928  -0.46824  -0.46559
 Alpha  occ. eigenvalues --   -0.44098  -0.42977  -0.42394  -0.38849  -0.36877
 Alpha  occ. eigenvalues --   -0.22441  -0.14247  -0.01561
 Alpha virt. eigenvalues --    0.03991   0.04332   0.04964   0.05538   0.05694
 Alpha virt. eigenvalues --    0.05736   0.05999   0.06412   0.06541   0.07908
 Alpha virt. eigenvalues --    0.08218   0.08573   0.08917   0.09219   0.09489

 Mulliken charges:
               1
     1  C   -3.433169
     2  C   -3.453455
     3  C   -2.953079
     4  H    1.370861
     5  H    1.366302
     6  C   -3.404056
     7  H    1.298416
     8  H    1.369634
     9  C   -3.582234
    10  H    1.360071
    11  H    1.307719
    12  C   -0.080270
    13  H    1.595713
    14  H    1.481944
    15  H    1.426267
    16  H    1.308914
    17  B    6.177387
    18  O   -3.714345
    19  O   -3.727864
    20  H    1.250566
    21  H    1.383918
    22  P    1.391063
    23  H    2.044866
    24  H   -1.785168
 Sum of Mulliken charges =   0.00000

 Dipole moment (field-independent basis, Debye):
    X=             -0.8328    Y=             -1.8670    Z=              0.6863  Tot=              2.1565

 Test job not archived.
 1\1\GINC-SE404\SP\RHF\Aug-CC-pVDZ\C6H14B1O2P1\OHZDE\09-Apr-2025\0\\#t
 hf aug-cc-pvdz iop(5/13=1,5/36=2,99/5=2) pseudo=read geom=check guess=
 (read,tcheck) scf=(maxcycle=1)\\title\\0,1\C,0,-2.921859,-0.674372,0.5
 34558\C,0,-1.583128,-1.336815,0.172939\C,0,-3.191955,0.566401,-0.32681
 2\H,0,-2.903443,-0.382695,1.592639\H,0,-3.735739,-1.398769,0.425727\C,
 0,-2.029477,1.564113,-0.242672\H,0,-4.126956,1.045681,-0.01899\H,0,-3.
 328753,0.257719,-1.371532\C,0,-0.686311,0.907286,-0.603244\H,0,-1.9700
 95,1.965363,0.777165\H,0,-2.212367,2.418911,-0.902394\C,0,-0.409173,-0

 Normal termination of Gaussian 16 at Wed Apr  9 00:47:53 2025.
