 Gaussian 16, Revision C.01,

 ----------------------------------------------------------------------
 #t hf aug-cc-pvdz symm=none int=(grid=ultrafine) guess=(read,tcheck) s
 table=(opt,rrhf)
 ----------------------------------------------------------------------
 -----
 title
 -----
 Symbolic Z-matrix:
 Charge =  0 Multiplicity = 1

 SCF Done:  E(RHF) =  -463.734173014     A.U. after   17 cycles
 Normal termination of Gaussian 16 at Wed Apr  9 00:41:30 2025.
 Gaussian 16:  ES64L-G16RevC.01  3-Jul-2019

 ----------------------------------------------------------------------
 #t hf aug-cc-pvdz iop(5/13=1,5/36=2,99/5=2) pseudo=read geom=check gue
 ss=(read,tcheck) scf=(maxcycle=1)
 ----------------------------------------------------------------------
 -----
 title
 -----
 Structure from the checkpoint file:  "BDE49_nonexpt_556_mol1.chk"
 Charge =  0 Multiplicity = 1

                         Standard orientation:
 ---------------------------------------------------------------------
 Center     Atomic      Atomic             Coordinates (Angstroms)
 Number     Number       Type             X           Y           Z
 ---------------------------------------------------------------------
      1          6           0       -1.760836   -1.508220    0.000000
      2          6           0       -3.049209   -1.030318    0.000001
      3          6           0       -3.298021    0.361598    0.000001
      4          6           0       -2.248861    1.249536    0.000001
      5          6           0       -0.908553    0.789167    0.000000
      6          6           0       -0.655656   -0.617399    0.000000
      7          1           0       -1.572842   -2.576905    0.000000
      8          1           0       -3.883767   -1.722533    0.000001
      9          1           0       -4.319624    0.724036    0.000001
     10          1           0       -2.434049    2.318757    0.000001
     11          6           0        0.685395   -1.074166    0.000000
     12          6           0        1.747133   -0.194043    0.000000
     13          6           0        0.204150    1.671169    0.000001
     14          6           0        1.491645    1.203766    0.000000
     15          1           0        0.022002    2.740807    0.000001
     16          1           0        2.322534    1.895694    0.000001
     17          5           0        4.304602   -0.038700   -0.000007
     18          1           0        0.871217   -2.144704    0.000000
     19          7           0        3.069488   -0.696058    0.000000
     20          1           0        4.369292    1.147816   -0.000006
     21          1           0        5.284193   -0.715875    0.000004
     22          1           0        3.088498   -1.707719    0.000005
 ---------------------------------------------------------------------

 SCF Done:  E(RHF) =  -465.947337156     A.U. after    2 cycles

 The electronic state is 1-A.
 Alpha  occ. eigenvalues --  -15.73876 -11.52884 -11.50248 -11.46067 -11.45161
 Alpha  occ. eigenvalues --  -11.43788 -11.42707 -11.41856 -11.41317 -11.39567
 Alpha  occ. eigenvalues --  -11.36489  -7.61538  -1.44933  -1.35511  -1.21435
 Alpha  occ. eigenvalues --   -1.14130  -1.07371  -1.04505  -0.90190  -0.89551
 Alpha  occ. eigenvalues --   -0.85280  -0.81080  -0.72331  -0.70108  -0.68903
 Alpha  occ. eigenvalues --   -0.63669  -0.59408  -0.57325  -0.57122  -0.55224
 Alpha  occ. eigenvalues --   -0.54196  -0.51795  -0.49697  -0.48884  -0.45716
 Alpha  occ. eigenvalues --   -0.42721  -0.42058  -0.41253  -0.37673  -0.30057
 Alpha  occ. eigenvalues --   -0.26652
 Alpha virt. eigenvalues --    0.03050   0.03398   0.04063   0.04423   0.05315
 Alpha virt. eigenvalues --    0.05805   0.06170   0.06479   0.08081   0.09187
 Alpha virt. eigenvalues --    0.09403   0.10142   0.10191   0.10753   0.11249

 Mulliken charges:
               1
     1  C   -3.092648
     2  C   -4.207917
     3  C   -4.101827
     4  C   -2.627292
     5  C    6.459343
     6  C    8.004217
     7  H    1.707561
     8  H    1.461891
     9  H    1.471722
    10  H    1.727519
    11  C   -1.425289
    12  C    1.803668
    13  C   -3.060547
    14  C   -5.266757
    15  H    1.829152
    16  H    1.945041
    17  B    7.827995
    18  H    1.998207
    19  N   -5.922681
    20  H   -3.364842
    21  H   -4.411770
    22  H    1.245253
 Sum of Mulliken charges =   0.00000

 Dipole moment (field-independent basis, Debye):
    X=             -0.6779    Y=             -0.5675    Z=             -0.0000  Tot=              0.8841

 Test job not archived.
 1\1\GINC-SE109\SP\RHF\Aug-CC-pVDZ\C10H10B1N1\OHZDE\09-Apr-2025\0\\#t h
 f aug-cc-pvdz iop(5/13=1,5/36=2,99/5=2) pseudo=read geom=check guess=(
 read,tcheck) scf=(maxcycle=1)\\title\\0,1\C,0,1.760836,-1.50822,0.\C,0
 ,3.049209,-1.030318,-0.000001\C,0,3.298021,0.361598,-0.000001\C,0,2.24
 8861,1.249536,-0.000001\C,0,0.908553,0.789167,0.\C,0,0.655656,-0.61739
 9,0.\H,0,1.572842,-2.576905,0.\H,0,3.883767,-1.722533,-0.000001\H,0,4.
 319624,0.724036,-0.000001\H,0,2.434049,2.318757,-0.000001\C,0,-0.68539
 5,-1.074166,0.\C,0,-1.747133,-0.194043,0.\C,0,-0.20415,1.671169,-0.000

 Normal termination of Gaussian 16 at Wed Apr  9 00:41:47 2025.
