 Gaussian 16, Revision C.01,

 ----------------------------------------------------------------------
 #t hf aug-cc-pvdz symm=none int=(grid=ultrafine) guess=(read,tcheck) s
 table=(opt,rrhf)
 ----------------------------------------------------------------------
 -----
 title
 -----
 Symbolic Z-matrix:
 Charge =  0 Multiplicity = 1

 SCF Done:  E(RHF) =  -443.063347682     A.U. after   12 cycles
 Normal termination of Gaussian 16 at Wed Apr  9 00:03:28 2025.
 Gaussian 16:  ES64L-G16RevC.01  3-Jul-2019

 ----------------------------------------------------------------------
 #t hf aug-cc-pvdz iop(5/13=1,5/36=2,99/5=2) pseudo=read geom=check gue
 ss=(read,tcheck) scf=(maxcycle=1)
 ----------------------------------------------------------------------
 -----
 title
 -----
 Structure from the checkpoint file:  "BDE49_nonexpt_2181_mol1.chk"
 Charge =  0 Multiplicity = 1

                         Standard orientation:
 ---------------------------------------------------------------------
 Center     Atomic      Atomic             Coordinates (Angstroms)
 Number     Number       Type             X           Y           Z
 ---------------------------------------------------------------------
      1         14           0       -0.719049   -0.549125    0.000044
      2          8           0       -1.174559    1.042326   -0.000206
      3          1           0       -2.108384    1.259745    0.000897
      4          6           0        1.136639   -0.553487   -0.000061
      5          6           0        1.871532    0.560787    0.000035
      6          1           0        1.648069   -1.516073   -0.000248
      7          1           0        1.407479    1.542086    0.000196
      8          1           0        2.958161    0.537896   -0.000056
      9          1           0       -1.245606   -1.259401   -1.194474
     10          1           0       -1.245586   -1.258910    1.194870
 ---------------------------------------------------------------------

 SCF Done:  E(RHF) =  -443.921651242     A.U. after    2 cycles

 The electronic state is 1-A.
 Alpha  occ. eigenvalues --  -76.22755 -21.07378 -11.40899 -11.35999  -5.56643
 Alpha  occ. eigenvalues --   -2.23568  -2.20148  -2.17939  -1.65798  -1.13573
 Alpha  occ. eigenvalues --   -0.83232  -0.72792  -0.62571  -0.58088  -0.53875
 Alpha  occ. eigenvalues --   -0.49772  -0.42061  -0.40170  -0.37534  -0.36788
 Alpha virt. eigenvalues --    0.03541   0.05138   0.05619   0.06490   0.07140
 Alpha virt. eigenvalues --    0.07389   0.07788   0.08919   0.09430   0.10863
 Alpha virt. eigenvalues --    0.13113   0.14774   0.15937   0.16005   0.16830

 Mulliken charges:
               1
     1  Si   6.203525
     2  O   -2.599877
     3  H    1.123301
     4  C   -2.611528
     5  C   -2.462771
     6  H    1.143425
     7  H    1.384556
     8  H    1.396613
     9  H   -1.788522
    10  H   -1.788722
 Sum of Mulliken charges =   0.00000

 Dipole moment (field-independent basis, Debye):
    X=              0.2044    Y=              0.8944    Z=              0.0007  Tot=              0.9174

 Test job not archived.
 1\1\GINC-SE457\SP\RHF\Aug-CC-pVDZ\C2H6O1Si1\OHZDE\09-Apr-2025\0\\#t hf
  aug-cc-pvdz iop(5/13=1,5/36=2,99/5=2) pseudo=read geom=check guess=(r
 ead,tcheck) scf=(maxcycle=1)\\title\\0,1\Si,0,-0.719049,-0.549125,0.00
 0044\O,0,-1.174559,1.042326,-0.000206\H,0,-2.108384,1.259745,0.000897\
 C,0,1.136639,-0.553487,-0.000061\C,0,1.871532,0.560787,0.000035\H,0,1.
 648069,-1.516073,-0.000248\H,0,1.407479,1.542086,0.000196\H,0,2.958161
 ,0.537896,-0.000056\H,0,-1.245606,-1.259401,-1.194474\H,0,-1.245586,-1
 .25891,1.19487\\Version=ES64L-G16RevC.01\State=1-A\HF=-443.9216512\RMS

 Normal termination of Gaussian 16 at Wed Apr  9 00:03:30 2025.
