 Gaussian 16, Revision C.01,

 ----------------------------------------------------------------------
 #t hf aug-cc-pvdz symm=none int=(grid=ultrafine) guess=(read,tcheck) s
 table=(opt,rrhf)
 ----------------------------------------------------------------------
 -----
 title
 -----
 Symbolic Z-matrix:
 Charge =  0 Multiplicity = 1

 SCF Done:  E(RHF) =  -1903.60881514     A.U. after   15 cycles

 1\1\GINC-SE109\Stability\RHF\Aug-CC-pVDZ\C8H18S4\OHZDE\08-Apr-2025\0\\
 #t hf aug-cc-pvdz symm=none int=(grid=ultrafine) guess=(read,tcheck) s
 table=(opt,rrhf)\\title\\0,1\S,0,-2.556908,-1.089146,-0.062799\S,0,-0.
 689272,-1.322049,0.800796\C,0,-2.985366,0.745595,-0.009247\S,0,0.78421
 8,-1.414901,-0.737887\S,0,1.697078,0.43223,-0.964768\C,0,3.156589,0.45
 8541,0.229944\C,0,-4.431831,0.763471,-0.530623\H,0,-4.497754,0.371099,
 -1.54862\H,0,-4.794769,1.795977,-0.544732\H,0,-5.098897,0.180527,0.109
 185\C,0,3.796136,1.828164,-0.048004\H,0,3.106904,2.646971,0.173308\H,0

 Normal termination of Gaussian 16 at Tue Apr  8 23:09:06 2025.
 Gaussian 16:  ES64L-G16RevC.01  3-Jul-2019

 ----------------------------------------------------------------------
 #t hf aug-cc-pvdz iop(5/13=1,5/36=2,99/5=2) pseudo=read geom=check gue
 ss=(read,tcheck) scf=(maxcycle=1)
 ----------------------------------------------------------------------
 -----
 title
 -----
 Structure from the checkpoint file:  "BDE49_expt_1970_mol1.chk"
 Charge =  0 Multiplicity = 1

                         Standard orientation:
 ---------------------------------------------------------------------
 Center     Atomic      Atomic             Coordinates (Angstroms)
 Number     Number       Type             X           Y           Z
 ---------------------------------------------------------------------
      1         16           0       -2.556908   -1.089146   -0.062799
      2         16           0       -0.689272   -1.322049    0.800796
      3          6           0       -2.985366    0.745595   -0.009247
      4         16           0        0.784218   -1.414901   -0.737887
      5         16           0        1.697078    0.432230   -0.964768
      6          6           0        3.156589    0.458541    0.229944
      7          6           0       -4.431831    0.763471   -0.530623
      8          1           0       -4.497754    0.371099   -1.548620
      9          1           0       -4.794769    1.795977   -0.544732
     10          1           0       -5.098897    0.180527    0.109185
     11          6           0        3.796136    1.828164   -0.048004
     12          1           0        3.106904    2.646971    0.173308
     13          1           0        4.117766    1.918147   -1.088648
     14          1           0        4.678494    1.949302    0.588173
     15          6           0       -2.918982    1.267183    1.427652
     16          1           0       -3.589314    0.708294    2.084194
     17          1           0       -3.214784    2.321747    1.450232
     18          1           0       -1.905735    1.195814    1.828360
     19          6           0        2.671697    0.368265    1.678130
     20          1           0        1.963664    1.165593    1.913184
     21          1           0        3.526975    0.456068    2.357100
     22          1           0        2.187851   -0.589913    1.877173
     23          6           0       -2.064474    1.543142   -0.934623
     24          1           0       -2.091316    1.153960   -1.954728
     25          1           0       -1.030504    1.518307   -0.587045
     26          1           0       -2.386228    2.590463   -0.958188
     27          6           0        4.130074   -0.674797   -0.101763
     28          1           0        4.488187   -0.600338   -1.130740
     29          1           0        3.659476   -1.651364    0.028787
     30          1           0        4.995056   -0.626171    0.568712
 ---------------------------------------------------------------------

 SCF Done:  E(RHF) =  -1906.17579320     A.U. after    2 cycles

 The electronic state is 1-A.
 Alpha  occ. eigenvalues --  -75.72668 -75.72528 -75.70197 -75.69942 -13.19005
 Alpha  occ. eigenvalues --  -13.15548 -13.14925 -13.14190 -13.11107 -13.10601
 Alpha  occ. eigenvalues --  -13.10161 -13.09399 -13.07973 -13.07924 -13.07383
 Alpha  occ. eigenvalues --  -13.05999 -11.44185 -11.43863 -11.40086 -11.39767
 Alpha  occ. eigenvalues --  -11.39478 -11.39107 -11.36286 -11.36007  -8.06271
 Alpha  occ. eigenvalues --   -8.06227  -8.04047  -8.03804  -1.32704  -1.30775
 Alpha  occ. eigenvalues --   -1.21578  -1.12716  -1.02277  -1.01827  -1.01492
 Alpha  occ. eigenvalues --   -1.00990  -1.00550  -0.90684  -0.77945  -0.76870
 Alpha  occ. eigenvalues --   -0.63184  -0.62519  -0.61702  -0.61549  -0.61325
 Alpha  occ. eigenvalues --   -0.60935  -0.55575  -0.55217  -0.55045  -0.54615
 Alpha  occ. eigenvalues --   -0.52335  -0.51977  -0.46636  -0.46032  -0.45859
 Alpha  occ. eigenvalues --   -0.45555  -0.42998  -0.41631  -0.41151  -0.35989
 Alpha  occ. eigenvalues --   -0.35608  -0.27299  -0.24039  -0.23310  -0.20917
 Alpha virt. eigenvalues --    0.02963   0.03116   0.04312   0.04828   0.05820
 Alpha virt. eigenvalues --    0.05886   0.05938   0.06110   0.06168   0.06281
 Alpha virt. eigenvalues --    0.06443   0.06967   0.07417   0.07961   0.08990

 Mulliken charges:
               1
     1  S   -0.573451
     2  S   -0.191284
     3  C    2.719350
     4  S   -0.577428
     5  S   -0.713252
     6  C    3.426097
     7  C   -4.399667
     8  H    1.318462
     9  H    1.309348
    10  H    1.341401
    11  C   -4.457775
    12  H    1.342059
    13  H    1.355055
    14  H    1.220510
    15  C   -5.033398
    16  H    1.382777
    17  H    1.170951
    18  H    1.592153
    19  C   -5.004136
    20  H    1.489348
    21  H    1.163549
    22  H    1.521003
    23  C   -4.814366
    24  H    1.442732
    25  H    1.742193
    26  H    1.208247
    27  C   -4.959089
    28  H    1.389071
    29  H    1.385321
    30  H    1.204219
 Sum of Mulliken charges =   0.00000

 Dipole moment (field-independent basis, Debye):
    X=             -0.1658    Y=              0.3634    Z=             -0.2191  Tot=              0.4556

 Test job not archived.
 1\1\GINC-SE109\SP\RHF\Aug-CC-pVDZ\C8H18S4\OHZDE\08-Apr-2025\0\\#t hf a
 ug-cc-pvdz iop(5/13=1,5/36=2,99/5=2) pseudo=read geom=check guess=(rea
 d,tcheck) scf=(maxcycle=1)\\title\\0,1\S,0,-2.556908,-1.089146,-0.0627
 99\S,0,-0.689272,-1.322049,0.800796\C,0,-2.985366,0.745595,-0.009247\S
 ,0,0.784218,-1.414901,-0.737887\S,0,1.697078,0.43223,-0.964768\C,0,3.1
 56589,0.458541,0.229944\C,0,-4.431831,0.763471,-0.530623\H,0,-4.497754
 ,0.371099,-1.54862\H,0,-4.794769,1.795977,-0.544732\H,0,-5.098897,0.18
 0527,0.109185\C,0,3.796136,1.828164,-0.048004\H,0,3.106904,2.646971,0.

 Normal termination of Gaussian 16 at Tue Apr  8 23:09:38 2025.
