 Gaussian 16, Revision C.01,

 ----------------------------------------------------------------------
 #t hf aug-cc-pvdz symm=none int=(grid=ultrafine) guess=(read,tcheck) s
 table=(opt,rrhf)
 ----------------------------------------------------------------------
 -----
 title
 -----
 Symbolic Z-matrix:
 Charge =  0 Multiplicity = 1

 SCF Done:  E(RHF) =  -650.918082951     A.U. after   13 cycles
 Normal termination of Gaussian 16 at Tue Apr  8 22:36:25 2025.
 Gaussian 16:  ES64L-G16RevC.01  3-Jul-2019

 ----------------------------------------------------------------------
 #t hf aug-cc-pvdz iop(5/13=1,5/36=2,99/5=2) pseudo=read geom=check gue
 ss=(read,tcheck) scf=(maxcycle=1)
 ----------------------------------------------------------------------
 -----
 title
 -----
 Structure from the checkpoint file:  "BDE49_expt_1079_mol1.chk"
 Charge =  0 Multiplicity = 1

                         Standard orientation:
 ---------------------------------------------------------------------
 Center     Atomic      Atomic             Coordinates (Angstroms)
 Number     Number       Type             X           Y           Z
 ---------------------------------------------------------------------
      1          6           0        0.958591   -0.748212    0.000030
      2          6           0       -0.066560    0.355950    0.000053
      3          8           0        0.104622    1.522097   -0.000003
      4         17           0       -1.783912   -0.320351   -0.000035
      5          6           0        2.393399   -0.223297    0.000008
      6          1           0        0.751714   -1.377861   -0.870958
      7          1           0        0.751742   -1.377868    0.871019
      8          1           0        2.589302    0.389181   -0.881731
      9          1           0        3.094851   -1.060076   -0.000008
     10          1           0        2.589331    0.389173    0.881746
 ---------------------------------------------------------------------

 SCF Done:  E(RHF) =  -652.041883540     A.U. after    2 cycles

 The electronic state is 1-A.
 Alpha  occ. eigenvalues --  -99.89357 -21.10578 -11.55606 -11.44093 -11.38869
 Alpha  occ. eigenvalues --  -10.46615  -9.66504  -9.65798  -9.65708  -1.76612
 Alpha  occ. eigenvalues --   -1.31690  -1.19989  -0.97802  -0.78722  -0.68780
 Alpha  occ. eigenvalues --   -0.66521  -0.59234  -0.56566  -0.55538  -0.51219
 Alpha  occ. eigenvalues --   -0.51069  -0.48594  -0.44919  -0.35093
 Alpha virt. eigenvalues --    0.03010   0.05342   0.05893   0.06048   0.06538
 Alpha virt. eigenvalues --    0.07931   0.09434   0.11633   0.11971   0.12327
 Alpha virt. eigenvalues --    0.13139   0.13562   0.14700   0.15534   0.17494

 Mulliken charges:
               1
     1  C   -2.633232
     2  C    1.945429
     3  O   -2.587178
     4  Cl  -0.132311
     5  C   -3.260179
     6  H    1.534478
     7  H    1.534519
     8  H    1.231791
     9  H    1.134911
    10  H    1.231773
 Sum of Mulliken charges =  -0.00000

 Dipole moment (field-independent basis, Debye):
    X=              3.2910    Y=              0.0067    Z=              0.0000  Tot=              3.2910

 Test job not archived.
 1\1\GINC-SE393\SP\RHF\Aug-CC-pVDZ\C3H5Cl1O1\OHZDE\08-Apr-2025\0\\#t hf
  aug-cc-pvdz iop(5/13=1,5/36=2,99/5=2) pseudo=read geom=check guess=(r
 ead,tcheck) scf=(maxcycle=1)\\title\\0,1\C,0,-0.958591,-0.748212,-0.00
 003\C,0,0.06656,0.35595,-0.000053\O,0,-0.104622,1.522097,0.000003\Cl,0
 ,1.783912,-0.320351,0.000035\C,0,-2.393399,-0.223297,-0.000008\H,0,-0.
 751714,-1.377861,0.870958\H,0,-0.751742,-1.377868,-0.871019\H,0,-2.589
 302,0.389181,0.881731\H,0,-3.094851,-1.060076,0.000008\H,0,-2.589331,0
 .389173,-0.881746\\Version=ES64L-G16RevC.01\State=1-A\HF=-652.0418835\

 Normal termination of Gaussian 16 at Tue Apr  8 22:36:29 2025.
