 Gaussian 16, Revision C.01,

 ----------------------------------------------------------------------
 #t hf aug-cc-pvdz symm=none int=(grid=ultrafine) guess=(read,tcheck) s
 table=opt
 ----------------------------------------------------------------------
 -----
 title
 -----
 Symbolic Z-matrix:
 Charge =  0 Multiplicity = 2

 SCF Done:  E(UHF) =  -464.260391907     a.u. after    7 cycles
 Normal termination of Gaussian 16 at Tue Apr  8 23:57:23 2025.
 Gaussian 16:  ES64L-G16RevC.01  3-Jul-2019

 ----------------------------------------------------------------------
 #t hf aug-cc-pvdz iop(5/13=1,5/36=2,99/5=2) pseudo=read geom=check gue
 ss=(read,tcheck) scf=(maxcycle=1)
 ----------------------------------------------------------------------
 -----
 title
 -----
 Structure from the checkpoint file:  "BDE49_nonexpt_2015_mol2.chk"
 Charge =  0 Multiplicity = 2

                         Standard orientation:
 ---------------------------------------------------------------------
 Center     Atomic      Atomic             Coordinates (Angstroms)
 Number     Number       Type             X           Y           Z
 ---------------------------------------------------------------------
      1         14           0       -1.007923   -0.163865   -0.107883
      2          8           0        0.456619    0.677984    0.114654
      3          9           0        1.502727   -0.318755   -0.049246
      4          1           0       -1.930060    0.976020    0.122600
      5          1           0       -1.136520   -1.236993    0.913746
 ---------------------------------------------------------------------

 SCF Done:  E(UHF) =  -465.025176610     A.U. after    2 cycles

 The electronic state is 2-A.
 Alpha  occ. eigenvalues --  -76.28211 -29.29678 -21.14856  -5.61620  -2.26483
 Alpha  occ. eigenvalues --   -2.23261  -2.22043  -1.75614  -0.79322  -0.68725
 Alpha  occ. eigenvalues --   -0.54268  -0.53521  -0.48720  -0.36507  -0.31018
 Alpha  occ. eigenvalues --   -0.25341  -0.23377
 Alpha virt. eigenvalues --    0.04291   0.05840   0.06820   0.07311   0.08912
 Alpha virt. eigenvalues --    0.13086   0.13948   0.15933   0.17693   0.20484
 Alpha virt. eigenvalues --    0.21921   0.23838   0.25329   0.26920   0.28643

  Beta  occ. eigenvalues --  -76.27653 -29.30599 -21.13966  -5.60713  -2.25796
  Beta  occ. eigenvalues --   -2.22655  -2.18605  -1.72703  -0.75199  -0.65536
  Beta  occ. eigenvalues --   -0.52642  -0.51972  -0.47275  -0.37396  -0.25308
  Beta  occ. eigenvalues --   -0.23922
  Beta virt. eigenvalues --    0.02575   0.04662   0.06054   0.07231   0.09036
  Beta virt. eigenvalues --    0.09298   0.14306   0.14833   0.18159   0.19372
  Beta virt. eigenvalues --    0.21797   0.22267   0.24753   0.26496   0.27854

 Mulliken charges and spin densities:
               1          2
     1  Si   3.943154   0.878199
     2  O   -1.131052   0.152908
     3  F    0.019713  -0.125924
     4  H   -1.411236   0.037806
     5  H   -1.420579   0.057012
 Sum of Mulliken charges =  -0.00000   1.00000

 Dipole moment (field-independent basis, Debye):
    X=              0.6205    Y=             -1.0982    Z=             -0.5414  Tot=              1.3727
                          Isotropic Fermi Contact Couplings
        Atom                 a.u.       MegaHertz       Gauss      10(-4) cm-1
     1  Si(29)             0.60853    -540.82075    -192.97829    -180.39838
     2  O(17)              0.00729      -4.41687      -1.57605      -1.47331
     3  F(19)             -0.02621    -110.25589     -39.34204     -36.77741
     4  H(1)               0.01359      60.73715      21.67253      20.25973
     5  H(1)               0.02016      90.11207      32.15423      30.05815
 --------------------------------------------------------
       Center         ----  Spin Dipole Couplings  ----
                      3XX-RR        3YY-RR        3ZZ-RR

 Normal termination of Gaussian 16 at Tue Apr  8 23:57:24 2025.
