 Gaussian 16, Revision C.01,

 ----------------------------------------------------------------------
 #t hf aug-cc-pvdz symm=none int=(grid=ultrafine) guess=(read,tcheck) s
 table=(opt,rrhf)
 ----------------------------------------------------------------------
 -----
 title
 -----
 Symbolic Z-matrix:
 Charge =  0 Multiplicity = 1

 SCF Done:  E(RHF) =  -974.725115685     A.U. after   13 cycles
 Normal termination of Gaussian 16 at Wed Apr  9 00:16:40 2025.
 Gaussian 16:  ES64L-G16RevC.01  3-Jul-2019

 ----------------------------------------------------------------------
 #t hf aug-cc-pvdz iop(5/13=1,5/36=2,99/5=2) pseudo=read geom=check gue
 ss=(read,tcheck) scf=(maxcycle=1)
 ----------------------------------------------------------------------
 -----
 title
 -----
 Structure from the checkpoint file:  "BDE49_nonexpt_2542_mol1.chk"
 Charge =  0 Multiplicity = 1

                         Standard orientation:
 ---------------------------------------------------------------------
 Center     Atomic      Atomic             Coordinates (Angstroms)
 Number     Number       Type             X           Y           Z
 ---------------------------------------------------------------------
      1         17           0       -1.710170    0.000813   -0.620591
      2         16           0       -0.476586   -0.001466    1.061535
      3          6           0        1.206020   -0.000379    0.317319
      4          6           0        1.510422   -1.276442   -0.466760
      5          1           0        1.333509   -2.167132    0.137957
      6          1           0        2.556660   -1.275339   -0.787782
      7          1           0        0.885633   -1.339570   -1.360629
      8          6           0        1.510236    1.277758   -0.463447
      9          1           0        1.787294   -0.001550    1.251314
     10          1           0        0.885437    1.343115   -1.357149
     11          1           0        2.556475    1.277639   -0.784472
     12          1           0        1.333195    2.166850    0.143580
 ---------------------------------------------------------------------

 SCF Done:  E(RHF) =  -975.812279974     A.U. after    2 cycles

 The electronic state is 1-A.
 Alpha  occ. eigenvalues --  -99.89878 -75.73137 -13.15316 -13.09435 -13.08261
 Alpha  occ. eigenvalues --  -11.44730 -11.39299 -11.37198 -10.46999  -9.66791
 Alpha  occ. eigenvalues --   -9.66244  -9.66102  -8.06858  -1.34472  -1.24091
 Alpha  occ. eigenvalues --   -1.04118  -1.01947  -0.83496  -0.65112  -0.61979
 Alpha  occ. eigenvalues --   -0.58126  -0.55888  -0.54540  -0.53889  -0.53227
 Alpha  occ. eigenvalues --   -0.48488  -0.48083  -0.37317  -0.24815
 Alpha virt. eigenvalues --    0.02995   0.04311   0.05246   0.05832   0.06407
 Alpha virt. eigenvalues --    0.06598   0.07368   0.07748   0.07988   0.11352
 Alpha virt. eigenvalues --    0.13786   0.14197   0.14829   0.15051   0.15495

 Mulliken charges:
               1
     1  Cl  -0.482285
     2  S    0.684294
     3  C   -2.051832
     4  C   -3.628843
     5  H    1.235111
     6  H    1.236611
     7  H    1.261884
     8  C   -3.628844
     9  H    1.640271
    10  H    1.261895
    11  H    1.236608
    12  H    1.235131
 Sum of Mulliken charges =   0.00000

 Dipole moment (field-independent basis, Debye):
    X=              2.5866    Y=             -0.0034    Z=              2.5523  Tot=              3.6338

 Test job not archived.
 1\1\GINC-SE457\SP\RHF\Aug-CC-pVDZ\C3H7Cl1S1\OHZDE\09-Apr-2025\0\\#t hf
  aug-cc-pvdz iop(5/13=1,5/36=2,99/5=2) pseudo=read geom=check guess=(r
 ead,tcheck) scf=(maxcycle=1)\\title\\0,1\Cl,0,-1.71017,0.000813,-0.620
 591\S,0,-0.476586,-0.001466,1.061535\C,0,1.20602,-0.000379,0.317319\C,
 0,1.510422,-1.276442,-0.46676\H,0,1.333509,-2.167132,0.137957\H,0,2.55
 666,-1.275339,-0.787782\H,0,0.885633,-1.33957,-1.360629\C,0,1.510236,1
 .277758,-0.463447\H,0,1.787294,-0.00155,1.251314\H,0,0.885437,1.343115
 ,-1.357149\H,0,2.556475,1.277639,-0.784472\H,0,1.333195,2.16685,0.1435

 Normal termination of Gaussian 16 at Wed Apr  9 00:16:44 2025.
