 Gaussian 16, Revision C.01,

 ----------------------------------------------------------------------
 #t hf aug-cc-pvdz symm=none int=(grid=ultrafine) guess=(read,tcheck) s
 table=opt
 ----------------------------------------------------------------------
 -----
 title
 -----
 Symbolic Z-matrix:
 Charge =  0 Multiplicity = 2

 SCF Done:  E(UHF) =  -551.011973931     A.U. after   23 cycles
 Normal termination of Gaussian 16 at Tue Apr  8 23:44:17 2025.
 Gaussian 16:  ES64L-G16RevC.01  3-Jul-2019

 ----------------------------------------------------------------------
 #t hf aug-cc-pvdz iop(5/13=1,5/36=2,99/5=2) pseudo=read geom=check gue
 ss=(read,tcheck) scf=(maxcycle=1)
 ----------------------------------------------------------------------
 -----
 title
 -----
 Structure from the checkpoint file:  "BDE49_nonexpt_1704_mol2.chk"
 Charge =  0 Multiplicity = 2

                         Standard orientation:
 ---------------------------------------------------------------------
 Center     Atomic      Atomic             Coordinates (Angstroms)
 Number     Number       Type             X           Y           Z
 ---------------------------------------------------------------------
      1         16           0        1.496322   -0.269237    0.080647
      2          8           0        0.224790    0.621389   -0.450268
      3          6           0       -1.003026    0.579470    0.328654
      4          6           0       -1.869729   -0.591937   -0.095300
      5          1           0       -1.486350    1.535024    0.114955
      6          1           0       -0.744352    0.530976    1.388882
      7          1           0       -2.082587   -0.547350   -1.165454
      8          1           0       -2.818370   -0.568409    0.448210
      9          1           0       -1.371289   -1.538764    0.125078
 ---------------------------------------------------------------------

 SCF Done:  E(UHF) =  -551.922872201     A.U. after    2 cycles

 The electronic state is 2-A.
 Alpha  occ. eigenvalues --  -75.73808 -21.09295 -13.19589 -13.07529 -13.07012
 Alpha  occ. eigenvalues --  -11.44481 -11.37458  -8.07195  -1.78568  -1.14993
 Alpha  occ. eigenvalues --   -1.02810  -0.87123  -0.66213  -0.61875  -0.55475
 Alpha  occ. eigenvalues --   -0.52589  -0.49686  -0.44093  -0.40965  -0.24574
 Alpha  occ. eigenvalues --   -0.24233
 Alpha virt. eigenvalues --    0.03460   0.05459   0.05873   0.06083   0.06526
 Alpha virt. eigenvalues --    0.08178   0.10676   0.11764   0.12201   0.14598
 Alpha virt. eigenvalues --    0.14894   0.15953   0.16868   0.17948   0.18854

  Beta  occ. eigenvalues --  -75.72896 -21.08474 -13.19251 -13.06623 -13.01743
  Beta  occ. eigenvalues --  -11.44517 -11.37454  -8.06173  -1.76826  -1.14181
  Beta  occ. eigenvalues --   -0.96661  -0.85278  -0.65991  -0.61052  -0.54581
  Beta  occ. eigenvalues --   -0.52392  -0.49123  -0.40058  -0.38327  -0.23075
  Beta virt. eigenvalues --    0.03482   0.04978   0.05800   0.05992   0.06298
  Beta virt. eigenvalues --    0.07435   0.08628   0.11051   0.11991   0.13029
  Beta virt. eigenvalues --    0.14815   0.15189   0.16480   0.17938   0.18844

 Mulliken charges and spin densities:
               1          2
     1  S    0.776744   0.933345
     2  O   -2.254101   0.090184
     3  C   -1.573706  -0.039598
     4  C   -3.336976   0.041900
     5  H    1.183848   0.004313
     6  H    1.506708  -0.013048
     7  H    1.243549  -0.001743
     8  H    1.224376  -0.002927
     9  H    1.229558  -0.012427
 Sum of Mulliken charges =  -0.00000   1.00000

 Dipole moment (field-independent basis, Debye):
    X=             -0.6629    Y=              0.0185    Z=              0.2464  Tot=              0.7075
                          Isotropic Fermi Contact Couplings
        Atom                 a.u.       MegaHertz       Gauss      10(-4) cm-1
     1  S(33)              0.28217      96.91804      34.58277      32.32838
     2  O(17)              0.05183     -31.41901     -11.21108     -10.48025
     3  C(13)             -0.00585      -6.58087      -2.34822      -2.19514
     4  C(13)              0.00163       1.83486       0.65472       0.61204
     5  H(1)               0.00060       2.66013       0.94920       0.88732
     6  H(1)               0.00043       1.91536       0.68345       0.63889
     7  H(1)               0.00004       0.18760       0.06694       0.06258
     8  H(1)              -0.00029      -1.31632      -0.46970      -0.43908

 Normal termination of Gaussian 16 at Tue Apr  8 23:44:19 2025.
