 Gaussian 16, Revision C.01,

 ----------------------------------------------------------------------
 #t hf aug-cc-pvdz symm=none int=(grid=ultrafine) guess=(read,tcheck) s
 table=(opt,rrhf)
 ----------------------------------------------------------------------
 -----
 title
 -----
 Symbolic Z-matrix:
 Charge =  0 Multiplicity = 1

 SCF Done:  E(RHF) =  -607.821393179     A.U. after   18 cycles
 Normal termination of Gaussian 16 at Tue Apr  8 23:23:07 2025.
 Gaussian 16:  ES64L-G16RevC.01  3-Jul-2019

 ----------------------------------------------------------------------
 #t hf aug-cc-pvdz iop(5/13=1,5/36=2,99/5=2) pseudo=read geom=check gue
 ss=(read,tcheck) scf=(maxcycle=1)
 ----------------------------------------------------------------------
 -----
 title
 -----
 Structure from the checkpoint file:  "BDE49_nonexpt_1179_mol1.chk"
 Charge =  0 Multiplicity = 1

                         Standard orientation:
 ---------------------------------------------------------------------
 Center     Atomic      Atomic             Coordinates (Angstroms)
 Number     Number       Type             X           Y           Z
 ---------------------------------------------------------------------
      1          9           0       -3.363306   -0.814992    0.662004
      2          8           0       -2.455663   -0.940269   -0.505263
      3          6           0       -1.389878   -0.122252   -0.249476
      4          6           0       -0.136345   -0.717743   -0.151001
      5          6           0        0.965758    0.118947   -0.025379
      6          6           0        0.844000    1.500484    0.055229
      7          6           0       -1.548812    1.265825   -0.174187
      8          1           0       -2.544510    1.685416   -0.238965
      9          6           0       -0.428393    2.069511   -0.011215
     10          1           0       -0.537657    3.145055    0.051169
     11          1           0        1.733869    2.103856    0.166765
     12          7           0        2.316205   -0.490731    0.051126
     13          8           0        3.265766    0.264535    0.196847
     14          8           0        2.388596   -1.706942   -0.037539
     15          1           0       -0.022953   -1.791510   -0.191069
 ---------------------------------------------------------------------

 SCF Done:  E(RHF) =  -610.371323497     A.U. after    2 cycles

 The electronic state is 1-A.
 Alpha  occ. eigenvalues --  -29.30840 -21.19159 -21.10856 -21.10735 -16.01500
 Alpha  occ. eigenvalues --  -11.57789 -11.51115 -11.49217 -11.47591 -11.46891
 Alpha  occ. eigenvalues --  -11.42811  -2.01278  -1.83993  -1.70554  -1.38276
 Alpha  occ. eigenvalues --   -1.19591  -1.13268  -1.02696  -0.91758  -0.86104
 Alpha  occ. eigenvalues --   -0.77143  -0.73045  -0.70068  -0.68982  -0.67708
 Alpha  occ. eigenvalues --   -0.65605  -0.62175  -0.60704  -0.54637  -0.53752
 Alpha  occ. eigenvalues --   -0.50987  -0.47225  -0.41134  -0.38536  -0.37054
 Alpha  occ. eigenvalues --   -0.33855  -0.32610  -0.32416  -0.27313  -0.23861
 Alpha virt. eigenvalues --    0.02792   0.05071   0.05242   0.05809   0.06689
 Alpha virt. eigenvalues --    0.09040   0.09331   0.10359   0.11668   0.12027
 Alpha virt. eigenvalues --    0.12274   0.12602   0.13437   0.13517   0.14102

 Mulliken charges:
               1
     1  F   -0.125233
     2  O   -2.905003
     3  C    5.236483
     4  C   -3.895211
     5  C    3.560247
     6  C   -2.709340
     7  C   -4.640548
     8  H    1.695739
     9  C    1.399063
    10  H    1.464150
    11  H    1.764951
    12  N    3.348192
    13  O   -3.034068
    14  O   -2.965824
    15  H    1.806402
 Sum of Mulliken charges =   0.00000

 Dipole moment (field-independent basis, Debye):
    X=             -3.0484    Y=              1.8580    Z=              0.8638  Tot=              3.6730

 Test job not archived.
 1\1\GINC-SE365\SP\RHF\Aug-CC-pVDZ\C6H4F1N1O3\OHZDE\08-Apr-2025\0\\#t h
 f aug-cc-pvdz iop(5/13=1,5/36=2,99/5=2) pseudo=read geom=check guess=(
 read,tcheck) scf=(maxcycle=1)\\title\\0,1\F,0,-3.363306,-0.814992,0.66
 2004\O,0,-2.455663,-0.940269,-0.505263\C,0,-1.389878,-0.122252,-0.2494
 76\C,0,-0.136345,-0.717743,-0.151001\C,0,0.965758,0.118947,-0.025379\C
 ,0,0.844,1.500484,0.055229\C,0,-1.548812,1.265825,-0.174187\H,0,-2.544
 51,1.685416,-0.238965\C,0,-0.428393,2.069511,-0.011215\H,0,-0.537657,3
 .145055,0.051169\H,0,1.733869,2.103856,0.166765\N,0,2.316205,-0.490731

 Normal termination of Gaussian 16 at Tue Apr  8 23:23:13 2025.
