 Gaussian 16, Revision C.01,

 ----------------------------------------------------------------------
 #t hf aug-cc-pvdz symm=none int=(grid=ultrafine) guess=(read,tcheck) s
 table=(opt,rrhf)
 ----------------------------------------------------------------------
 -----
 title
 -----
 Symbolic Z-matrix:
 Charge =  0 Multiplicity = 1

 SCF Done:  E(RHF) =  -495.423302278     A.U. after   12 cycles
 Normal termination of Gaussian 16 at Tue Apr  8 23:40:11 2025.
 Gaussian 16:  ES64L-G16RevC.01  3-Jul-2019

 ----------------------------------------------------------------------
 #t hf aug-cc-pvdz iop(5/13=1,5/36=2,99/5=2) pseudo=read geom=check gue
 ss=(read,tcheck) scf=(maxcycle=1)
 ----------------------------------------------------------------------
 -----
 title
 -----
 Structure from the checkpoint file:  "BDE49_nonexpt_1609_mol1.chk"
 Charge =  0 Multiplicity = 1

                         Standard orientation:
 ---------------------------------------------------------------------
 Center     Atomic      Atomic             Coordinates (Angstroms)
 Number     Number       Type             X           Y           Z
 ---------------------------------------------------------------------
      1         15           0        0.469491   -0.625893   -0.101850
      2          6           0        1.890633    0.546906   -0.047339
      3          1           0        1.788890    1.243058    0.787037
      4          1           0        1.941732    1.107827   -0.982160
      5          1           0        2.816220   -0.024589    0.066991
      6          8           0       -0.730573    0.489606    0.222385
      7          6           0       -2.076565    0.137768   -0.090830
      8          1           0       -2.653540    1.063507   -0.106440
      9          1           0       -2.501554   -0.529017    0.668776
     10          1           0       -2.151152   -0.349654   -1.069947
     11          1           0        0.677214   -1.147631    1.213434
 ---------------------------------------------------------------------

 SCF Done:  E(RHF) =  -496.345229061     A.U. after    2 cycles

 The electronic state is 1-A.
 Alpha  occ. eigenvalues -- -105.19781 -21.04731 -11.40400 -11.36596  -2.77793
 Alpha  occ. eigenvalues --   -1.79694  -1.48645  -1.44574  -1.37622  -1.00940
 Alpha  occ. eigenvalues --   -0.95116  -0.68329  -0.60383  -0.58592  -0.56405
 Alpha  occ. eigenvalues --   -0.56172  -0.46347  -0.34550  -0.25601  -0.22268
 Alpha  occ. eigenvalues --   -0.01852
 Alpha virt. eigenvalues --    0.04585   0.05072   0.06278   0.06536   0.06984
 Alpha virt. eigenvalues --    0.07229   0.07751   0.10225   0.11298   0.12494
 Alpha virt. eigenvalues --    0.14399   0.15231   0.16212   0.16694   0.17684

 Mulliken charges:
               1
     1  P    4.985776
     2  C   -5.501949
     3  H    1.006696
     4  H    1.153399
     5  H    1.272545
     6  O   -2.800099
     7  C   -2.754162
     8  H    1.169852
     9  H    1.259436
    10  H    1.129374
    11  H   -0.920869
 Sum of Mulliken charges =  -0.00000

 Dipole moment (field-independent basis, Debye):
    X=             -0.7418    Y=              0.0500    Z=              0.5090  Tot=              0.9010

 Test job not archived.
 1\1\GINC-SE250\SP\RHF\Aug-CC-pVDZ\C2H7O1P1\OHZDE\08-Apr-2025\0\\#t hf
 aug-cc-pvdz iop(5/13=1,5/36=2,99/5=2) pseudo=read geom=check guess=(re
 ad,tcheck) scf=(maxcycle=1)\\title\\0,1\P,0,0.469491,-0.625893,-0.1018
 5\C,0,1.890633,0.546906,-0.047339\H,0,1.78889,1.243058,0.787037\H,0,1.
 941732,1.107827,-0.98216\H,0,2.81622,-0.024589,0.066991\O,0,-0.730573,
 0.489606,0.222385\C,0,-2.076565,0.137768,-0.09083\H,0,-2.65354,1.06350
 7,-0.10644\H,0,-2.501554,-0.529017,0.668776\H,0,-2.151152,-0.349654,-1
 .069947\H,0,0.677214,-1.147631,1.213434\\Version=ES64L-G16RevC.01\Stat

 Normal termination of Gaussian 16 at Tue Apr  8 23:40:15 2025.
