 Gaussian 16, Revision C.01,

 ----------------------------------------------------------------------
 #t hf aug-cc-pvdz symm=none int=(grid=ultrafine) guess=(read,tcheck) s
 table=(opt,rrhf)
 ----------------------------------------------------------------------
 -----
 title
 -----
 Symbolic Z-matrix:
 Charge =  0 Multiplicity = 1

 SCF Done:  E(RHF) =  -444.910589172     A.U. after   15 cycles
 Normal termination of Gaussian 16 at Wed Apr  9 00:31:08 2025.
 Gaussian 16:  ES64L-G16RevC.01  3-Jul-2019

 ----------------------------------------------------------------------
 #t hf aug-cc-pvdz iop(5/13=1,5/36=2,99/5=2) pseudo=read geom=check gue
 ss=(read,tcheck) scf=(maxcycle=1)
 ----------------------------------------------------------------------
 -----
 title
 -----
 Structure from the checkpoint file:  "BDE49_nonexpt_321_mol1.chk"
 Charge =  0 Multiplicity = 1

                         Standard orientation:
 ---------------------------------------------------------------------
 Center     Atomic      Atomic             Coordinates (Angstroms)
 Number     Number       Type             X           Y           Z
 ---------------------------------------------------------------------
      1          6           0       -1.944244   -1.480526    0.206642
      2          6           0       -0.553744   -1.450460    0.183538
      3          6           0       -2.651318   -0.292021    0.052337
      4          6           0       -1.961679    0.905400   -0.114578
      5          6           0       -0.563807    0.949809   -0.118813
      6          6           0        0.165412   -0.251915    0.029182
      7          1           0       -2.469222   -2.419926    0.338528
      8          1           0       -0.008495   -2.382071    0.307472
      9          5           0        1.742571   -0.335553    0.032772
     10          8           0        2.400854   -1.338393   -0.623192
     11          8           0        2.551198    0.544833    0.695156
     12          1           0       -2.519941    1.826963   -0.247074
     13          1           0       -3.735784   -0.295385    0.056434
     14          6           0        0.119480    2.291891   -0.286325
     15          1           0       -0.533646    2.997243   -0.804308
     16          1           0        1.050123    2.218173   -0.851013
     17          1           0        0.359008    2.743564    0.684620
     18          1           0        2.059832    1.186834    1.211467
     19          1           0        1.808251   -1.882218   -1.147595
 ---------------------------------------------------------------------

 SCF Done:  E(RHF) =  -446.945312179     A.U. after    2 cycles

 The electronic state is 1-A.
 Alpha  occ. eigenvalues --  -21.05235 -21.05136 -11.51860 -11.44447 -11.43291
 Alpha  occ. eigenvalues --  -11.41268 -11.40894 -11.39576 -11.36152  -7.66464
 Alpha  occ. eigenvalues --   -1.81387  -1.65042  -1.35379  -1.14989  -1.10264
 Alpha  occ. eigenvalues --   -1.00454  -0.87888  -0.84181  -0.75774  -0.70524
 Alpha  occ. eigenvalues --   -0.65439  -0.61606  -0.60008  -0.58829  -0.56558
 Alpha  occ. eigenvalues --   -0.56117  -0.52482  -0.50902  -0.47675  -0.46978
 Alpha  occ. eigenvalues --   -0.46321  -0.43105  -0.36010  -0.33374  -0.32874
 Alpha  occ. eigenvalues --   -0.32329
 Alpha virt. eigenvalues --    0.02812   0.04554   0.05051   0.05340   0.05732
 Alpha virt. eigenvalues --    0.05780   0.06125   0.06862   0.07723   0.08456
 Alpha virt. eigenvalues --    0.09223   0.10044   0.10468   0.10792   0.11662

 Mulliken charges:
               1
     1  C   -2.467992
     2  C    0.899285
     3  C   -1.351986
     4  C   -2.287950
     5  C    6.177443
     6  C   -3.699131
     7  H    1.553474
     8  H    1.753704
     9  B    5.714681
    10  O   -4.694876
    11  O   -4.933758
    12  H    1.810381
    13  H    1.541144
    14  C   -6.032182
    15  H    1.126316
    16  H    1.071454
    17  H    1.096028
    18  H    1.431054
    19  H    1.292910
 Sum of Mulliken charges =   0.00000

 Dipole moment (field-independent basis, Debye):
    X=             -1.9783    Y=              0.4685    Z=             -0.0519  Tot=              2.0336

 Test job not archived.
 1\1\GINC-SE166\SP\RHF\Aug-CC-pVDZ\C7H9B1O2\OHZDE\09-Apr-2025\0\\#t hf
 aug-cc-pvdz iop(5/13=1,5/36=2,99/5=2) pseudo=read geom=check guess=(re
 ad,tcheck) scf=(maxcycle=1)\\title\\0,1\C,0,-1.944244,-1.480526,0.2066
 42\C,0,-0.553744,-1.45046,0.183538\C,0,-2.651318,-0.292021,0.052337\C,
 0,-1.961679,0.9054,-0.114578\C,0,-0.563807,0.949809,-0.118813\C,0,0.16
 5412,-0.251915,0.029182\H,0,-2.469222,-2.419926,0.338528\H,0,-0.008495
 ,-2.382071,0.307472\B,0,1.742571,-0.335553,0.032772\O,0,2.400854,-1.33
 8393,-0.623192\O,0,2.551198,0.544833,0.695156\H,0,-2.519941,1.826963,-

 Normal termination of Gaussian 16 at Wed Apr  9 00:31:19 2025.
