 Gaussian 16, Revision C.01,

 ----------------------------------------------------------------------
 #t hf aug-cc-pvdz symm=none int=(grid=ultrafine) guess=(read,tcheck) s
 table=(opt,rrhf)
 ----------------------------------------------------------------------
 -----
 title
 -----
 Symbolic Z-matrix:
 Charge =  0 Multiplicity = 1

 SCF Done:  E(RHF) =  -644.869602916     A.U. after   15 cycles
 Normal termination of Gaussian 16 at Tue Apr  8 23:36:05 2025.
 Gaussian 16:  ES64L-G16RevC.01  3-Jul-2019

 ----------------------------------------------------------------------
 #t hf aug-cc-pvdz iop(5/13=1,5/36=2,99/5=2) pseudo=read geom=check gue
 ss=(read,tcheck) scf=(maxcycle=1)
 ----------------------------------------------------------------------
 -----
 title
 -----
 Structure from the checkpoint file:  "BDE49_nonexpt_1488_mol1.chk"
 Charge =  0 Multiplicity = 1

                         Standard orientation:
 ---------------------------------------------------------------------
 Center     Atomic      Atomic             Coordinates (Angstroms)
 Number     Number       Type             X           Y           Z
 ---------------------------------------------------------------------
      1          6           0       -1.329759   -0.002501   -0.031204
      2         15           0        0.011983   -1.288479    0.311220
      3          6           0        1.324070    0.027716   -0.059677
      4          6           0        0.708443    1.435357   -0.073122
      5          6           0       -0.772823    1.379982    0.325721
      6          8           0        2.487490   -0.196011   -0.252866
      7          1           0       -1.387689    2.145506   -0.149682
      8          1           0       -0.884857    1.494104    1.410956
      9          1           0        0.824275    1.798194   -1.100327
     10          1           0        1.308117    2.091316    0.562320
     11          8           0       -2.443130   -0.221064   -0.422582
     12          1           0        0.025935   -1.908662   -0.958283
 ---------------------------------------------------------------------

 SCF Done:  E(RHF) =  -646.376971908     A.U. after    2 cycles

 The electronic state is 1-A.
 Alpha  occ. eigenvalues -- -105.20396 -21.08389 -21.08193 -11.51516 -11.50494
 Alpha  occ. eigenvalues --  -11.45203 -11.40599  -2.78519  -1.73865  -1.73083
 Alpha  occ. eigenvalues --   -1.51197  -1.48224  -1.47008  -1.23842  -1.00213
 Alpha  occ. eigenvalues --   -0.87376  -0.71284  -0.69654  -0.66513  -0.61606
 Alpha  occ. eigenvalues --   -0.57196  -0.53028  -0.52676  -0.46736  -0.45824
 Alpha  occ. eigenvalues --   -0.43955  -0.38064  -0.22877  -0.14595  -0.05026
 Alpha virt. eigenvalues --    0.03186   0.05396   0.05728   0.06064   0.07213
 Alpha virt. eigenvalues --    0.07749   0.08441   0.09186   0.11399   0.12169
 Alpha virt. eigenvalues --    0.12589   0.13301   0.13369   0.14195   0.14303

 Mulliken charges:
               1
     1  C    2.023486
     2  P    3.362017
     3  C    1.675479
     4  C   -3.104728
     5  C   -3.092002
     6  O   -2.990122
     7  H    1.318967
     8  H    1.397288
     9  H    1.436861
    10  H    1.382007
    11  O   -3.120441
    12  H   -0.288812
 Sum of Mulliken charges =   0.00000

 Dipole moment (field-independent basis, Debye):
    X=             -0.1629    Y=             -3.0824    Z=              3.3418  Tot=              4.5492

 Test job not archived.
 1\1\GINC-SE102\SP\RHF\Aug-CC-pVDZ\C4H5O2P1\OHZDE\08-Apr-2025\0\\#t hf
 aug-cc-pvdz iop(5/13=1,5/36=2,99/5=2) pseudo=read geom=check guess=(re
 ad,tcheck) scf=(maxcycle=1)\\title\\0,1\C,0,-1.329759,-0.002501,-0.031
 204\P,0,0.011983,-1.288479,0.31122\C,0,1.32407,0.027716,-0.059677\C,0,
 0.708443,1.435357,-0.073122\C,0,-0.772823,1.379982,0.325721\O,0,2.4874
 9,-0.196011,-0.252866\H,0,-1.387689,2.145506,-0.149682\H,0,-0.884857,1
 .494104,1.410956\H,0,0.824275,1.798194,-1.100327\H,0,1.308117,2.091316
 ,0.56232\O,0,-2.44313,-0.221064,-0.422582\H,0,0.025935,-1.908662,-0.95

 Normal termination of Gaussian 16 at Tue Apr  8 23:36:10 2025.
