 Gaussian 16, Revision C.01,

 ----------------------------------------------------------------------
 #t hf aug-cc-pvdz symm=none int=(grid=ultrafine) guess=(read,tcheck) s
 table=opt
 ----------------------------------------------------------------------
 -----
 title
 -----
 Symbolic Z-matrix:
 Charge =  0 Multiplicity = 2

 SCF Done:  E(UHF) =  -1309.07134696     A.U. after   18 cycles
 Normal termination of Gaussian 16 at Tue Apr  8 23:06:07 2025.
 Gaussian 16:  ES64L-G16RevC.01  3-Jul-2019

 ----------------------------------------------------------------------
 #t hf aug-cc-pvdz iop(5/13=1,5/36=2,99/5=2) pseudo=read geom=check gue
 ss=(read,tcheck) scf=(maxcycle=1)
 ----------------------------------------------------------------------
 -----
 title
 -----
 Structure from the checkpoint file:  "BDE49_expt_381_mol2.chk"
 Charge =  0 Multiplicity = 2

                         Standard orientation:
 ---------------------------------------------------------------------
 Center     Atomic      Atomic             Coordinates (Angstroms)
 Number     Number       Type             X           Y           Z
 ---------------------------------------------------------------------
      1          6           0        0.144708    0.895346    1.373181
      2         16           0       -0.849568    1.560001    0.000000
      3          6           0        0.144708    0.895346   -1.373181
      4         16           0        0.144708   -0.925357   -1.556202
      5          1           0        1.173448    1.248669   -1.288230
      6          1           0       -0.291270    1.285197   -2.292667
      7         16           0        0.144708   -0.925357    1.556202
      8          1           0       -0.291270    1.285197    2.292667
      9          1           0        1.173448    1.248669    1.288230
     10          6           0        0.726245   -1.449342   -0.000000
     11          1           0        1.104093   -2.464420   -0.000000
 ---------------------------------------------------------------------

 SCF Done:  E(UHF) =  -1310.30992997     A.U. after    2 cycles

 The electronic state is 2-A'.
 Alpha  occ. eigenvalues --  -75.70240 -75.70098 -75.69631 -13.15238 -13.14775
 Alpha  occ. eigenvalues --  -13.14005 -13.10151 -13.10144 -13.07269 -13.03918
 Alpha  occ. eigenvalues --  -13.03518 -13.01641 -11.43675 -11.43395 -11.42300
 Alpha  occ. eigenvalues --   -8.04482  -8.04203  -8.03663  -1.33400  -1.18017
 Alpha  occ. eigenvalues --   -1.17975  -0.95891  -0.93812  -0.80620  -0.66399
 Alpha  occ. eigenvalues --   -0.62741  -0.56423  -0.52066  -0.51707  -0.50621
 Alpha  occ. eigenvalues --   -0.49090  -0.36445  -0.35873  -0.22674  -0.22234
 Alpha  occ. eigenvalues --   -0.18471
 Alpha virt. eigenvalues --    0.02951   0.03460   0.03717   0.05122   0.07302
 Alpha virt. eigenvalues --    0.07502   0.07940   0.09869   0.11571   0.11976
 Alpha virt. eigenvalues --    0.13276   0.14193   0.14383   0.14692   0.16394

  Beta  occ. eigenvalues --  -75.70206 -75.70067 -75.69633 -13.15427 -13.14796
  Beta  occ. eigenvalues --  -13.14056 -13.10227 -13.10203 -13.07278 -13.03427
  Beta  occ. eigenvalues --  -13.03379 -13.01411 -11.43613 -11.43298 -11.40069
  Beta  occ. eigenvalues --   -8.04444  -8.04164  -8.03664  -1.32178  -1.17513
  Beta  occ. eigenvalues --   -1.15957  -0.95611  -0.91394  -0.77773  -0.65990
  Beta  occ. eigenvalues --   -0.62546  -0.54069  -0.51076  -0.50552  -0.50409
  Beta  occ. eigenvalues --   -0.39951  -0.34422  -0.30935  -0.21099  -0.21085
  Beta virt. eigenvalues --    0.01856   0.03499   0.03722   0.05082   0.07276
  Beta virt. eigenvalues --    0.07347   0.07954   0.08079   0.10086   0.11738
  Beta virt. eigenvalues --    0.12083   0.13598   0.14423   0.14767   0.15354

 Mulliken charges and spin densities:
               1          2
     1  C   -4.499974  -0.038684
     2  S    1.278842   0.002289
     3  C   -4.499974  -0.038684
     4  S    1.431082   0.003271
     5  H    1.613230   0.007015
     6  H    1.631385   0.007495
     7  S    1.431082   0.003271
     8  H    1.631385   0.007495
     9  H    1.613230   0.007015
    10  C   -3.208984   1.115880
    11  H    1.578695  -0.076364
 Sum of Mulliken charges =  -0.00000   1.00000

 Dipole moment (field-independent basis, Debye):
    X=             -1.3903    Y=              0.0697    Z=              0.0000  Tot=              1.3921
                          Isotropic Fermi Contact Couplings
        Atom                 a.u.       MegaHertz       Gauss      10(-4) cm-1
     1  C(13)              0.01572      17.67618       6.30730       5.89614
     2  S(33)              0.06254      21.47976       7.66451       7.16488
     3  C(13)              0.01572      17.67618       6.30730       5.89614
     4  S(33)              0.02218       7.61796       2.71828       2.54108
     5  H(1)               0.00076       3.41815       1.21968       1.14017
     6  H(1)              -0.00096      -4.30993      -1.53789      -1.43764
     7  S(33)              0.02218       7.61796       2.71828       2.54108
     8  H(1)              -0.00096      -4.30993      -1.53789      -1.43764

 Normal termination of Gaussian 16 at Tue Apr  8 23:06:11 2025.
