 Gaussian 16, Revision C.01,

 ----------------------------------------------------------------------
 #t hf aug-cc-pvdz symm=none int=(grid=ultrafine) guess=(read,tcheck) s
 table=(opt,rrhf)
 ----------------------------------------------------------------------
 -----
 title
 -----
 Symbolic Z-matrix:
 Charge =  0 Multiplicity = 1

 SCF Done:  E(RHF) =  -1510.37518954     A.U. after   14 cycles
 Normal termination of Gaussian 16 at Tue Apr  8 23:50:25 2025.
 Gaussian 16:  ES64L-G16RevC.01  3-Jul-2019

 ----------------------------------------------------------------------
 #t hf aug-cc-pvdz iop(5/13=1,5/36=2,99/5=2) pseudo=read geom=check gue
 ss=(read,tcheck) scf=(maxcycle=1)
 ----------------------------------------------------------------------
 -----
 title
 -----
 Structure from the checkpoint file:  "BDE49_nonexpt_185_mol1.chk"
 Charge =  0 Multiplicity = 1

                         Standard orientation:
 ---------------------------------------------------------------------
 Center     Atomic      Atomic             Coordinates (Angstroms)
 Number     Number       Type             X           Y           Z
 ---------------------------------------------------------------------
      1         17           0        1.577743    1.565622   -0.039394
      2         17           0        1.728780   -1.467208    0.006427
      3          5           0        0.791362    0.001083   -0.011837
      4         15           0       -1.139111   -0.036161    0.126733
      5          8           0       -1.606213    0.133775    1.512295
      6          8           0       -1.722687    1.071317   -0.893347
      7          1           0       -1.919998    1.902040   -0.442722
      8          8           0       -1.509494   -1.386029   -0.642974
      9          1           0       -2.453877   -1.590583   -0.646461
 ---------------------------------------------------------------------

 SCF Done:  E(RHF) =  -1512.08819082     A.U. after    2 cycles

 The electronic state is 1-A.
 Alpha  occ. eigenvalues -- -105.31120 -99.92528 -99.92399 -21.12853 -21.12488
 Alpha  occ. eigenvalues --  -21.03224 -10.49863 -10.49619  -9.69810  -9.69541
 Alpha  occ. eigenvalues --   -9.69331  -9.69200  -9.69152  -9.68974  -7.74413
 Alpha  occ. eigenvalues --   -2.93467  -1.98588  -1.90213  -1.80952  -1.56354
 Alpha  occ. eigenvalues --   -1.40860  -1.39955  -1.32188  -1.26567  -0.82536
 Alpha  occ. eigenvalues --   -0.71490  -0.65973  -0.61701  -0.60168  -0.59845
 Alpha  occ. eigenvalues --   -0.54604  -0.53889  -0.52387  -0.45893  -0.42277
 Alpha  occ. eigenvalues --   -0.35745  -0.35100  -0.30463  -0.25972  -0.16569
 Alpha virt. eigenvalues --    0.02153   0.03478   0.04070   0.04348   0.04999
 Alpha virt. eigenvalues --    0.06711   0.09688   0.10354   0.11377   0.12272
 Alpha virt. eigenvalues --    0.13747   0.14539   0.15573   0.16224   0.16579

 Mulliken charges:
               1
     1  Cl  -1.104627
     2  Cl  -1.156856
     3  B    1.681023
     4  P    7.137026
     5  O   -2.823102
     6  O   -2.718772
     7  H    0.856424
     8  O   -2.781949
     9  H    0.910832
 Sum of Mulliken charges =  -0.00000

 Dipole moment (field-independent basis, Debye):
    X=             -1.5885    Y=             -0.2366    Z=             -2.6644  Tot=              3.1110

 Test job not archived.
 1\1\GINC-SE453\SP\RHF\Aug-CC-pVDZ\B1Cl2H2O3P1\OHZDE\08-Apr-2025\0\\#t
 hf aug-cc-pvdz iop(5/13=1,5/36=2,99/5=2) pseudo=read geom=check guess=
 (read,tcheck) scf=(maxcycle=1)\\title\\0,1\Cl,0,1.577743,-1.565622,0.0
 39394\Cl,0,1.72878,1.467208,-0.006427\B,0,0.791362,-0.001083,0.011837\
 P,0,-1.139111,0.036161,-0.126733\O,0,-1.606213,-0.133775,-1.512295\O,0
 ,-1.722687,-1.071317,0.893347\H,0,-1.919998,-1.90204,0.442722\O,0,-1.5
 09494,1.386029,0.642974\H,0,-2.453877,1.590584,0.646461\\Version=ES64L
 -G16RevC.01\State=1-A\HF=-1512.0881908\RMSD=1.309e-01\Dipole=-0.624964

 Normal termination of Gaussian 16 at Tue Apr  8 23:50:29 2025.
