 Gaussian 16, Revision C.01,

 ----------------------------------------------------------------------
 #t hf aug-cc-pvdz symm=none int=(grid=ultrafine) guess=(read,tcheck) s
 table=(opt,rrhf)
 ----------------------------------------------------------------------
 -----
 title
 -----
 Symbolic Z-matrix:
 Charge =  0 Multiplicity = 1

 SCF Done:  E(RHF) =  -1145.21934511     A.U. after   15 cycles

 1\1\GINC-SE362\Stability\RHF\Aug-CC-pVDZ\C9H16S2\OHZDE\09-Apr-2025\0\\
 #t hf aug-cc-pvdz symm=none int=(grid=ultrafine) guess=(read,tcheck) s
 table=(opt,rrhf)\\title\\0,1\S,0,-0.345691,-1.638636,0.262806\S,0,0.77
 2887,-0.415023,-0.992179\C,0,2.146188,0.349746,0.053094\C,0,3.039892,-
 0.75977,0.615164\H,0,3.872561,-0.318699,1.174687\H,0,3.451456,-1.37879
 9,-0.184746\H,0,2.482583,-1.405879,1.296949\C,0,2.913697,1.197632,-0.9
 73509\H,0,3.775824,1.663515,-0.485781\H,0,2.287927,1.993541,-1.385059\
 H,0,3.28549,0.587657,-1.800847\C,0,1.591075,1.225541,1.174604\H,0,0.95

 Normal termination of Gaussian 16 at Wed Apr  9 00:30:57 2025.
 Gaussian 16:  ES64L-G16RevC.01  3-Jul-2019

 ----------------------------------------------------------------------
 #t hf aug-cc-pvdz iop(5/13=1,5/36=2,99/5=2) pseudo=read geom=check gue
 ss=(read,tcheck) scf=(maxcycle=1)
 ----------------------------------------------------------------------
 -----
 title
 -----
 Structure from the checkpoint file:  "BDE49_nonexpt_2747_mol1.chk"
 Charge =  0 Multiplicity = 1

                         Standard orientation:
 ---------------------------------------------------------------------
 Center     Atomic      Atomic             Coordinates (Angstroms)
 Number     Number       Type             X           Y           Z
 ---------------------------------------------------------------------
      1         16           0       -0.345691   -1.638636    0.262806
      2         16           0        0.772887   -0.415023   -0.992179
      3          6           0        2.146188    0.349746    0.053094
      4          6           0        3.039892   -0.759770    0.615164
      5          1           0        3.872561   -0.318699    1.174687
      6          1           0        3.451456   -1.378799   -0.184746
      7          1           0        2.482583   -1.405879    1.296949
      8          6           0        2.913697    1.197632   -0.973509
      9          1           0        3.775824    1.663515   -0.485781
     10          1           0        2.287927    1.993541   -1.385059
     11          1           0        3.285490    0.587657   -1.800847
     12          6           0        1.591075    1.225541    1.174604
     13          1           0        0.951861    2.018595    0.783536
     14          1           0        2.419850    1.685215    1.724989
     15          1           0        1.008164    0.632843    1.881608
     16          6           0       -1.983166   -0.764819    0.537761
     17          6           0       -1.891205    0.542134    1.264374
     18          6           0       -2.299502    1.563856    0.511948
     19          6           0       -2.762986    1.127292   -0.855191
     20          6           0       -2.772316   -0.419488   -0.753744
     21          1           0       -2.076668    1.486555   -1.629837
     22          1           0       -3.752169    1.527180   -1.101295
     23          1           0       -3.799119   -0.778037   -0.643204
     24          1           0       -2.351672   -0.905068   -1.633687
     25          1           0       -2.483103   -1.541146    1.128063
     26          1           0       -1.503896    0.616269    2.272762
     27          1           0       -2.294295    2.602056    0.824822
 ---------------------------------------------------------------------

 SCF Done:  E(RHF) =  -1147.47452059     A.U. after    2 cycles

 The electronic state is 1-A.
 Alpha  occ. eigenvalues --  -75.68999 -75.68634 -13.15740 -13.13689 -13.10583
 Alpha  occ. eigenvalues --  -13.08977 -13.06608 -13.06372 -11.46645 -11.44964
 Alpha  occ. eigenvalues --  -11.43568 -11.40392 -11.39483 -11.38920 -11.38256
 Alpha  occ. eigenvalues --  -11.35548 -11.35466  -8.02806  -8.02475  -1.34975
 Alpha  occ. eigenvalues --   -1.29633  -1.16136  -1.04159  -1.03496  -1.01167
 Alpha  occ. eigenvalues --   -1.00648  -0.93926  -0.81719  -0.77312  -0.75141
 Alpha  occ. eigenvalues --   -0.69927  -0.63577  -0.62076  -0.60865  -0.60652
 Alpha  occ. eigenvalues --   -0.54792  -0.54359  -0.53740  -0.51508  -0.50928
 Alpha  occ. eigenvalues --   -0.48924  -0.47416  -0.45720  -0.45411  -0.44975
 Alpha  occ. eigenvalues --   -0.43652  -0.38078  -0.32922  -0.31858  -0.24038
 Alpha  occ. eigenvalues --   -0.21413
 Alpha virt. eigenvalues --    0.03652   0.04134   0.04985   0.05250   0.05492
 Alpha virt. eigenvalues --    0.05712   0.05789   0.06015   0.06458   0.06535
 Alpha virt. eigenvalues --    0.07098   0.07870   0.08069   0.08836   0.09940

 Mulliken charges:
               1
     1  S   -0.491801
     2  S   -0.665876
     3  C    3.176286
     4  C   -5.064932
     5  H    1.189821
     6  H    1.414039
     7  H    1.366353
     8  C   -4.617032
     9  H    1.217441
    10  H    1.341560
    11  H    1.355477
    12  C   -4.950732
    13  H    1.596729
    14  H    1.069746
    15  H    1.801315
    16  C   -1.432326
    17  C   -0.428036
    18  C   -0.836039
    19  C   -3.843213
    20  C   -3.709730
    21  H    1.422230
    22  H    1.259556
    23  H    1.262426
    24  H    1.762784
    25  H    1.562987
    26  H    1.696570
    27  H    1.544395
 Sum of Mulliken charges =  -0.00000

 Dipole moment (field-independent basis, Debye):
    X=              0.1032    Y=              0.0801    Z=             -0.4544  Tot=              0.4728

 Test job not archived.
 1\1\GINC-SE362\SP\RHF\Aug-CC-pVDZ\C9H16S2\OHZDE\09-Apr-2025\0\\#t hf a
 ug-cc-pvdz iop(5/13=1,5/36=2,99/5=2) pseudo=read geom=check guess=(rea
 d,tcheck) scf=(maxcycle=1)\\title\\0,1\S,0,-0.345691,-1.638636,0.26280
 6\S,0,0.772887,-0.415023,-0.992179\C,0,2.146188,0.349746,0.053094\C,0,
 3.039892,-0.75977,0.615164\H,0,3.872561,-0.318699,1.174687\H,0,3.45145
 6,-1.378799,-0.184746\H,0,2.482583,-1.405879,1.296949\C,0,2.913697,1.1
 97632,-0.973509\H,0,3.775824,1.663515,-0.485781\H,0,2.287927,1.993541,
 -1.385059\H,0,3.28549,0.587657,-1.800847\C,0,1.591075,1.225541,1.17460

 Normal termination of Gaussian 16 at Wed Apr  9 00:31:16 2025.
