 Gaussian 16, Revision C.01,

 ----------------------------------------------------------------------
 #t hf aug-cc-pvdz symm=none int=(grid=ultrafine) guess=(read,tcheck) s
 table=(opt,rrhf)
 ----------------------------------------------------------------------
 -----
 title
 -----
 Symbolic Z-matrix:
 Charge =  0 Multiplicity = 1

 SCF Done:  E(RHF) =  -533.819256902     A.U. after   14 cycles
 Normal termination of Gaussian 16 at Wed Apr  9 00:01:59 2025.
 Gaussian 16:  ES64L-G16RevC.01  3-Jul-2019

 ----------------------------------------------------------------------
 #t hf aug-cc-pvdz iop(5/13=1,5/36=2,99/5=2) pseudo=read geom=check gue
 ss=(read,tcheck) scf=(maxcycle=1)
 ----------------------------------------------------------------------
 -----
 title
 -----
 Structure from the checkpoint file:  "BDE49_nonexpt_2142_mol1.chk"
 Charge =  0 Multiplicity = 1

                         Standard orientation:
 ---------------------------------------------------------------------
 Center     Atomic      Atomic             Coordinates (Angstroms)
 Number     Number       Type             X           Y           Z
 ---------------------------------------------------------------------
      1         14           0       -0.701454   -0.718903    0.000011
      2          7           0        0.961860    0.145213    0.000053
      3          8           0        1.005074    1.372572   -0.000029
      4          8           0        1.944882   -0.590402   -0.000045
      5          6           0       -2.040397    0.566522    0.000008
      6          1           0       -1.966470    1.202786    0.884446
      7          1           0       -3.023200    0.085207   -0.000019
      8          1           0       -1.966436    1.202816   -0.884405
      9          1           0       -0.656933   -1.549591    1.215930
     10          1           0       -0.656894   -1.549557   -1.215930
 ---------------------------------------------------------------------

 SCF Done:  E(RHF) =  -535.037468730     A.U. after    2 cycles

 The electronic state is 1-A.
 Alpha  occ. eigenvalues --  -76.27534 -21.09335 -21.09162 -15.95901 -11.38263
 Alpha  occ. eigenvalues --   -5.61226  -2.25642  -2.24316  -2.23178  -1.96964
 Alpha  occ. eigenvalues --   -1.67876  -1.08335  -0.98806  -0.75477  -0.65476
 Alpha  occ. eigenvalues --   -0.65220  -0.60093  -0.59236  -0.58149  -0.50334
 Alpha  occ. eigenvalues --   -0.46443  -0.31984  -0.31587  -0.30805
 Alpha virt. eigenvalues --    0.02560   0.04807   0.05412   0.05778   0.07236
 Alpha virt. eigenvalues --    0.07435   0.07731   0.09961   0.11765   0.12106
 Alpha virt. eigenvalues --    0.13596   0.14791   0.15443   0.15582   0.17162

 Mulliken charges:
               1
     1  Si   5.642571
     2  N    3.463829
     3  O   -2.124610
     4  O   -2.454824
     5  C   -4.919654
     6  H    1.334075
     7  H    1.321711
     8  H    1.334081
     9  H   -1.798581
    10  H   -1.798598
 Sum of Mulliken charges =   0.00000

 Dipole moment (field-independent basis, Debye):
    X=             -3.1215    Y=             -0.3407    Z=             -0.0000  Tot=              3.1401

 Test job not archived.
 1\1\GINC-SE336\SP\RHF\Aug-CC-pVDZ\C1H5N1O2Si1\OHZDE\09-Apr-2025\0\\#t
 hf aug-cc-pvdz iop(5/13=1,5/36=2,99/5=2) pseudo=read geom=check guess=
 (read,tcheck) scf=(maxcycle=1)\\title\\0,1\Si,0,0.701454,-0.718903,-0.
 000011\N,0,-0.96186,0.145213,-0.000053\O,0,-1.005074,1.372572,0.000029
 \O,0,-1.944882,-0.590402,0.000045\C,0,2.040397,0.566522,-0.000008\H,0,
 1.96647,1.202786,-0.884446\H,0,3.0232,0.085207,0.000019\H,0,1.966436,1
 .202816,0.884405\H,0,0.656933,-1.549591,-1.21593\H,0,0.656894,-1.54955
 7,1.21593\\Version=ES64L-G16RevC.01\State=1-A\HF=-535.0374687\RMSD=8.3

 Normal termination of Gaussian 16 at Wed Apr  9 00:02:02 2025.
