 Gaussian 16, Revision C.01,

 ----------------------------------------------------------------------
 #t hf aug-cc-pvdz symm=none int=(grid=ultrafine) guess=(read,tcheck) s
 table=opt
 ----------------------------------------------------------------------
 -----
 title
 -----
 Symbolic Z-matrix:
 Charge =  0 Multiplicity = 2

 SCF Done:  E(UHF) =  -612.666403957     A.U. after   14 cycles
 Normal termination of Gaussian 16 at Wed Apr  9 00:35:21 2025.
 Gaussian 16:  ES64L-G16RevC.01  3-Jul-2019

 ----------------------------------------------------------------------
 #t hf aug-cc-pvdz iop(5/13=1,5/36=2,99/5=2) pseudo=read geom=check gue
 ss=(read,tcheck) scf=(maxcycle=1)
 ----------------------------------------------------------------------
 -----
 title
 -----
 Structure from the checkpoint file:  "BDE49_nonexpt_457_mol2.chk"
 Charge =  0 Multiplicity = 2

                         Standard orientation:
 ---------------------------------------------------------------------
 Center     Atomic      Atomic             Coordinates (Angstroms)
 Number     Number       Type             X           Y           Z
 ---------------------------------------------------------------------
      1          1           0        2.973898   -0.000084    0.798474
      2          5           0        2.032591   -0.000077    0.087797
      3         14           0        0.067684   -0.000005    0.011846
      4          9           0       -0.418701   -1.293010   -0.772970
      5          9           0       -0.727646    0.000012    1.389992
      6          9           0       -0.418590    1.293057   -0.772946
 ---------------------------------------------------------------------

 SCF Done:  E(UHF) =  -613.910938371     A.U. after    2 cycles

 The electronic state is 2-A.
 Alpha  occ. eigenvalues --  -76.31764 -29.29650 -29.29644 -29.29294  -7.68359
 Alpha  occ. eigenvalues --   -5.68466  -2.32778  -2.32243  -2.29337  -1.02804
 Alpha  occ. eigenvalues --   -0.80860  -0.72558  -0.72048  -0.54918  -0.43102
 Alpha  occ. eigenvalues --   -0.42851  -0.42577  -0.40221  -0.37101  -0.34396
 Alpha  occ. eigenvalues --   -0.30917  -0.30900  -0.28604  -0.28136
 Alpha virt. eigenvalues --    0.01389   0.03704   0.05178   0.07155   0.07629
 Alpha virt. eigenvalues --    0.08481   0.10045   0.10210   0.12761   0.20309
 Alpha virt. eigenvalues --    0.20348   0.21195   0.23854   0.24599   0.24772

  Beta  occ. eigenvalues --  -76.31768 -29.29664 -29.29659 -29.29193  -7.66729
  Beta  occ. eigenvalues --   -5.68475  -2.32776  -2.32213  -2.29279  -1.02063
  Beta  occ. eigenvalues --   -0.75291  -0.72565  -0.71709  -0.54180  -0.42972
  Beta  occ. eigenvalues --   -0.42796  -0.42371  -0.37112  -0.36335  -0.32915
  Beta  occ. eigenvalues --   -0.30922  -0.30211  -0.28543
  Beta virt. eigenvalues --    0.02384   0.03083   0.03963   0.07108   0.08496
  Beta virt. eigenvalues --    0.08587   0.08974   0.10080   0.10389   0.13591
  Beta virt. eigenvalues --    0.20606   0.21421   0.22252   0.24470   0.25147

 Mulliken charges and spin densities:
               1          2
     1  H   -0.943849  -0.039920
     2  B   -1.221229   1.142415
     3  Si   4.323569  -0.090806
     4  F   -0.631095   0.002261
     5  F   -0.896318  -0.016210
     6  F   -0.631078   0.002261
 Sum of Mulliken charges =  -0.00000   1.00000

 Dipole moment (field-independent basis, Debye):
    X=             -2.2566    Y=              0.0001    Z=              0.1968  Tot=              2.2652
                          Isotropic Fermi Contact Couplings
        Atom                 a.u.       MegaHertz       Gauss      10(-4) cm-1
     1  H(1)              -0.01068     -47.73576     -17.03331     -15.92293
     2  B(11)              0.10285     147.52229      52.63962      49.20814
     3  Si(29)            -0.00666       5.91539       2.11076       1.97316
     4  F(19)             -0.00441     -18.55704      -6.62161      -6.18996
     5  F(19)              0.01512      63.60823      22.69700      21.21742
     6  F(19)             -0.00441     -18.55679      -6.62152      -6.18988
 --------------------------------------------------------
       Center         ----  Spin Dipole Couplings  ----

 Normal termination of Gaussian 16 at Wed Apr  9 00:35:25 2025.
