 Gaussian 16, Revision C.01,

 ----------------------------------------------------------------------
 #t hf aug-cc-pvdz symm=none int=(grid=ultrafine) guess=(read,tcheck) s
 table=(opt,rrhf)
 ----------------------------------------------------------------------
 -----
 title
 -----
 Symbolic Z-matrix:
 Charge =  0 Multiplicity = 1

 SCF Done:  E(RHF) =  -621.432933347     A.U. after   15 cycles
 Normal termination of Gaussian 16 at Tue Apr  8 23:09:54 2025.
 Gaussian 16:  ES64L-G16RevC.01  3-Jul-2019

 ----------------------------------------------------------------------
 #t hf aug-cc-pvdz iop(5/13=1,5/36=2,99/5=2) pseudo=read geom=check gue
 ss=(read,tcheck) scf=(maxcycle=1)
 ----------------------------------------------------------------------
 -----
 title
 -----
 Structure from the checkpoint file:  "BDE49_expt_464_mol1.chk"
 Charge =  0 Multiplicity = 1

                         Standard orientation:
 ---------------------------------------------------------------------
 Center     Atomic      Atomic             Coordinates (Angstroms)
 Number     Number       Type             X           Y           Z
 ---------------------------------------------------------------------
      1          6           0       -0.322194   -1.203824   -0.030325
      2          6           0       -1.708021   -1.207268   -0.013197
      3          6           0       -2.427726   -0.000000   -0.001153
      4          6           0        0.384710    0.000000   -0.040264
      5          6           0       -0.322194    1.203824   -0.030325
      6          6           0       -1.708021    1.207268   -0.013197
      7          1           0        0.216616   -2.143132   -0.044415
      8          1           0       -2.244822   -2.150067   -0.015829
      9          7           0       -3.812960   -0.000000   -0.039015
     10          1           0       -4.271635   -0.841829    0.273498
     11          1           0       -4.271635    0.841829    0.273498
     12          6           0        1.879849    0.000000    0.001731
     13          9           0        2.409801   -1.089419   -0.602385
     14          9           0        2.409801    1.089419   -0.602383
     15          9           0        2.361729   -0.000001    1.272211
     16          1           0       -2.244822    2.150067   -0.015829
     17          1           0        0.216616    2.143132   -0.044415
 ---------------------------------------------------------------------

 SCF Done:  E(RHF) =  -623.964746250     A.U. after    2 cycles

 The electronic state is 1-A.
 Alpha  occ. eigenvalues --  -29.29574 -29.29511 -29.28952 -15.77617 -11.60690
 Alpha  occ. eigenvalues --  -11.53297 -11.46859 -11.45584 -11.43714 -11.41863
 Alpha  occ. eigenvalues --  -11.37889  -1.45740  -1.39609  -1.25989  -1.11465
 Alpha  occ. eigenvalues --   -1.07020  -0.91917  -0.88671  -0.86086  -0.83937
 Alpha  occ. eigenvalues --   -0.76157  -0.70380  -0.69117  -0.62422  -0.59669
 Alpha  occ. eigenvalues --   -0.56056  -0.55074  -0.52006  -0.46272  -0.46149
 Alpha  occ. eigenvalues --   -0.45451  -0.42263  -0.41996  -0.35582  -0.35469
 Alpha  occ. eigenvalues --   -0.34079  -0.29176  -0.28444  -0.24106  -0.22474
 Alpha  occ. eigenvalues --   -0.19942
 Alpha virt. eigenvalues --    0.03154   0.04572   0.04627   0.06656   0.07011
 Alpha virt. eigenvalues --    0.08676   0.09595   0.10565   0.10745   0.12095
 Alpha virt. eigenvalues --    0.12191   0.12689   0.12976   0.13590   0.14042

 Mulliken charges:
               1
     1  C   -1.811081
     2  C   -1.823953
     3  C    0.730031
     4  C    2.100872
     5  C   -1.811078
     6  C   -1.823952
     7  H    1.871380
     8  H    1.708802
     9  N   -4.096464
    10  H    0.651234
    11  H    0.651234
    12  C   -0.648161
    13  F    0.281936
    14  F    0.281938
    15  F    0.157082
    16  H    1.708802
    17  H    1.871380
 Sum of Mulliken charges =  -0.00000

 Dipole moment (field-independent basis, Debye):
    X=             -0.9242    Y=              0.0000    Z=              0.7983  Tot=              1.2212

 Test job not archived.
 1\1\GINC-SE398\SP\RHF\Aug-CC-pVDZ\C7H6F3N1\OHZDE\08-Apr-2025\0\\#t hf
 aug-cc-pvdz iop(5/13=1,5/36=2,99/5=2) pseudo=read geom=check guess=(re
 ad,tcheck) scf=(maxcycle=1)\\title\\0,1\C,0,-0.322194,-1.203824,-0.030
 325\C,0,-1.708021,-1.207268,-0.013197\C,0,-2.427726,0.,-0.001153\C,0,0
 .38471,0.,-0.040264\C,0,-0.322194,1.203824,-0.030325\C,0,-1.708021,1.2
 07268,-0.013197\H,0,0.216616,-2.143132,-0.044415\H,0,-2.244822,-2.1500
 67,-0.015829\N,0,-3.81296,0.,-0.039015\H,0,-4.271635,-0.841829,0.27349
 8\H,0,-4.271635,0.841829,0.273498\C,0,1.879849,0.,0.001731\F,0,2.40980

 Normal termination of Gaussian 16 at Tue Apr  8 23:10:03 2025.
