 Gaussian 16, Revision C.01,

 ----------------------------------------------------------------------
 #t hf aug-cc-pvdz symm=none int=(grid=ultrafine) guess=(read,tcheck) s
 table=(opt,rrhf)
 ----------------------------------------------------------------------
 -----
 title
 -----
 Symbolic Z-matrix:
 Charge =  0 Multiplicity = 1

 SCF Done:  E(RHF) =  -702.593270981     A.U. after   15 cycles
 Normal termination of Gaussian 16 at Tue Apr  8 23:18:50 2025.
 Gaussian 16:  ES64L-G16RevC.01  3-Jul-2019

 ----------------------------------------------------------------------
 #t hf aug-cc-pvdz iop(5/13=1,5/36=2,99/5=2) pseudo=read geom=check gue
 ss=(read,tcheck) scf=(maxcycle=1)
 ----------------------------------------------------------------------
 -----
 title
 -----
 Structure from the checkpoint file:  "BDE49_nonexpt_1069_mol1.chk"
 Charge =  0 Multiplicity = 1

                         Standard orientation:
 ---------------------------------------------------------------------
 Center     Atomic      Atomic             Coordinates (Angstroms)
 Number     Number       Type             X           Y           Z
 ---------------------------------------------------------------------
      1         17           0        1.740618   -0.457054   -0.000007
      2          8           0        0.748341    0.974771    0.000003
      3          6           0       -0.589187    0.748981    0.000005
      4          7           0       -1.127064   -0.392064    0.000000
      5          1           0       -1.111528    1.703931    0.000012
      6          8           0       -2.529787   -0.284351    0.000006
      7          1           0       -2.802842   -1.206819    0.000002
 ---------------------------------------------------------------------

 SCF Done:  E(RHF) =  -703.855971140     A.U. after    2 cycles

 The electronic state is 1-A.
 Alpha  occ. eigenvalues --  -99.95795 -21.15527 -21.11219 -15.78590 -11.47973
 Alpha  occ. eigenvalues --  -10.52477  -9.72325  -9.71536  -9.71346  -1.84455
 Alpha  occ. eigenvalues --   -1.78522  -1.29522  -1.22198  -0.85636  -0.71713
 Alpha  occ. eigenvalues --   -0.63771  -0.62821  -0.58559  -0.56486  -0.55025
 Alpha  occ. eigenvalues --   -0.47058  -0.43125  -0.38547  -0.28629
 Alpha virt. eigenvalues --    0.02507   0.04388   0.05648   0.08810   0.10235
 Alpha virt. eigenvalues --    0.11948   0.13588   0.13648   0.13839   0.16132
 Alpha virt. eigenvalues --    0.17613   0.17954   0.19569   0.20669   0.21465

 Mulliken charges:
               1
     1  Cl   0.492285
     2  O   -2.225035
     3  C    1.754069
     4  N   -0.286284
     5  H    1.631547
     6  O   -2.195128
     7  H    0.828546
 Sum of Mulliken charges =  -0.00000

 Dipole moment (field-independent basis, Debye):
    X=             -1.8371    Y=              1.5804    Z=              0.0000  Tot=              2.4233

 Test job not archived.
 1\1\GINC-SE072\SP\RHF\Aug-CC-pVDZ\C1H2Cl1N1O2\OHZDE\08-Apr-2025\0\\#t
 hf aug-cc-pvdz iop(5/13=1,5/36=2,99/5=2) pseudo=read geom=check guess=
 (read,tcheck) scf=(maxcycle=1)\\title\\0,1\Cl,0,1.740618,-0.457054,-0.
 000007\O,0,0.748341,0.974771,0.000003\C,0,-0.589187,0.748981,0.000005\
 N,0,-1.127064,-0.392064,0.\H,0,-1.111528,1.703931,0.000012\O,0,-2.5297
 87,-0.28435,0.000006\H,0,-2.802842,-1.206818,0.000002\\Version=ES64L-G
 16RevC.01\State=1-A\HF=-703.8559711\RMSD=4.717e-02\Dipole=-0.7227806,0
 .6217672,0.0000059\Quadrupole=0.0874777,2.3405711,-2.4280488,0.4064033

 Normal termination of Gaussian 16 at Tue Apr  8 23:18:52 2025.
