 Gaussian 16, Revision C.01,

 ----------------------------------------------------------------------
 #t hf aug-cc-pvdz symm=none int=(grid=ultrafine) guess=(read,tcheck) s
 table=(opt,rrhf)
 ----------------------------------------------------------------------
 -----
 title
 -----
 Symbolic Z-matrix:
 Charge =  0 Multiplicity = 1

 SCF Done:  E(RHF) =  -683.496851005     A.U. after   17 cycles
 Normal termination of Gaussian 16 at Wed Apr  9 00:55:05 2025.
 Gaussian 16:  ES64L-G16RevC.01  3-Jul-2019

 ----------------------------------------------------------------------
 #t hf aug-cc-pvdz iop(5/13=1,5/36=2,99/5=2) pseudo=read geom=check gue
 ss=(read,tcheck) scf=(maxcycle=1)
 ----------------------------------------------------------------------
 -----
 title
 -----
 Structure from the checkpoint file:  "BDE49_nonexpt_980_mol1.chk"
 Charge =  0 Multiplicity = 1

                         Standard orientation:
 ---------------------------------------------------------------------
 Center     Atomic      Atomic             Coordinates (Angstroms)
 Number     Number       Type             X           Y           Z
 ---------------------------------------------------------------------
      1         16           0       -1.392006   -0.794334   -0.597754
      2          7           0       -2.095081    0.908416   -0.335091
      3          8           0       -1.710136    1.507931    0.604245
      4          6           0       -0.247829   -0.972748    0.803949
      5          6           0        1.238994   -0.875917    0.436615
      6          1           0       -0.480520   -1.930507    1.273352
      7          6           0        1.687230    0.513679   -0.027447
      8          1           0        1.474779   -1.617471   -0.334792
      9          1           0        1.814660   -1.163886    1.325418
     10          6           0        3.172386    0.565361   -0.395280
     11          1           0        1.477334    1.241715    0.764181
     12          1           0        1.086492    0.816738   -0.891748
     13          1           0        3.803225    0.293693    0.456888
     14          1           0        3.465165    1.567684   -0.718053
     15          1           0        3.402296   -0.126413   -1.211487
     16          1           0       -0.529364   -0.176810    1.504962
 ---------------------------------------------------------------------

 SCF Done:  E(RHF) =  -685.083331917     A.U. after    2 cycles

 The electronic state is 1-A.
 Alpha  occ. eigenvalues --  -75.71025 -21.15659 -15.91175 -13.13743 -13.11320
 Alpha  occ. eigenvalues --  -13.06058 -11.44847 -11.41271 -11.38572 -11.35313
 Alpha  occ. eigenvalues --   -8.05005  -1.89793  -1.27969  -1.17745  -1.06856
 Alpha  occ. eigenvalues --   -0.95546  -0.87053  -0.81756  -0.67232  -0.63982
 Alpha  occ. eigenvalues --   -0.60410  -0.59037  -0.58561  -0.56025  -0.54521
 Alpha  occ. eigenvalues --   -0.51713  -0.47261  -0.46402  -0.44277  -0.38772
 Alpha  occ. eigenvalues --   -0.25812  -0.25430
 Alpha virt. eigenvalues --    0.03729   0.04424   0.05588   0.05886   0.06183
 Alpha virt. eigenvalues --    0.06463   0.06647   0.07179   0.09082   0.09506
 Alpha virt. eigenvalues --    0.10131   0.11991   0.12617   0.12974   0.13261

 Mulliken charges:
               1
     1  S    1.302065
     2  N    1.070811
     3  O   -1.924962
     4  C   -4.275919
     5  C   -1.985976
     6  H    1.234530
     7  C   -3.295481
     8  H    1.472639
     9  H    1.406172
    10  C   -3.649019
    11  H    1.500130
    12  H    1.600196
    13  H    1.295980
    14  H    1.132711
    15  H    1.303416
    16  H    1.812708
 Sum of Mulliken charges =   0.00000

 Dipole moment (field-independent basis, Debye):
    X=              1.1575    Y=             -1.3379    Z=              0.3711  Tot=              1.8076

 Test job not archived.
 1\1\GINC-SE143\SP\RHF\Aug-CC-pVDZ\C4H9N1O1S1\OHZDE\09-Apr-2025\0\\#t h
 f aug-cc-pvdz iop(5/13=1,5/36=2,99/5=2) pseudo=read geom=check guess=(
 read,tcheck) scf=(maxcycle=1)\\title\\0,1\S,0,-1.392006,-0.794334,-0.5
 97754\N,0,-2.095081,0.908416,-0.335091\O,0,-1.710136,1.507931,0.604245
 \C,0,-0.247829,-0.972748,0.803949\C,0,1.238994,-0.875917,0.436615\H,0,
 -0.48052,-1.930507,1.273352\C,0,1.68723,0.513679,-0.027447\H,0,1.47477
 9,-1.617471,-0.334792\H,0,1.81466,-1.163886,1.325418\C,0,3.172386,0.56
 5361,-0.39528\H,0,1.477334,1.241715,0.764181\H,0,1.086492,0.816738,-0.

 Normal termination of Gaussian 16 at Wed Apr  9 00:55:11 2025.
