 Gaussian 16, Revision C.01,

 ----------------------------------------------------------------------
 #t hf aug-cc-pvdz symm=none int=(grid=ultrafine) guess=(read,tcheck) s
 table=(opt,rrhf)
 ----------------------------------------------------------------------
 -----
 title
 -----
 Symbolic Z-matrix:
 Charge =  0 Multiplicity = 1

 SCF Done:  E(RHF) =  -1079.37098050     A.U. after   11 cycles
 Normal termination of Gaussian 16 at Tue Apr  8 23:00:39 2025.
 Gaussian 16:  ES64L-G16RevC.01  3-Jul-2019

 ----------------------------------------------------------------------
 #t hf aug-cc-pvdz iop(5/13=1,5/36=2,99/5=2) pseudo=read geom=check gue
 ss=(read,tcheck) scf=(maxcycle=1)
 ----------------------------------------------------------------------
 -----
 title
 -----
 Structure from the checkpoint file:  "BDE49_expt_1948_mol1.chk"
 Charge =  0 Multiplicity = 1

                         Standard orientation:
 ---------------------------------------------------------------------
 Center     Atomic      Atomic             Coordinates (Angstroms)
 Number     Number       Type             X           Y           Z
 ---------------------------------------------------------------------
      1         15           0        0.456877    1.061117   -0.000000
      2         15           0       -0.456877   -1.061117   -0.000000
      3          9           0       -0.456877    1.584763    1.231205
      4          9           0       -0.456877    1.584764   -1.231205
      5          9           0        0.456877   -1.584763    1.231205
      6          9           0        0.456877   -1.584764   -1.231205
 ---------------------------------------------------------------------

 SCF Done:  E(RHF) =  -1081.07986928     A.U. after    2 cycles

 The electronic state is 1-A.
 Alpha  occ. eigenvalues -- -105.32217-105.31687 -29.31370 -29.31369 -29.31367
 Alpha  occ. eigenvalues --  -29.31366  -2.91719  -2.91042  -1.66101  -1.64453
 Alpha  occ. eigenvalues --   -1.62516  -1.61881  -1.59660  -1.42444  -0.94278
 Alpha  occ. eigenvalues --   -0.85372  -0.59211  -0.59120  -0.46762  -0.45304
 Alpha  occ. eigenvalues --   -0.43228  -0.40685  -0.39487  -0.38622  -0.37699
 Alpha  occ. eigenvalues --   -0.36173  -0.31553  -0.29739  -0.21921  -0.21740
 Alpha  occ. eigenvalues --   -0.06330  -0.03196   0.06876
 Alpha virt. eigenvalues --    0.07942   0.10255   0.11016   0.11180   0.11855
 Alpha virt. eigenvalues --    0.16218   0.18994   0.20428   0.21164   0.21863
 Alpha virt. eigenvalues --    0.23295   0.23353   0.27192   0.27462   0.27712

 Mulliken charges:
               1
     1  P    0.521829
     2  P    0.521829
     3  F   -0.260914
     4  F   -0.260915
     5  F   -0.260914
     6  F   -0.260915
 Sum of Mulliken charges =  -0.00000

 Dipole moment (field-independent basis, Debye):
    X=              0.0000    Y=             -0.0000    Z=              0.0000  Tot=              0.0000

 Test job not archived.
 1\1\GINC-SE043\SP\RHF\Aug-CC-pVDZ\F4P2\OHZDE\08-Apr-2025\0\\#t hf aug-
 cc-pvdz iop(5/13=1,5/36=2,99/5=2) pseudo=read geom=check guess=(read,t
 check) scf=(maxcycle=1)\\title\\0,1\P,0,0.456877,1.061117,0.\P,0,-0.45
 6877,-1.061117,0.\F,0,-0.456877,1.584763,1.231205\F,0,-0.456877,1.5847
 64,-1.231205\F,0,0.456877,-1.584763,1.231205\F,0,0.456877,-1.584764,-1
 .231205\\Version=ES64L-G16RevC.01\State=1-A\HF=-1081.0798693\RMSD=9.32
 3e-02\Dipole=0.,0.,0.0000002\Quadrupole=-14.9978608,-9.4019586,24.3998
 194,-35.0537827,0.,0.\PG=C02 [X(F4P2)]\\@

 Normal termination of Gaussian 16 at Tue Apr  8 23:00:42 2025.
