 Gaussian 16, Revision C.01,

 ----------------------------------------------------------------------
 #t hf aug-cc-pvdz symm=none int=(grid=ultrafine) guess=(read,tcheck) s
 table=(opt,rrhf)
 ----------------------------------------------------------------------
 -----
 title
 -----
 Symbolic Z-matrix:
 Charge =  0 Multiplicity = 1

 SCF Done:  E(RHF) =  -511.369381914     A.U. after   13 cycles
 Normal termination of Gaussian 16 at Tue Apr  8 23:38:52 2025.
 Gaussian 16:  ES64L-G16RevC.01  3-Jul-2019

 ----------------------------------------------------------------------
 #t hf aug-cc-pvdz iop(5/13=1,5/36=2,99/5=2) pseudo=read geom=check gue
 ss=(read,tcheck) scf=(maxcycle=1)
 ----------------------------------------------------------------------
 -----
 title
 -----
 Structure from the checkpoint file:  "BDE49_nonexpt_1564_mol1.chk"
 Charge =  0 Multiplicity = 1

                         Standard orientation:
 ---------------------------------------------------------------------
 Center     Atomic      Atomic             Coordinates (Angstroms)
 Number     Number       Type             X           Y           Z
 ---------------------------------------------------------------------
      1         15           0        0.649730   -0.730060   -0.076980
      2          7           0       -1.025124   -0.515510    0.294892
      3          8           0       -1.612576    0.733139   -0.135143
      4          6           0        1.420811    0.946678    0.113807
      5          1           0       -2.264087    0.441628   -0.782653
      6          1           0        0.779218    1.727523   -0.294502
      7          1           0        2.379661    0.949007   -0.412652
      8          1           0        1.613537    1.147591    1.170014
      9          1           0        0.499296   -0.680036   -1.484650
     10          1           0       -1.201963   -0.571432    1.293199
 ---------------------------------------------------------------------

 SCF Done:  E(RHF) =  -512.334406836     A.U. after    2 cycles

 The electronic state is 1-A.
 Alpha  occ. eigenvalues -- -105.18383 -21.09448 -15.76655 -11.36378  -2.76606
 Alpha  occ. eigenvalues --   -1.76176  -1.52432  -1.46466  -1.44446  -1.10701
 Alpha  occ. eigenvalues --   -0.99036  -0.70272  -0.61759  -0.57867  -0.56036
 Alpha  occ. eigenvalues --   -0.55300  -0.39471  -0.36368  -0.25634  -0.21749
 Alpha  occ. eigenvalues --   -0.01711
 Alpha virt. eigenvalues --    0.04430   0.05729   0.06057   0.06951   0.07454
 Alpha virt. eigenvalues --    0.07908   0.10421   0.10543   0.12765   0.15819
 Alpha virt. eigenvalues --    0.16484   0.17053   0.17352   0.18636   0.19897

 Mulliken charges:
               1
     1  P    3.903711
     2  N   -0.471347
     3  O   -2.076207
     4  C   -5.547411
     5  H    0.808432
     6  H    1.164127
     7  H    1.217411
     8  H    1.155040
     9  H   -0.759540
    10  H    0.605784
 Sum of Mulliken charges =  -0.00000

 Dipole moment (field-independent basis, Debye):
    X=             -1.1113    Y=              0.2975    Z=             -0.5801  Tot=              1.2884

 Test job not archived.
 1\1\GINC-SE128\SP\RHF\Aug-CC-pVDZ\C1H6N1O1P1\OHZDE\08-Apr-2025\0\\#t h
 f aug-cc-pvdz iop(5/13=1,5/36=2,99/5=2) pseudo=read geom=check guess=(
 read,tcheck) scf=(maxcycle=1)\\title\\0,1\P,0,0.64973,-0.73006,-0.0769
 8\N,0,-1.025124,-0.51551,0.294892\O,0,-1.612576,0.733139,-0.135143\C,0
 ,1.420811,0.946678,0.113807\H,0,-2.264087,0.441628,-0.782653\H,0,0.779
 218,1.727523,-0.294502\H,0,2.379661,0.949006,-0.412652\H,0,1.613537,1.
 147591,1.170014\H,0,0.499296,-0.680036,-1.48465\H,0,-1.201963,-0.57143
 2,1.293199\\Version=ES64L-G16RevC.01\State=1-A\HF=-512.3344068\RMSD=2.

 Normal termination of Gaussian 16 at Tue Apr  8 23:38:55 2025.
