 Gaussian 16, Revision C.01,

 ----------------------------------------------------------------------
 #t hf aug-cc-pvdz symm=none int=(grid=ultrafine) guess=(read,tcheck) s
 table=opt
 ----------------------------------------------------------------------
 -----
 title
 -----
 Symbolic Z-matrix:
 Charge =  0 Multiplicity = 2

 SCF Done:  E(UHF) =  -420.329245321     A.U. after   16 cycles

 1\1\GINC-SE461\Stability\UHF\Aug-CC-pVDZ\C5H11O3\OHZDE\08-Apr-2025\0\\
 #t hf aug-cc-pvdz symm=none int=(grid=ultrafine) guess=(read,tcheck) s
 table=opt\\title\\0,2\C,0,-0.257573,-1.240053,-0.796507\C,0,-0.762649,
 -0.001114,-0.013519\C,0,-2.256064,-0.005069,-0.007641\H,0,-2.815156,0.
 921063,0.05753\H,0,-2.810229,-0.934784,0.046422\C,0,-0.264571,1.305223
 ,-0.68361\O,0,1.162782,-1.404597,-0.762982\H,0,-0.612329,-1.180818,-1.
 833682\H,0,-0.676807,-2.14808,-0.354683\H,0,1.527454,-0.591436,-1.1463
 53\C,0,-0.263345,-0.066091,1.466121\O,0,1.155814,1.378569,-0.819341\H,

 Normal termination of Gaussian 16 at Tue Apr  8 22:43:13 2025.
 Gaussian 16:  ES64L-G16RevC.01  3-Jul-2019

 ----------------------------------------------------------------------
 #t hf aug-cc-pvdz iop(5/13=1,5/36=2,99/5=2) pseudo=read geom=check gue
 ss=(read,tcheck) scf=(maxcycle=1)
 ----------------------------------------------------------------------
 -----
 title
 -----
 Structure from the checkpoint file:  "BDE49_expt_1354_mol2.chk"
 Charge =  0 Multiplicity = 2

                         Standard orientation:
 ---------------------------------------------------------------------
 Center     Atomic      Atomic             Coordinates (Angstroms)
 Number     Number       Type             X           Y           Z
 ---------------------------------------------------------------------
      1          6           0       -0.257573   -1.240053   -0.796507
      2          6           0       -0.762649   -0.001114   -0.013519
      3          6           0       -2.256064   -0.005069   -0.007641
      4          1           0       -2.815156    0.921064    0.057530
      5          1           0       -2.810229   -0.934783    0.046422
      6          6           0       -0.264571    1.305223   -0.683610
      7          8           0        1.162782   -1.404597   -0.762982
      8          1           0       -0.612329   -1.180818   -1.833682
      9          1           0       -0.676807   -2.148080   -0.354683
     10          1           0        1.527454   -0.591436   -1.146353
     11          6           0       -0.263345   -0.066091    1.466121
     12          8           0        1.155814    1.378569   -0.819341
     13          1           0       -0.641377    2.167782   -0.116146
     14          1           0       -0.670415    1.373075   -1.695791
     15          1           0        1.509093    1.292130    0.080351
     16          8           0        1.157104    0.034582    1.599290
     17          1           0       -0.627707   -0.993276    1.926662
     18          1           0       -0.681607    0.771668    2.028316
     19          1           0        1.518690   -0.703137    1.082571
 ---------------------------------------------------------------------

 SCF Done:  E(UHF) =  -422.212038199     A.U. after    2 cycles

 The electronic state is 2-A.
 Alpha  occ. eigenvalues --  -21.06786 -21.06693 -21.06659 -11.45588 -11.45410
 Alpha  occ. eigenvalues --  -11.44262 -11.41810 -11.38354  -1.74118  -1.70140
 Alpha  occ. eigenvalues --   -1.70041  -1.25932  -0.98349  -0.97627  -0.97572
 Alpha  occ. eigenvalues --   -0.80444  -0.69496  -0.69155  -0.62939  -0.60831
 Alpha  occ. eigenvalues --   -0.60037  -0.56028  -0.53795  -0.53246  -0.51597
 Alpha  occ. eigenvalues --   -0.51205  -0.46414  -0.43254  -0.39509  -0.35012
 Alpha  occ. eigenvalues --   -0.34238  -0.29198  -0.27532
 Alpha virt. eigenvalues --    0.03849   0.04736   0.04889   0.05069   0.05173
 Alpha virt. eigenvalues --    0.05940   0.07145   0.07306   0.07951   0.08781
 Alpha virt. eigenvalues --    0.08962   0.11618   0.12325   0.12670   0.13759

  Beta  occ. eigenvalues --  -21.06780 -21.06656 -21.06627 -11.45516 -11.45237
  Beta  occ. eigenvalues --  -11.44388 -11.40571 -11.37409  -1.74030  -1.70113
  Beta  occ. eigenvalues --   -1.69928  -1.24077  -0.97496  -0.97005  -0.92114
  Beta  occ. eigenvalues --   -0.79864  -0.69337  -0.68827  -0.62445  -0.59942
  Beta  occ. eigenvalues --   -0.59719  -0.55218  -0.53519  -0.53028  -0.51292
  Beta  occ. eigenvalues --   -0.50846  -0.44548  -0.43212  -0.38751  -0.34145
  Beta  occ. eigenvalues --   -0.29495  -0.29213
  Beta virt. eigenvalues --    0.03956   0.04777   0.04889   0.04976   0.05108
  Beta virt. eigenvalues --    0.05210   0.07156   0.07307   0.07895   0.08784
  Beta virt. eigenvalues --    0.08963   0.10032   0.11746   0.12568   0.13061

 Mulliken charges and spin densities:
               1          2
     1  C   -0.951465   0.058804
     2  C    1.344036  -0.575760
     3  C   -4.039231   1.522639
     4  H    1.390477  -0.055134
     5  H    1.396506  -0.060685
     6  C   -0.917395   0.055057
     7  O   -2.799067   0.004902
     8  H    1.313168  -0.003493
     9  H    1.284784  -0.011249
    10  H    0.977344   0.000201
    11  C   -0.813614   0.097543
    12  O   -2.774444   0.003823
    13  H    1.236189  -0.011704
    14  H    1.351887  -0.002386
    15  H    0.972985   0.000282
    16  O   -2.745479   0.028117
    17  H    1.331269  -0.021745
    18  H    1.425847  -0.026500
    19  H    1.016206  -0.002709
 Sum of Mulliken charges =   0.00000   1.00000

 Dipole moment (field-independent basis, Debye):
    X=             -0.8842    Y=             -0.0307    Z=              0.0876  Tot=              0.8890
                          Isotropic Fermi Contact Couplings
        Atom                 a.u.       MegaHertz       Gauss      10(-4) cm-1
     1  C(13)              0.01561      17.55367       6.26359       5.85527
     2  C(13)             -0.03566     -40.08373     -14.30287     -13.37049
     3  C(13)              0.12989     146.01712      52.10254      48.70607
     4  H(1)              -0.01824     -81.50988     -29.08475     -27.18877
     5  H(1)              -0.01825     -81.59026     -29.11344     -27.21558
     6  C(13)              0.01351      15.18863       5.41968       5.06638
     7  O(17)             -0.00057       0.34360       0.12261       0.11461
     8  H(1)              -0.00058      -2.59682      -0.92661      -0.86621

 Normal termination of Gaussian 16 at Tue Apr  8 22:43:23 2025.
