 Gaussian 16, Revision C.01,

 ----------------------------------------------------------------------
 #t hf aug-cc-pvdz symm=none int=(grid=ultrafine) guess=(read,tcheck) s
 table=(opt,rrhf)
 ----------------------------------------------------------------------
 -----
 title
 -----
 Symbolic Z-matrix:
 Charge =  0 Multiplicity = 1

 SCF Done:  E(RHF) =  -1124.45617683     A.U. after   15 cycles
 Normal termination of Gaussian 16 at Wed Apr  9 00:20:05 2025.
 Gaussian 16:  ES64L-G16RevC.01  3-Jul-2019

 ----------------------------------------------------------------------
 #t hf aug-cc-pvdz iop(5/13=1,5/36=2,99/5=2) pseudo=read geom=check gue
 ss=(read,tcheck) scf=(maxcycle=1)
 ----------------------------------------------------------------------
 -----
 title
 -----
 Structure from the checkpoint file:  "BDE49_nonexpt_2587_mol1.chk"
 Charge =  0 Multiplicity = 1

                         Standard orientation:
 ---------------------------------------------------------------------
 Center     Atomic      Atomic             Coordinates (Angstroms)
 Number     Number       Type             X           Y           Z
 ---------------------------------------------------------------------
      1         17           0       -2.177166    0.249492    0.323108
      2         16           0       -0.710530   -0.528177   -0.926570
      3          6           0        0.871414   -0.386978    0.130482
      4          8           0        0.984267    0.833206    0.767741
      5          8           0        1.854806   -0.648828   -0.835610
      6          6           0        1.118575    2.005979   -0.033034
      7          1           0        2.080945    2.023343   -0.556336
      8          1           0        1.082738    2.843559    0.660541
      9          1           0        0.296861    2.092380   -0.749855
     10          6           0        0.934065   -1.465303    1.188732
     11          1           0        0.115005   -1.336755    1.895687
     12          1           0        1.882859   -1.372134    1.721426
     13          1           0        0.866941   -2.448208    0.725391
     14          1           0        1.798041    0.010069   -1.538701
 ---------------------------------------------------------------------

 SCF Done:  E(RHF) =  -1126.13667089     A.U. after    2 cycles

 The electronic state is 1-A.
 Alpha  occ. eigenvalues --  -99.90406 -75.73422 -21.11047 -21.07685 -13.17485
 Alpha  occ. eigenvalues --  -13.10861 -13.09810 -11.52575 -11.42365 -11.38338
 Alpha  occ. eigenvalues --  -10.47512  -9.67330  -9.66707  -9.66606  -8.07144
 Alpha  occ. eigenvalues --   -1.84362  -1.70934  -1.33207  -1.15214  -1.05791
 Alpha  occ. eigenvalues --   -1.00429  -0.82231  -0.69276  -0.66394  -0.64514
 Alpha  occ. eigenvalues --   -0.62011  -0.57145  -0.55129  -0.54689  -0.53520
 Alpha  occ. eigenvalues --   -0.52992  -0.48987  -0.44976  -0.42336  -0.33837
 Alpha  occ. eigenvalues --   -0.29617  -0.26278
 Alpha virt. eigenvalues --    0.03024   0.04934   0.05221   0.05390   0.05865
 Alpha virt. eigenvalues --    0.06550   0.07018   0.08065   0.08486   0.10985
 Alpha virt. eigenvalues --    0.13013   0.13501   0.13979   0.14711   0.15370

 Mulliken charges:
               1
     1  Cl  -0.496810
     2  S    0.261295
     3  C    5.791215
     4  O   -3.635352
     5  O   -3.398452
     6  C   -3.282145
     7  H    1.315608
     8  H    1.322777
     9  H    1.528886
    10  C   -4.122265
    11  H    1.233977
    12  H    1.331744
    13  H    1.189190
    14  H    0.960334
 Sum of Mulliken charges =   0.00000

 Dipole moment (field-independent basis, Debye):
    X=              3.0094    Y=             -0.4792    Z=             -1.9284  Tot=              3.6062

 Test job not archived.
 1\1\GINC-SE343\SP\RHF\Aug-CC-pVDZ\C3H7Cl1O2S1\OHZDE\09-Apr-2025\0\\#t
 hf aug-cc-pvdz iop(5/13=1,5/36=2,99/5=2) pseudo=read geom=check guess=
 (read,tcheck) scf=(maxcycle=1)\\title\\0,1\Cl,0,-2.177166,0.249492,0.3
 23108\S,0,-0.71053,-0.528177,-0.92657\C,0,0.871414,-0.386978,0.130482\
 O,0,0.984267,0.833206,0.767741\O,0,1.854806,-0.648828,-0.83561\C,0,1.1
 18575,2.005979,-0.033034\H,0,2.080945,2.023343,-0.556336\H,0,1.082738,
 2.843559,0.660541\H,0,0.296861,2.09238,-0.749855\C,0,0.934065,-1.46530
 3,1.188732\H,0,0.115005,-1.336755,1.895687\H,0,1.882859,-1.372134,1.72

 Normal termination of Gaussian 16 at Wed Apr  9 00:20:10 2025.
