 Gaussian 16, Revision C.01,

 ----------------------------------------------------------------------
 #t hf aug-cc-pvdz symm=none int=(grid=ultrafine) guess=(read,tcheck) s
 table=opt
 ----------------------------------------------------------------------
 -----
 title
 -----
 Symbolic Z-matrix:
 Charge =  0 Multiplicity = 2

 SCF Done:  E(UHF) =  -134.695834310     A.U. after   19 cycles
 Normal termination of Gaussian 16 at Wed Apr  9 00:36:48 2025.
 Gaussian 16:  ES64L-G16RevC.01  3-Jul-2019

 ----------------------------------------------------------------------
 #t hf aug-cc-pvdz iop(5/13=1,5/36=2,99/5=2) pseudo=read geom=check gue
 ss=(read,tcheck) scf=(maxcycle=1)
 ----------------------------------------------------------------------
 -----
 title
 -----
 Structure from the checkpoint file:  "BDE49_nonexpt_522_mol2.chk"
 Charge =  0 Multiplicity = 2

                         Standard orientation:
 ---------------------------------------------------------------------
 Center     Atomic      Atomic             Coordinates (Angstroms)
 Number     Number       Type             X           Y           Z
 ---------------------------------------------------------------------
      1          1           0       -2.512255    0.018104   -0.000002
      2          5           0       -1.348533    0.004638    0.000003
      3          7           0       -0.091572    0.024417   -0.000000
      4          7           0        1.182781   -0.143435   -0.000002
      5          1           0        1.616462    0.791835    0.000003
 ---------------------------------------------------------------------

 SCF Done:  E(UHF) =  -135.292364330     A.U. after    2 cycles

 The electronic state is 2-A.
 Alpha  occ. eigenvalues --  -15.80133 -15.71616  -7.67477  -1.49103  -1.10028
 Alpha  occ. eigenvalues --   -0.72451  -0.70809  -0.58408  -0.57637  -0.36265
 Alpha  occ. eigenvalues --   -0.33211
 Alpha virt. eigenvalues --    0.03482   0.03784   0.03911   0.05178   0.08867
 Alpha virt. eigenvalues --    0.10690   0.15787   0.15845   0.17029   0.17043
 Alpha virt. eigenvalues --    0.19678   0.20036   0.21982   0.22263   0.22714

  Beta  occ. eigenvalues --  -15.77297 -15.72645  -7.66778  -1.46169  -1.05238
  Beta  occ. eigenvalues --   -0.71244  -0.70379  -0.56915  -0.51300  -0.35381
  Beta virt. eigenvalues --    0.03490   0.03810   0.03820   0.05248   0.08170
  Beta virt. eigenvalues --    0.08932   0.10792   0.15847   0.16021   0.17466
  Beta virt. eigenvalues --    0.18288   0.20396   0.22420   0.22685   0.22976

 Mulliken charges and spin densities:
               1          2
     1  H   -2.264348  -0.012583
     2  B    2.604958   0.402067
     3  N   -1.050710  -0.352013
     4  N   -0.119366   1.022990
     5  H    0.829466  -0.060461
 Sum of Mulliken charges =   0.00000   1.00000

 Dipole moment (field-independent basis, Debye):
    X=             -1.5154    Y=              1.1539    Z=              0.0000  Tot=              1.9047
                          Isotropic Fermi Contact Couplings
        Atom                 a.u.       MegaHertz       Gauss      10(-4) cm-1
     1  H(1)              -0.01008     -45.04975     -16.07487     -15.02698
     2  B(11)              0.04126      59.18534      21.11880      19.74210
     3  N(14)             -0.12442     -40.19958     -14.34421     -13.40914
     4  N(14)              0.19173      61.94866      22.10482      20.66385
     5  H(1)              -0.01805     -80.67126     -28.78551     -26.90903
 --------------------------------------------------------
       Center         ----  Spin Dipole Couplings  ----
                      3XX-RR        3YY-RR        3ZZ-RR

 Normal termination of Gaussian 16 at Wed Apr  9 00:36:50 2025.
