 Gaussian 16, Revision C.01,

 ----------------------------------------------------------------------
 #t hf aug-cc-pvdz symm=none int=(grid=ultrafine) guess=(read,tcheck) s
 table=(opt,rrhf)
 ----------------------------------------------------------------------
 -----
 title
 -----
 Symbolic Z-matrix:
 Charge =  0 Multiplicity = 1

 SCF Done:  E(RHF) =  -1221.81396320     A.U. after   18 cycles
 Normal termination of Gaussian 16 at Tue Apr  8 23:29:29 2025.
 Gaussian 16:  ES64L-G16RevC.01  3-Jul-2019

 ----------------------------------------------------------------------
 #t hf aug-cc-pvdz iop(5/13=1,5/36=2,99/5=2) pseudo=read geom=check gue
 ss=(read,tcheck) scf=(maxcycle=1)
 ----------------------------------------------------------------------
 -----
 title
 -----
 Structure from the checkpoint file:  "BDE49_nonexpt_1235_mol1.chk"
 Charge =  0 Multiplicity = 1

                         Standard orientation:
 ---------------------------------------------------------------------
 Center     Atomic      Atomic             Coordinates (Angstroms)
 Number     Number       Type             X           Y           Z
 ---------------------------------------------------------------------
      1         17           0       -2.223794   -1.822320   -0.215661
      2          1           0        0.811553    1.515906   -1.791738
      3          1           0        3.192859    1.574276   -1.201425
      4         15           0       -1.431910   -0.001858   -0.954560
      5          6           0       -1.976492    1.266329    0.366511
      6          6           0        0.333895   -0.104013   -0.445776
      7          6           0        3.080065   -0.048578    0.207266
      8          6           0       -2.897897    0.910039    1.502326
      9          1           0       -2.439677    0.143734    2.133255
     10          1           0       -3.826962    0.482814    1.115293
     11          6           0        1.194860    0.816443   -1.057143
     12          8           0       -1.553063    2.376635    0.158352
     13          6           0        4.553079   -0.043036    0.533323
     14          6           0        2.544691    0.847426   -0.722769
     15          1           0        0.215985   -1.730711    0.965107
     16          1           0        2.604455   -1.678851    1.527835
     17          1           0       -3.108163    1.806316    2.086737
     18          6           0        0.859565   -1.002365    0.487638
     19          6           0        2.214179   -0.972379    0.802089
     20          1           0        5.104486   -0.709009   -0.139439
     21          1           0        4.736360   -0.385640    1.554178
     22          1           0        4.981078    0.956200    0.427209
 ---------------------------------------------------------------------

 SCF Done:  E(RHF) =  -1224.23329386     A.U. after    2 cycles

 The electronic state is 1-A.
 Alpha  occ. eigenvalues -- -105.23604 -99.89272 -21.07417 -11.52173 -11.50011
 Alpha  occ. eigenvalues --  -11.44667 -11.44481 -11.43560 -11.41583 -11.39875
 Alpha  occ. eigenvalues --  -11.39495 -11.37041 -10.46531  -9.66464  -9.65924
 Alpha  occ. eigenvalues --   -9.65850  -2.81381  -1.73166  -1.56712  -1.51361
 Alpha  occ. eigenvalues --   -1.50353  -1.35153  -1.23347  -1.14408  -1.11372
 Alpha  occ. eigenvalues --   -1.10169  -0.99525  -0.87773  -0.84435  -0.79370
 Alpha  occ. eigenvalues --   -0.70907  -0.66379  -0.63335  -0.61701  -0.60278
 Alpha  occ. eigenvalues --   -0.59594  -0.58752  -0.58369  -0.54292  -0.53769
 Alpha  occ. eigenvalues --   -0.52524  -0.52081  -0.50524  -0.47993  -0.44861
 Alpha  occ. eigenvalues --   -0.44405  -0.44114  -0.35674  -0.33953  -0.33332
 Alpha  occ. eigenvalues --   -0.18506  -0.04113
 Alpha virt. eigenvalues --    0.03383   0.04569   0.05096   0.05416   0.06023
 Alpha virt. eigenvalues --    0.06687   0.06956   0.07163   0.07506   0.08177
 Alpha virt. eigenvalues --    0.08656   0.09574   0.09959   0.10466   0.10756

 Mulliken charges:
               1
     1  Cl  -1.317254
     2  H    2.241287
     3  H    1.823982
     4  P    4.356048
     5  C    1.065486
     6  C    1.284086
     7  C    2.139054
     8  C   -4.254740
     9  H    1.256786
    10  H    1.297678
    11  C   -5.401240
    12  O   -3.025605
    13  C   -5.797394
    14  C   -1.207541
    15  H    1.961579
    16  H    1.845279
    17  H    1.262817
    18  C   -3.264641
    19  C    0.296903
    20  H    1.162148
    21  H    1.131274
    22  H    1.144006
 Sum of Mulliken charges =   0.00000

 Dipole moment (field-independent basis, Debye):
    X=              1.9102    Y=              0.8837    Z=             -1.7221  Tot=              2.7194

 Test job not archived.
 1\1\GINC-SE126\SP\RHF\Aug-CC-pVDZ\C9H10Cl1O1P1\OHZDE\08-Apr-2025\0\\#t
  hf aug-cc-pvdz iop(5/13=1,5/36=2,99/5=2) pseudo=read geom=check guess
 =(read,tcheck) scf=(maxcycle=1)\\title\\0,1\Cl,0,-2.223794,-1.82232,-0
 .215661\H,0,0.811553,1.515906,-1.791738\H,0,3.192859,1.574276,-1.20142
 5\P,0,-1.43191,-0.001858,-0.95456\C,0,-1.976492,1.266329,0.366511\C,0,
 0.333895,-0.104013,-0.445776\C,0,3.080065,-0.048578,0.207266\C,0,-2.89
 7897,0.910039,1.502326\H,0,-2.439677,0.143734,2.133255\H,0,-3.826962,0
 .482814,1.115293\C,0,1.19486,0.816443,-1.057143\O,0,-1.553063,2.376635

 Normal termination of Gaussian 16 at Tue Apr  8 23:29:47 2025.
