 Gaussian 16, Revision C.01,

 ----------------------------------------------------------------------
 #t hf aug-cc-pvdz symm=none int=(grid=ultrafine) guess=(read,tcheck) s
 table=(opt,rrhf)
 ----------------------------------------------------------------------
 -----
 title
 -----
 Symbolic Z-matrix:
 Charge =  0 Multiplicity = 1

 SCF Done:  E(RHF) =  -524.439852892     A.U. after   13 cycles
 Normal termination of Gaussian 16 at Tue Apr  8 22:36:42 2025.
 Gaussian 16:  ES64L-G16RevC.01  3-Jul-2019

 ----------------------------------------------------------------------
 #t hf aug-cc-pvdz iop(5/13=1,5/36=2,99/5=2) pseudo=read geom=check gue
 ss=(read,tcheck) scf=(maxcycle=1)
 ----------------------------------------------------------------------
 -----
 title
 -----
 Structure from the checkpoint file:  "BDE49_expt_1108_mol1.chk"
 Charge =  0 Multiplicity = 1

                         Standard orientation:
 ---------------------------------------------------------------------
 Center     Atomic      Atomic             Coordinates (Angstroms)
 Number     Number       Type             X           Y           Z
 ---------------------------------------------------------------------
      1          6           0        0.578598   -0.012509   -0.000039
      2          6           0       -0.970410   -0.156707   -0.000878
      3          8           0       -1.478047   -1.233200    0.000008
      4          8           0       -1.647812    0.997774   -0.000012
      5          1           0       -1.036353    1.747763    0.000080
      6          9           0        0.951516    1.297994    0.000301
      7          9           0        1.102233   -0.584917   -1.085229
      8          9           0        1.101151   -0.585195    1.085534
 ---------------------------------------------------------------------

 SCF Done:  E(RHF) =  -526.368895813     A.U. after    2 cycles

 The electronic state is 1-A.
 Alpha  occ. eigenvalues --  -29.35150 -29.34646 -29.34606 -21.16898 -21.10156
 Alpha  occ. eigenvalues --  -11.64661 -11.56172  -1.87201  -1.71076  -1.44391
 Alpha  occ. eigenvalues --   -0.95122  -0.92666  -0.92021  -0.79842  -0.59328
 Alpha  occ. eigenvalues --   -0.57955  -0.55727  -0.50480  -0.47398  -0.46620
 Alpha  occ. eigenvalues --   -0.42849  -0.41362  -0.38382  -0.35965  -0.29270
 Alpha  occ. eigenvalues --   -0.28755  -0.28570  -0.24990
 Alpha virt. eigenvalues --    0.04465   0.09059   0.10917   0.11310   0.11895
 Alpha virt. eigenvalues --    0.11944   0.12526   0.13667   0.16432   0.18854
 Alpha virt. eigenvalues --    0.20041   0.20411   0.22123   0.23338   0.24698

 Mulliken charges:
               1
     1  C   -1.007879
     2  C    3.721160
     3  O   -2.726688
     4  O   -2.664518
     5  H    0.813869
     6  F    0.749748
     7  F    0.557116
     8  F    0.557192
 Sum of Mulliken charges =  -0.00000

 Dipole moment (field-independent basis, Debye):
    X=              2.8765    Y=              1.7181    Z=              0.0020  Tot=              3.3505

 Test job not archived.
 1\1\GINC-SE090\SP\RHF\Aug-CC-pVDZ\C2H1F3O2\OHZDE\08-Apr-2025\0\\#t hf
 aug-cc-pvdz iop(5/13=1,5/36=2,99/5=2) pseudo=read geom=check guess=(re
 ad,tcheck) scf=(maxcycle=1)\\title\\0,1\C,0,0.578598,-0.012509,-0.0000
 39\C,0,-0.97041,-0.156707,-0.000878\O,0,-1.478047,-1.2332,0.000008\O,0
 ,-1.647812,0.997774,-0.000012\H,0,-1.036353,1.747763,0.00008\F,0,0.951
 516,1.297994,0.000301\F,0,1.102233,-0.584917,-1.085229\F,0,1.101151,-0
 .585195,1.085534\\Version=ES64L-G16RevC.01\State=1-A\HF=-526.3688958\R
 MSD=1.448e-01\Dipole=1.1317009,0.675951,0.0007706\Quadrupole=-1.698917

 Normal termination of Gaussian 16 at Tue Apr  8 22:36:44 2025.
