 Gaussian 16, Revision C.01,

 ----------------------------------------------------------------------
 #t hf aug-cc-pvdz symm=none int=(grid=ultrafine) guess=(read,tcheck) s
 table=(opt,rrhf)
 ----------------------------------------------------------------------
 -----
 title
 -----
 Symbolic Z-matrix:
 Charge =  0 Multiplicity = 1

 SCF Done:  E(RHF) =  -611.178254592     A.U. after   16 cycles
 Normal termination of Gaussian 16 at Tue Apr  8 23:07:17 2025.
 Gaussian 16:  ES64L-G16RevC.01  3-Jul-2019

 ----------------------------------------------------------------------
 #t hf aug-cc-pvdz iop(5/13=1,5/36=2,99/5=2) pseudo=read geom=check gue
 ss=(read,tcheck) scf=(maxcycle=1)
 ----------------------------------------------------------------------
 -----
 title
 -----
 Structure from the checkpoint file:  "BDE49_expt_324_mol1.chk"
 Charge =  0 Multiplicity = 1

                         Standard orientation:
 ---------------------------------------------------------------------
 Center     Atomic      Atomic             Coordinates (Angstroms)
 Number     Number       Type             X           Y           Z
 ---------------------------------------------------------------------
      1          6           0        0.478678   -1.047737    0.055010
      2          6           0        1.838140   -1.195494   -0.194829
      3          6           0        2.654271   -0.074427   -0.139192
      4          6           0        2.153667    1.185131    0.148207
      5          6           0        0.788874    1.318962    0.388273
      6          6           0       -0.060129    0.209649    0.353097
      7          1           0       -0.169834   -1.912612   -0.004948
      8          1           0        2.822860    2.035667    0.176179
      9          1           0        0.382924    2.300593    0.605824
     10          1           0        2.269844   -2.159578   -0.432321
     11          6           0       -1.534633    0.390055    0.644225
     12          6           0       -2.076447   -0.469842    1.781383
     13          1           0       -1.945748   -1.530103    1.568428
     14          1           0       -3.139529   -0.277394    1.942664
     15          1           0       -1.535576   -0.225226    2.697672
     16          7           0       -2.332969    0.090215   -0.639779
     17          1           0       -1.743012    1.443891    0.817697
     18          8           0       -2.522394   -1.081964   -0.925682
     19          8           0       -2.707771    1.049246   -1.291092
     20          9           0        3.975072   -0.215864   -0.375066
 ---------------------------------------------------------------------

 SCF Done:  E(RHF) =  -613.850960742     A.U. after    2 cycles

 The electronic state is 1-A.
 Alpha  occ. eigenvalues --  -29.29626 -21.09836 -21.09349 -15.98854 -11.55650
 Alpha  occ. eigenvalues --  -11.51859 -11.48735 -11.46234 -11.45779 -11.42990
 Alpha  occ. eigenvalues --  -11.42146 -11.39547  -1.99427  -1.69204  -1.40457
 Alpha  occ. eigenvalues --   -1.26843  -1.14088  -1.12804  -1.02675  -0.94289
 Alpha  occ. eigenvalues --   -0.91259  -0.82504  -0.78227  -0.71882  -0.70789
 Alpha  occ. eigenvalues --   -0.66497  -0.64998  -0.61680  -0.61093  -0.60331
 Alpha  occ. eigenvalues --   -0.57741  -0.56595  -0.55776  -0.53066  -0.48117
 Alpha  occ. eigenvalues --   -0.47562  -0.43126  -0.39618  -0.36064  -0.34441
 Alpha  occ. eigenvalues --   -0.31514  -0.31253  -0.28342  -0.24479
 Alpha virt. eigenvalues --    0.03169   0.04514   0.04945   0.05644   0.05992
 Alpha virt. eigenvalues --    0.06308   0.07208   0.08091   0.09284   0.09722
 Alpha virt. eigenvalues --    0.10395   0.11098   0.12008   0.12674   0.12842

 Mulliken charges:
               1
     1  C   -0.810835
     2  C   -5.016395
     3  C    2.558230
     4  C   -5.011144
     5  C   -1.160266
     6  C    4.338568
     7  H    2.178426
     8  H    1.658705
     9  H    1.821945
    10  H    1.646400
    11  C   -3.318246
    12  C   -4.143118
    13  H    1.357680
    14  H    1.202872
    15  H    1.234872
    16  N    5.286258
    17  H    1.628615
    18  O   -3.074069
    19  O   -3.021536
    20  F    0.643038
 Sum of Mulliken charges =  -0.00000

 Dipole moment (field-independent basis, Debye):
    X=              3.5453    Y=             -0.1140    Z=              1.5826  Tot=              3.8842

 Test job not archived.
 1\1\GINC-SE039\SP\RHF\Aug-CC-pVDZ\C8H8F1N1O2\OHZDE\08-Apr-2025\0\\#t h
 f aug-cc-pvdz iop(5/13=1,5/36=2,99/5=2) pseudo=read geom=check guess=(
 read,tcheck) scf=(maxcycle=1)\\title\\0,1\C,0,0.478678,-1.047737,0.055
 01\C,0,1.83814,-1.195494,-0.194829\C,0,2.654271,-0.074427,-0.139192\C,
 0,2.153667,1.185131,0.148207\C,0,0.788874,1.318962,0.388273\C,0,-0.060
 129,0.209649,0.353097\H,0,-0.169834,-1.912612,-0.004948\H,0,2.82286,2.
 035667,0.176179\H,0,0.382924,2.300593,0.605824\H,0,2.269844,-2.159578,
 -0.432321\C,0,-1.534633,0.390055,0.644225\C,0,-2.076447,-0.469842,1.78

 Normal termination of Gaussian 16 at Tue Apr  8 23:07:32 2025.
