 Gaussian 16, Revision C.01,

 ----------------------------------------------------------------------
 #t hf aug-cc-pvdz symm=none int=(grid=ultrafine) guess=(read,tcheck) s
 table=(opt,rrhf)
 ----------------------------------------------------------------------
 -----
 title
 -----
 Symbolic Z-matrix:
 Charge =  0 Multiplicity = 1

 SCF Done:  E(RHF) =  -673.785607605     A.U. after   14 cycles
 Normal termination of Gaussian 16 at Tue Apr  8 23:20:57 2025.
 Gaussian 16:  ES64L-G16RevC.01  3-Jul-2019

 ----------------------------------------------------------------------
 #t hf aug-cc-pvdz iop(5/13=1,5/36=2,99/5=2) pseudo=read geom=check gue
 ss=(read,tcheck) scf=(maxcycle=1)
 ----------------------------------------------------------------------
 -----
 title
 -----
 Structure from the checkpoint file:  "BDE49_nonexpt_111_mol1.chk"
 Charge =  0 Multiplicity = 1

                         Standard orientation:
 ---------------------------------------------------------------------
 Center     Atomic      Atomic             Coordinates (Angstroms)
 Number     Number       Type             X           Y           Z
 ---------------------------------------------------------------------
      1          5           0        3.291200   -0.014123   -0.217252
      2          5           0        1.752971    0.047247    0.424680
      3         16           0       -0.910461   -0.135769    0.388717
      4          8           0        0.652798   -0.232035   -0.342112
      5          8           0       -1.275877    1.370572   -0.152295
      6          8           0       -1.696729   -1.089017   -0.364089
      7          1           0       -1.450846    1.328388   -1.108565
      8          1           0        3.951828   -1.008653   -0.179068
      9          1           0        3.816148    0.952887   -0.683330
     10          1           0        1.587849    0.337904    1.582319
 ---------------------------------------------------------------------

 SCF Done:  E(RHF) =  -675.192598157     A.U. after    2 cycles

 The electronic state is 1-A.
 Alpha  occ. eigenvalues --  -75.89349 -21.13565 -21.07547 -21.06970 -13.45992
 Alpha  occ. eigenvalues --  -13.34898 -13.28905  -8.23147  -7.62889  -7.60793
 Alpha  occ. eigenvalues --   -1.87905  -1.75424  -1.69815  -1.01816  -0.90030
 Alpha  occ. eigenvalues --   -0.74099  -0.65789  -0.59991  -0.58387  -0.51356
 Alpha  occ. eigenvalues --   -0.49581  -0.48101  -0.43376  -0.40336  -0.37479
 Alpha  occ. eigenvalues --   -0.35966  -0.31126
 Alpha virt. eigenvalues --    0.01763   0.02434   0.02895   0.04492   0.06459
 Alpha virt. eigenvalues --    0.07742   0.08185   0.08699   0.10818   0.10957
 Alpha virt. eigenvalues --    0.11477   0.12102   0.12441   0.13757   0.13807

 Mulliken charges:
               1
     1  B    3.685133
     2  B    5.350764
     3  S    4.904230
     4  O   -2.860425
     5  O   -2.199376
     6  O   -2.297244
     7  H    0.814948
     8  H   -2.351157
     9  H   -2.348872
    10  H   -2.698000
 Sum of Mulliken charges =   0.00000

 Dipole moment (field-independent basis, Debye):
    X=              0.1760    Y=              1.0065    Z=              0.2546  Tot=              1.0530

 Test job not archived.
 1\1\GINC-SE184\SP\RHF\Aug-CC-pVDZ\B2H4O3S1\OHZDE\08-Apr-2025\0\\#t hf
 aug-cc-pvdz iop(5/13=1,5/36=2,99/5=2) pseudo=read geom=check guess=(re
 ad,tcheck) scf=(maxcycle=1)\\title\\0,1\B,0,3.2912,-0.014123,-0.217252
 \B,0,1.752971,0.047247,0.42468\S,0,-0.910461,-0.135769,0.388717\O,0,0.
 652798,-0.232035,-0.342112\O,0,-1.275877,1.370572,-0.152295\O,0,-1.696
 729,-1.089017,-0.364089\H,0,-1.450846,1.328388,-1.108565\H,0,3.951828,
 -1.008653,-0.179068\H,0,3.816148,0.952887,-0.68333\H,0,1.587849,0.3379
 04,1.582319\\Version=ES64L-G16RevC.01\State=1-A\HF=-675.1925982\RMSD=1

 Normal termination of Gaussian 16 at Tue Apr  8 23:21:01 2025.
