 Gaussian 16, Revision C.01,

 ----------------------------------------------------------------------
 #t hf aug-cc-pvdz symm=none int=(grid=ultrafine) guess=(read,tcheck) s
 table=(opt,rrhf)
 ----------------------------------------------------------------------
 -----
 title
 -----
 Symbolic Z-matrix:
 Charge =  0 Multiplicity = 1

 SCF Done:  E(RHF) =  -519.556760280     A.U. after   14 cycles
 Normal termination of Gaussian 16 at Wed Apr  9 00:42:27 2025.
 Gaussian 16:  ES64L-G16RevC.01  3-Jul-2019

 ----------------------------------------------------------------------
 #t hf aug-cc-pvdz iop(5/13=1,5/36=2,99/5=2) pseudo=read geom=check gue
 ss=(read,tcheck) scf=(maxcycle=1)
 ----------------------------------------------------------------------
 -----
 title
 -----
 Structure from the checkpoint file:  "BDE49_nonexpt_699_mol1.chk"
 Charge =  0 Multiplicity = 1

                         Standard orientation:
 ---------------------------------------------------------------------
 Center     Atomic      Atomic             Coordinates (Angstroms)
 Number     Number       Type             X           Y           Z
 ---------------------------------------------------------------------
      1         15           0        0.085492   -1.157348   -0.226489
      2          5           0        1.593108    0.044295    0.031069
      3          8           0        1.439973    1.379887    0.078861
      4          6           0       -1.258920   -0.114092    0.446918
      5          6           0       -1.831758    0.873833   -0.249486
      6          1           0       -1.581764   -0.298948    1.468279
      7          1           0       -1.575567    1.072015   -1.286914
      8          1           0       -2.607495    1.497147    0.182887
      9          1           0        0.507641    1.649523    0.093454
     10          1           0        2.699096   -0.399408    0.071292
     11          1           0        0.334454   -1.979129    0.897510
 ---------------------------------------------------------------------

 SCF Done:  E(RHF) =  -520.560884949     A.U. after    2 cycles

 The electronic state is 1-A.
 Alpha  occ. eigenvalues -- -105.16492 -21.06628 -11.43131 -11.38913  -7.63669
 Alpha  occ. eigenvalues --   -2.74546  -1.75040  -1.48918  -1.46367  -1.42961
 Alpha  occ. eigenvalues --   -1.13417  -0.84205  -0.77505  -0.70458  -0.61723
 Alpha  occ. eigenvalues --   -0.55076  -0.52077  -0.49335  -0.43882  -0.38989
 Alpha  occ. eigenvalues --   -0.25104  -0.15043  -0.02879
 Alpha virt. eigenvalues --    0.03358   0.04188   0.05194   0.05841   0.06099
 Alpha virt. eigenvalues --    0.07231   0.08132   0.09562   0.09858   0.10345
 Alpha virt. eigenvalues --    0.11366   0.12676   0.13000   0.13891   0.14492

 Mulliken charges:
               1
     1  P    2.079886
     2  B    5.361152
     3  O   -3.339697
     4  C   -2.253567
     5  C   -3.487775
     6  H    1.195721
     7  H    1.379039
     8  H    1.199657
     9  H    1.807430
    10  H   -3.170023
    11  H   -0.771822
 Sum of Mulliken charges =   0.00000

 Dipole moment (field-independent basis, Debye):
    X=             -2.7373    Y=             -1.5676    Z=             -2.4867  Tot=              4.0167

 Test job not archived.
 1\1\GINC-SE125\SP\RHF\Aug-CC-pVDZ\C2H6B1O1P1\OHZDE\09-Apr-2025\0\\#t h
 f aug-cc-pvdz iop(5/13=1,5/36=2,99/5=2) pseudo=read geom=check guess=(
 read,tcheck) scf=(maxcycle=1)\\title\\0,1\P,0,0.085491,-1.157348,-0.22
 6489\B,0,1.593108,0.044294,0.031069\O,0,1.439974,1.379886,0.078861\C,0
 ,-1.25892,-0.114091,0.446918\C,0,-1.831757,0.873834,-0.249486\H,0,-1.5
 81764,-0.298947,1.468279\H,0,-1.575566,1.072016,-1.286914\H,0,-2.60749
 4,1.497149,0.182887\H,0,0.507642,1.649523,0.093454\H,0,2.699096,-0.399
 41,0.071292\H,0,0.334453,-1.979129,0.89751\\Version=ES64L-G16RevC.01\S

 Normal termination of Gaussian 16 at Wed Apr  9 00:42:31 2025.
