 Gaussian 16, Revision C.01,

 ----------------------------------------------------------------------
 #t hf aug-cc-pvdz symm=none int=(grid=ultrafine) guess=(read,tcheck) s
 table=(opt,rrhf)
 ----------------------------------------------------------------------
 -----
 title
 -----
 Symbolic Z-matrix:
 Charge =  0 Multiplicity = 1

 SCF Done:  E(RHF) =  -407.381799838     A.U. after   12 cycles
 Normal termination of Gaussian 16 at Wed Apr  9 00:42:56 2025.
 Gaussian 16:  ES64L-G16RevC.01  3-Jul-2019

 ----------------------------------------------------------------------
 #t hf aug-cc-pvdz iop(5/13=1,5/36=2,99/5=2) pseudo=read geom=check gue
 ss=(read,tcheck) scf=(maxcycle=1)
 ----------------------------------------------------------------------
 -----
 title
 -----
 Structure from the checkpoint file:  "BDE49_nonexpt_675_mol1.chk"
 Charge =  0 Multiplicity = 1

                         Standard orientation:
 ---------------------------------------------------------------------
 Center     Atomic      Atomic             Coordinates (Angstroms)
 Number     Number       Type             X           Y           Z
 ---------------------------------------------------------------------
      1          8           0        0.230767    0.707911   -0.000027
      2          5           0        1.459148    0.118437   -0.000008
      3          8           0        2.575617    0.919903   -0.000038
      4          6           0       -1.060431    0.041306   -0.000001
      5          6           0       -2.078970    1.183441   -0.000034
      6          1           0       -1.945293    1.809516   -0.885387
      7          1           0       -1.945286    1.809573    0.885278
      8          6           0       -1.202903   -0.808958    1.267792
      9          1           0       -2.200488   -1.254258    1.315520
     10          1           0       -1.063641   -0.186586    2.155760
     11          1           0       -0.463315   -1.610027    1.282276
     12          6           0       -1.202913   -0.809041   -1.267737
     13          1           0       -1.063658   -0.186726   -2.155746
     14          1           0       -2.200499   -1.254344   -1.315427
     15          1           0       -0.463325   -1.610110   -1.282175
     16          1           0       -3.099502    0.792074   -0.000017
     17          1           0        2.336665    1.851234   -0.000072
     18          8           0        1.633180   -1.243020    0.000046
     19          1           0        2.567400   -1.471368    0.000054
 ---------------------------------------------------------------------

 SCF Done:  E(RHF) =  -409.221523451     A.U. after    2 cycles

 The electronic state is 1-A.
 Alpha  occ. eigenvalues --  -21.05144 -21.04954 -21.01044 -11.45176 -11.39038
 Alpha  occ. eigenvalues --  -11.38824 -11.34745  -7.65073  -1.88142  -1.69084
 Alpha  occ. eigenvalues --   -1.65412  -1.21182  -1.00962  -1.00752  -0.82908
 Alpha  occ. eigenvalues --   -0.72669  -0.65661  -0.63268  -0.61595  -0.58840
 Alpha  occ. eigenvalues --   -0.55786  -0.54821  -0.52032  -0.51552  -0.49859
 Alpha  occ. eigenvalues --   -0.49673  -0.45259  -0.44916  -0.37066  -0.36150
 Alpha  occ. eigenvalues --   -0.34352  -0.33236
 Alpha virt. eigenvalues --    0.03348   0.04869   0.05011   0.05449   0.05972
 Alpha virt. eigenvalues --    0.06049   0.06062   0.06364   0.06481   0.07785
 Alpha virt. eigenvalues --    0.09133   0.09501   0.09542   0.09966   0.11067

 Mulliken charges:
               1
     1  O   -8.513643
     2  B   10.387688
     3  O   -3.723104
     4  C    6.337755
     5  C   -3.807836
     6  H    1.284633
     7  H    1.284633
     8  C   -4.994599
     9  H    1.142425
    10  H    1.293624
    11  H    1.423771
    12  C   -4.994594
    13  H    1.293627
    14  H    1.142424
    15  H    1.423760
    16  H    1.189571
    17  H    1.121719
    18  O   -4.393167
    19  H    1.101313
 Sum of Mulliken charges =   0.00000

 Dipole moment (field-independent basis, Debye):
    X=             -0.3718    Y=             -0.1452    Z=              0.0000  Tot=              0.3991

 Test job not archived.
 1\1\GINC-SE049\SP\RHF\Aug-CC-pVDZ\C4H11B1O3\OHZDE\09-Apr-2025\0\\#t hf
  aug-cc-pvdz iop(5/13=1,5/36=2,99/5=2) pseudo=read geom=check guess=(r
 ead,tcheck) scf=(maxcycle=1)\\title\\0,1\O,0,0.230767,0.707911,-0.0000
 27\B,0,1.459148,0.118437,-0.000008\O,0,2.575617,0.919903,-0.000038\C,0
 ,-1.060431,0.041306,-0.000001\C,0,-2.07897,1.183441,-0.000034\H,0,-1.9
 45293,1.809516,-0.885387\H,0,-1.945286,1.809573,0.885278\C,0,-1.202903
 ,-0.808958,1.267792\H,0,-2.200488,-1.254258,1.31552\H,0,-1.063641,-0.1
 86586,2.15576\H,0,-0.463315,-1.610027,1.282276\C,0,-1.202913,-0.809041

 Normal termination of Gaussian 16 at Wed Apr  9 00:43:04 2025.
