 Gaussian 16, Revision C.01,

 ----------------------------------------------------------------------
 #t hf aug-cc-pvdz symm=none int=(grid=ultrafine) guess=(read,tcheck) s
 table=(opt,rrhf)
 ----------------------------------------------------------------------
 -----
 title
 -----
 Symbolic Z-matrix:
 Charge =  0 Multiplicity = 1

 SCF Done:  E(RHF) =  -693.885965081     A.U. after   15 cycles
 Normal termination of Gaussian 16 at Wed Apr  9 00:46:50 2025.
 Gaussian 16:  ES64L-G16RevC.01  3-Jul-2019

 ----------------------------------------------------------------------
 #t hf aug-cc-pvdz iop(5/13=1,5/36=2,99/5=2) pseudo=read geom=check gue
 ss=(read,tcheck) scf=(maxcycle=1)
 ----------------------------------------------------------------------
 -----
 title
 -----
 Structure from the checkpoint file:  "BDE49_nonexpt_783_mol1.chk"
 Charge =  0 Multiplicity = 1

                         Standard orientation:
 ---------------------------------------------------------------------
 Center     Atomic      Atomic             Coordinates (Angstroms)
 Number     Number       Type             X           Y           Z
 ---------------------------------------------------------------------
      1          8           0        1.078173    0.834191    0.324546
      2          6           0        2.384644    1.170617    0.127004
      3          6           0        0.941195   -0.523593    0.044788
      4          6           0        3.094936    0.085846   -0.269871
      5          6           0        2.165264   -1.001785   -0.324202
      6          1           0        4.148748    0.059841   -0.497250
      7          1           0        2.639874    2.201207    0.308334
      8          1           0        2.381432   -2.021094   -0.604350
      9          5           0       -2.111791    0.275594   -0.074286
     10          8           0       -1.723397    1.582358   -0.085058
     11          8           0       -3.425488   -0.028660   -0.257454
     12          1           0       -3.965865    0.763331   -0.377887
     13          1           0       -0.773211    1.690603    0.051255
     14         14           0       -0.785145   -1.241712    0.235344
     15          1           0       -0.897014   -2.364500   -0.725777
     16          1           0       -0.933529   -1.813014    1.599705
 ---------------------------------------------------------------------

 SCF Done:  E(RHF) =  -695.795650089     A.U. after    2 cycles

 The electronic state is 1-A.
 Alpha  occ. eigenvalues --  -76.20761 -21.12100 -21.05720 -21.05560 -11.48054
 Alpha  occ. eigenvalues --  -11.44225 -11.42152 -11.37415  -7.63789  -5.54491
 Alpha  occ. eigenvalues --   -2.19347  -2.17502  -2.16510  -1.84694  -1.80457
 Alpha  occ. eigenvalues --   -1.65265  -1.20161  -1.06135  -0.84085  -0.81224
 Alpha  occ. eigenvalues --   -0.76712  -0.74487  -0.67791  -0.62524  -0.58141
 Alpha  occ. eigenvalues --   -0.55681  -0.53776  -0.52174  -0.49185  -0.46142
 Alpha  occ. eigenvalues --   -0.45301  -0.44824  -0.41649  -0.36255  -0.34410
 Alpha  occ. eigenvalues --   -0.34043  -0.32293
 Alpha virt. eigenvalues --    0.03149   0.04395   0.05049   0.05114   0.05615
 Alpha virt. eigenvalues --    0.05943   0.07068   0.07950   0.08796   0.09036
 Alpha virt. eigenvalues --    0.09298   0.10571   0.10754   0.11761   0.12096

 Mulliken charges:
               1
     1  O   -3.746678
     2  C    0.237136
     3  C    0.728623
     4  C   -0.948106
     5  C   -1.704957
     6  H    1.280553
     7  H    1.572171
     8  H    1.526480
     9  B    5.534008
    10  O   -4.618337
    11  O   -4.153202
    12  H    1.473896
    13  H    1.819301
    14  Si   4.798644
    15  H   -1.816579
    16  H   -1.982954
 Sum of Mulliken charges =  -0.00000

 Dipole moment (field-independent basis, Debye):
    X=              1.4893    Y=              1.2847    Z=             -0.1658  Tot=              1.9738

 Test job not archived.
 1\1\GINC-SE009\SP\RHF\Aug-CC-pVDZ\C4H7B1O3Si1\OHZDE\09-Apr-2025\0\\#t
 hf aug-cc-pvdz iop(5/13=1,5/36=2,99/5=2) pseudo=read geom=check guess=
 (read,tcheck) scf=(maxcycle=1)\\title\\0,1\O,0,1.078173,0.834191,0.324
 546\C,0,2.384644,1.170617,0.127004\C,0,0.941195,-0.523593,0.044788\C,0
 ,3.094936,0.085846,-0.269871\C,0,2.165264,-1.001785,-0.324202\H,0,4.14
 8748,0.059841,-0.49725\H,0,2.639874,2.201207,0.308334\H,0,2.381432,-2.
 021094,-0.60435\B,0,-2.111791,0.275594,-0.074286\O,0,-1.723397,1.58235
 8,-0.085058\O,0,-3.425488,-0.02866,-0.257454\H,0,-3.965865,0.763331,-0

 Normal termination of Gaussian 16 at Wed Apr  9 00:46:57 2025.
