 Gaussian 16, Revision C.01,

 ----------------------------------------------------------------------
 #t hf aug-cc-pvdz symm=none int=(grid=ultrafine) guess=(read,tcheck) s
 table=(opt,rrhf)
 ----------------------------------------------------------------------
 -----
 title
 -----
 Symbolic Z-matrix:
 Charge =  0 Multiplicity = 1

 SCF Done:  E(RHF) =  -1346.84592599     A.U. after   15 cycles
 Normal termination of Gaussian 16 at Wed Apr  9 00:18:34 2025.
 Gaussian 16:  ES64L-G16RevC.01  3-Jul-2019

 ----------------------------------------------------------------------
 #t hf aug-cc-pvdz iop(5/13=1,5/36=2,99/5=2) pseudo=read geom=check gue
 ss=(read,tcheck) scf=(maxcycle=1)
 ----------------------------------------------------------------------
 -----
 title
 -----
 Structure from the checkpoint file:  "BDE49_nonexpt_2571_mol1.chk"
 Charge =  0 Multiplicity = 1

                         Standard orientation:
 ---------------------------------------------------------------------
 Center     Atomic      Atomic             Coordinates (Angstroms)
 Number     Number       Type             X           Y           Z
 ---------------------------------------------------------------------
      1         17           0        1.869439   -1.058335    0.000024
      2         16           0        1.332164    0.969512   -0.000032
      3          7           0       -0.306636    1.004282    0.000026
      4          6           0       -1.322274    0.352759    0.000069
      5         16           0       -2.688437   -0.416689   -0.000031
 ---------------------------------------------------------------------

 SCF Done:  E(RHF) =  -1347.93541847     A.U. after    2 cycles

 The electronic state is 1-A.
 Alpha  occ. eigenvalues --  -99.92918 -75.81109 -75.72052 -15.82158 -13.29239
 Alpha  occ. eigenvalues --  -13.24287 -13.15533 -13.12256 -13.03269 -13.03230
 Alpha  occ. eigenvalues --  -11.55660 -10.50015  -9.69702  -9.69114  -9.69012
 Alpha  occ. eigenvalues --   -8.14714  -8.06336  -1.48708  -1.33454  -1.20329
 Alpha  occ. eigenvalues --   -1.07891  -0.74614  -0.61910  -0.60465  -0.58124
 Alpha  occ. eigenvalues --   -0.56130  -0.54272  -0.50212  -0.34365  -0.31770
 Alpha  occ. eigenvalues --   -0.22956
 Alpha virt. eigenvalues --    0.01345   0.03785   0.05842   0.07616   0.08800
 Alpha virt. eigenvalues --    0.09836   0.11156   0.11799   0.12269   0.13495
 Alpha virt. eigenvalues --    0.15572   0.16126   0.16931   0.16986   0.18941

 Mulliken charges:
               1
     1  Cl  -0.392152
     2  S    1.347227
     3  N   -2.530353
     4  C   -0.042727
     5  S    1.618005
 Sum of Mulliken charges =  -0.00000

 Dipole moment (field-independent basis, Debye):
    X=             -2.6098    Y=              1.1890    Z=             -0.0004  Tot=              2.8679

 Test job not archived.
 1\1\GINC-SE343\SP\RHF\Aug-CC-pVDZ\C1Cl1N1S2\OHZDE\09-Apr-2025\0\\#t hf
  aug-cc-pvdz iop(5/13=1,5/36=2,99/5=2) pseudo=read geom=check guess=(r
 ead,tcheck) scf=(maxcycle=1)\\title\\0,1\Cl,0,-1.869439,1.058335,0.000
 024\S,0,-1.332164,-0.969512,-0.000032\N,0,0.306636,-1.004282,0.000026\
 C,0,1.322274,-0.352759,0.000069\S,0,2.688437,0.416689,-0.000031\\Versi
 on=ES64L-G16RevC.01\State=1-A\HF=-1347.9354185\RMSD=1.414e-01\Dipole=1
 .0267597,-0.4677913,-0.0001718\Quadrupole=7.3688596,-0.723945,-6.64491
 45,7.3412063,-0.0004555,0.0000716\PG=C01 [X(C1Cl1N1S2)]\\@

 Normal termination of Gaussian 16 at Wed Apr  9 00:18:36 2025.
