 Gaussian 16, Revision C.01,

 ----------------------------------------------------------------------
 #t hf aug-cc-pvdz symm=none int=(grid=ultrafine) guess=(read,tcheck) s
 table=(opt,rrhf)
 ----------------------------------------------------------------------
 -----
 title
 -----
 Symbolic Z-matrix:
 Charge =  0 Multiplicity = 1

 SCF Done:  E(RHF) =  -689.148774721     A.U. after   15 cycles

 1\1\GINC-SE402\Stability\RHF\Aug-CC-pVDZ\C9H13P1\OHZDE\08-Apr-2025\0\\
 #t hf aug-cc-pvdz symm=none int=(grid=ultrafine) guess=(read,tcheck) s
 table=(opt,rrhf)\\title\\0,1\C,0,0.313645,0.13325,0.125177\C,0,0.93877
 7,-1.10173,0.364581\C,0,2.315541,-1.253281,0.240577\C,0,3.111335,-0.17
 0886,-0.129792\C,0,2.510186,1.058406,-0.375291\C,0,1.128724,1.207336,-
 0.251565\P,0,-1.986009,-0.957149,-0.968415\H,0,2.766885,-2.220594,0.43
 1883\H,0,4.184827,-0.286788,-0.226676\H,0,3.114172,1.911233,-0.665358\
 H,0,0.694701,2.178249,-0.449638\H,0,0.341305,-1.961682,0.644014\C,0,-1

 Normal termination of Gaussian 16 at Tue Apr  8 23:32:19 2025.
 Gaussian 16:  ES64L-G16RevC.01  3-Jul-2019

 ----------------------------------------------------------------------
 #t hf aug-cc-pvdz iop(5/13=1,5/36=2,99/5=2) pseudo=read geom=check gue
 ss=(read,tcheck) scf=(maxcycle=1)
 ----------------------------------------------------------------------
 -----
 title
 -----
 Structure from the checkpoint file:  "BDE49_nonexpt_1350_mol1.chk"
 Charge =  0 Multiplicity = 1

                         Standard orientation:
 ---------------------------------------------------------------------
 Center     Atomic      Atomic             Coordinates (Angstroms)
 Number     Number       Type             X           Y           Z
 ---------------------------------------------------------------------
      1          6           0        0.313645    0.133250    0.125177
      2          6           0        0.938777   -1.101730    0.364581
      3          6           0        2.315541   -1.253281    0.240577
      4          6           0        3.111335   -0.170886   -0.129792
      5          6           0        2.510186    1.058406   -0.375291
      6          6           0        1.128724    1.207336   -0.251565
      7         15           0       -1.986009   -0.957149   -0.968415
      8          1           0        2.766885   -2.220594    0.431883
      9          1           0        4.184827   -0.286788   -0.226676
     10          1           0        3.114172    1.911233   -0.665358
     11          1           0        0.694701    2.178249   -0.449638
     12          1           0        0.341305   -1.961682    0.644014
     13          6           0       -1.207439    0.268623    0.273720
     14          6           0       -1.711607    1.699794    0.028223
     15          1           0       -1.483058    2.052830   -0.979436
     16          1           0       -1.268349    2.399452    0.745846
     17          1           0       -2.795576    1.740759    0.153927
     18          6           0       -1.651480   -0.169490    1.689609
     19          1           0       -1.198233    0.485086    2.440377
     20          1           0       -1.358473   -1.194983    1.919395
     21          1           0       -2.738451   -0.100062    1.793132
     22          1           0       -1.648446   -0.245774   -2.149128
     23          1           0       -3.307252   -0.432633   -0.923549
 ---------------------------------------------------------------------

 SCF Done:  E(RHF) =  -691.089429483     A.U. after    2 cycles

 The electronic state is 1-A.
 Alpha  occ. eigenvalues -- -105.17750 -11.51971 -11.45500 -11.43251 -11.42929
 Alpha  occ. eigenvalues --  -11.40639 -11.40457 -11.39635 -11.38185 -11.35913
 Alpha  occ. eigenvalues --   -2.74126  -1.47987  -1.44550  -1.44084  -1.34815
 Alpha  occ. eigenvalues --   -1.20212  -1.09040  -1.07036  -1.01067  -0.88809
 Alpha  occ. eigenvalues --   -0.85886  -0.79568  -0.72040  -0.70065  -0.63413
 Alpha  occ. eigenvalues --   -0.61193  -0.59368  -0.57585  -0.56778  -0.54779
 Alpha  occ. eigenvalues --   -0.53118  -0.50830  -0.49726  -0.47002  -0.42936
 Alpha  occ. eigenvalues --   -0.41895  -0.33630  -0.32789  -0.25577  -0.19985
 Alpha  occ. eigenvalues --   -0.02604
 Alpha virt. eigenvalues --    0.03636   0.05006   0.05127   0.05803   0.05875
 Alpha virt. eigenvalues --    0.06188   0.06638   0.06922   0.07197   0.07532
 Alpha virt. eigenvalues --    0.08850   0.09221   0.09774   0.10623   0.11675

 Mulliken charges:
               1
     1  C    5.044069
     2  C   -2.669393
     3  C   -2.733420
     4  C   -3.487841
     5  C   -2.188230
     6  C   -2.379068
     7  P    1.963828
     8  H    1.483236
     9  H    1.569236
    10  H    1.517011
    11  H    1.804768
    12  H    1.924231
    13  C    4.538073
    14  C   -6.146174
    15  H    1.209553
    16  H    1.243561
    17  H    1.041018
    18  C   -5.300601
    19  H    1.285956
    20  H    1.345185
    21  H    1.211470
    22  H   -1.014457
    23  H   -1.262011
 Sum of Mulliken charges =  -0.00000

 Dipole moment (field-independent basis, Debye):
    X=              0.3154    Y=             -2.2265    Z=              0.8760  Tot=              2.4133

 Test job not archived.
 1\1\GINC-SE402\SP\RHF\Aug-CC-pVDZ\C9H13P1\OHZDE\08-Apr-2025\0\\#t hf a
 ug-cc-pvdz iop(5/13=1,5/36=2,99/5=2) pseudo=read geom=check guess=(rea
 d,tcheck) scf=(maxcycle=1)\\title\\0,1\C,0,0.313645,0.13325,0.125177\C
 ,0,0.938777,-1.10173,0.364581\C,0,2.315541,-1.253281,0.240577\C,0,3.11
 1335,-0.170886,-0.129792\C,0,2.510186,1.058406,-0.375291\C,0,1.128724,
 1.207336,-0.251565\P,0,-1.986009,-0.957149,-0.968415\H,0,2.766885,-2.2
 20594,0.431883\H,0,4.184827,-0.286788,-0.226676\H,0,3.114172,1.911233,
 -0.665358\H,0,0.694701,2.178249,-0.449638\H,0,0.341305,-1.961682,0.644

 Normal termination of Gaussian 16 at Tue Apr  8 23:32:33 2025.
