 Gaussian 16, Revision C.01,

 ----------------------------------------------------------------------
 #t hf aug-cc-pvdz symm=none int=(grid=ultrafine) guess=(read,tcheck) s
 table=opt
 ----------------------------------------------------------------------
 -----
 title
 -----
 Symbolic Z-matrix:
 Charge =  0 Multiplicity = 2

 SCF Done:  E(UHF) =  -178.831409255     A.U. after   15 cycles
 Normal termination of Gaussian 16 at Tue Apr  8 23:55:23 2025.
 Gaussian 16:  ES64L-G16RevC.01  3-Jul-2019

 ----------------------------------------------------------------------
 #t hf aug-cc-pvdz iop(5/13=1,5/36=2,99/5=2) pseudo=read geom=check gue
 ss=(read,tcheck) scf=(maxcycle=1)
 ----------------------------------------------------------------------
 -----
 title
 -----
 Structure from the checkpoint file:  "BDE49_nonexpt_1961_mol2.chk"
 Charge =  0 Multiplicity = 2

                         Standard orientation:
 ---------------------------------------------------------------------
 Center     Atomic      Atomic             Coordinates (Angstroms)
 Number     Number       Type             X           Y           Z
 ---------------------------------------------------------------------
      1          6           0       -1.130093   -1.070120    0.000050
      2          5           0       -0.043354    0.030118   -0.000005
      3          8           0       -0.397281    1.355224   -0.000013
      4          6           0        1.495050   -0.306668   -0.000010
      5          1           0       -1.349361    1.495179    0.000004
      6          1           0        1.763338   -0.912310   -0.874194
      7          1           0        1.763356   -0.912257    0.874207
      8          1           0        2.120968    0.588380   -0.000043
      9          1           0       -0.893710   -2.130635   -0.000048
     10          1           0       -2.199311   -0.860013   -0.000044
 ---------------------------------------------------------------------

 SCF Done:  E(UHF) =  -179.638087124     A.U. after    2 cycles

 The electronic state is 2-A.
 Alpha  occ. eigenvalues --  -21.05387 -11.36159 -11.32114  -7.60309  -1.73429
 Alpha  occ. eigenvalues --   -1.09490  -0.99964  -0.71265  -0.61265  -0.59311
 Alpha  occ. eigenvalues --   -0.54524  -0.51567  -0.43811  -0.43065  -0.38102
 Alpha  occ. eigenvalues --   -0.34591
 Alpha virt. eigenvalues --    0.02820   0.04258   0.04935   0.04958   0.07754
 Alpha virt. eigenvalues --    0.07991   0.08808   0.09006   0.09663   0.10180
 Alpha virt. eigenvalues --    0.14526   0.15572   0.16725   0.17260   0.18039

  Beta  occ. eigenvalues --  -21.05202 -11.34313 -11.32115  -7.60403  -1.72980
  Beta  occ. eigenvalues --   -1.06862  -0.94143  -0.70698  -0.60443  -0.58121
  Beta  occ. eigenvalues --   -0.53893  -0.51328  -0.43037  -0.40510  -0.37016
  Beta virt. eigenvalues --    0.03013   0.04277   0.04286   0.04965   0.06812
  Beta virt. eigenvalues --    0.07763   0.08011   0.08981   0.09190   0.09674
  Beta virt. eigenvalues --    0.10277   0.15782   0.15790   0.16847   0.17319

 Mulliken charges and spin densities:
               1          2
     1  C   -5.357539   1.264134
     2  B    8.271048  -0.182116
     3  O   -3.353018   0.052285
     4  C   -5.989017  -0.024161
     5  H    1.250792  -0.008041
     6  H    0.763258   0.010249
     7  H    0.763262   0.010252
     8  H    1.141430   0.002177
     9  H    1.324525  -0.065597
    10  H    1.185260  -0.059183
 Sum of Mulliken charges =  -0.00000   1.00000

 Dipole moment (field-independent basis, Debye):
    X=             -0.9690    Y=             -0.3094    Z=             -0.0001  Tot=              1.0172
                          Isotropic Fermi Contact Couplings
        Atom                 a.u.       MegaHertz       Gauss      10(-4) cm-1
     1  C(13)              0.08938     100.48124      35.85420      33.51693
     2  B(11)             -0.01463     -20.97951      -7.48601      -6.99801
     3  O(17)              0.01327      -8.04619      -2.87108      -2.68392
     4  C(13)             -0.00276      -3.10747      -1.10882      -1.03654
     5  H(1)              -0.00093      -4.15148      -1.48135      -1.38478
     6  H(1)               0.00104       4.64242       1.65653       1.54854
     7  H(1)               0.00104       4.64181       1.65631       1.54834
     8  H(1)              -0.00040      -1.79812      -0.64161      -0.59979

 Normal termination of Gaussian 16 at Tue Apr  8 23:55:26 2025.
