 Gaussian 16, Revision C.01,

 ----------------------------------------------------------------------
 #t hf aug-cc-pvdz symm=none int=(grid=ultrafine) guess=(read,tcheck) s
 table=(opt,rrhf)
 ----------------------------------------------------------------------
 -----
 title
 -----
 Symbolic Z-matrix:
 Charge =  0 Multiplicity = 1

 SCF Done:  E(RHF) =  -2037.12322735     A.U. after   16 cycles
 Normal termination of Gaussian 16 at Tue Apr  8 23:27:11 2025.
 Gaussian 16:  ES64L-G16RevC.01  3-Jul-2019

 ----------------------------------------------------------------------
 #t hf aug-cc-pvdz iop(5/13=1,5/36=2,99/5=2) pseudo=read geom=check gue
 ss=(read,tcheck) scf=(maxcycle=1)
 ----------------------------------------------------------------------
 -----
 title
 -----
 Structure from the checkpoint file:  "BDE49_nonexpt_1244_mol1.chk"
 Charge =  0 Multiplicity = 1

                         Standard orientation:
 ---------------------------------------------------------------------
 Center     Atomic      Atomic             Coordinates (Angstroms)
 Number     Number       Type             X           Y           Z
 ---------------------------------------------------------------------
      1         17           0       -1.595392   -1.618073   -1.264123
      2         17           0       -1.595367    1.618323   -1.263817
      3         16           0       -0.348266   -0.000133    1.368435
      4          8           0       -0.483475   -1.270457    2.059279
      5          8           0       -0.483466    1.270054    2.059533
      6         15           0       -2.115121    0.000015   -0.059847
      7          6           0        1.767144   -1.220047    0.113332
      8          6           0        2.968576   -1.210984   -0.588048
      9          6           0        3.564118    0.000085   -0.939600
     10          6           0        2.968581    1.211088   -0.587810
     11          6           0        1.767149    1.220019    0.113572
     12          6           0        1.180831   -0.000047    0.453968
     13          1           0        1.297157   -2.146901    0.413795
     14          1           0        3.442005   -2.148470   -0.854245
     15          1           0        4.500768    0.000136   -1.485198
     16          1           0        3.442015    2.148624   -0.853823
     17          1           0        1.297166    2.146815    0.414216
 ---------------------------------------------------------------------

 SCF Done:  E(RHF) =  -2039.78073318     A.U. after    2 cycles

 The electronic state is 1-A.
 Alpha  occ. eigenvalues -- -105.31330 -99.92707 -99.92706 -75.90069 -21.06242
 Alpha  occ. eigenvalues --  -21.06180 -13.52605 -13.40467 -13.36441 -11.54852
 Alpha  occ. eigenvalues --  -11.46905 -11.46676 -11.44722 -11.43642 -11.39820
 Alpha  occ. eigenvalues --  -10.50007 -10.49981  -9.69907  -9.69786  -9.69311
 Alpha  occ. eigenvalues --   -9.69193  -9.69126  -9.69108  -8.25056  -2.88865
 Alpha  occ. eigenvalues --   -1.83959  -1.66524  -1.58223  -1.56597  -1.53723
 Alpha  occ. eigenvalues --   -1.37548  -1.28179  -1.24392  -1.15400  -1.12604
 Alpha  occ. eigenvalues --   -0.98873  -0.89965  -0.85939  -0.78034  -0.73848
 Alpha  occ. eigenvalues --   -0.66659  -0.61724  -0.61612  -0.61070  -0.58474
 Alpha  occ. eigenvalues --   -0.58307  -0.56509  -0.55163  -0.54018  -0.51975
 Alpha  occ. eigenvalues --   -0.49519  -0.48921  -0.47402  -0.45324  -0.41298
 Alpha  occ. eigenvalues --   -0.39577  -0.36880  -0.36707  -0.35773  -0.29012
 Alpha  occ. eigenvalues --   -0.10672
 Alpha virt. eigenvalues --    0.02860   0.04667   0.04837   0.05828   0.06377
 Alpha virt. eigenvalues --    0.07172   0.07526   0.08810   0.09044   0.09788
 Alpha virt. eigenvalues --    0.10452   0.11866   0.12198   0.12684   0.12807

 Mulliken charges:
               1
     1  Cl  -1.309603
     2  Cl  -1.309604
     3  S    5.382532
     4  O   -2.824216
     5  O   -2.824212
     6  P    3.835291
     7  C   -3.633707
     8  C   -0.492874
     9  C   -2.632174
    10  C   -0.492883
    11  C   -3.633759
    12  C    1.734574
    13  H    1.781237
    14  H    1.541718
    15  H    1.554730
    16  H    1.541717
    17  H    1.781233
 Sum of Mulliken charges =   0.00000

 Dipole moment (field-independent basis, Debye):
    X=             -4.9389    Y=             -0.0001    Z=              1.2637  Tot=              5.0980

 Test job not archived.
 1\1\GINC-SE361\SP\RHF\Aug-CC-pVDZ\C6H5Cl2O2P1S1\OHZDE\08-Apr-2025\0\\#
 t hf aug-cc-pvdz iop(5/13=1,5/36=2,99/5=2) pseudo=read geom=check gues
 s=(read,tcheck) scf=(maxcycle=1)\\title\\0,1\Cl,0,-1.595392,-1.618073,
 -1.264123\Cl,0,-1.595367,1.618323,-1.263817\S,0,-0.348266,-0.000133,1.
 368435\O,0,-0.483475,-1.270457,2.059279\O,0,-0.483466,1.270054,2.05953
 3\P,0,-2.115121,0.000015,-0.059847\C,0,1.767144,-1.220047,0.113332\C,0
 ,2.968576,-1.210984,-0.588048\C,0,3.564118,0.000085,-0.9396\C,0,2.9685
 81,1.211088,-0.58781\C,0,1.767149,1.220019,0.113572\C,0,1.180831,-0.00

 Normal termination of Gaussian 16 at Tue Apr  8 23:27:22 2025.
