 Gaussian 16, Revision C.01,

 ----------------------------------------------------------------------
 #t hf aug-cc-pvdz symm=none int=(grid=ultrafine) guess=(read,tcheck) s
 table=opt
 ----------------------------------------------------------------------
 -----
 title
 -----
 Symbolic Z-matrix:
 Charge =  0 Multiplicity = 2

 SCF Done:  E(UHF) =  -857.007865232     A.U. after   15 cycles
 Normal termination of Gaussian 16 at Tue Apr  8 22:59:35 2025.
 Gaussian 16:  ES64L-G16RevC.01  3-Jul-2019

 ----------------------------------------------------------------------
 #t hf aug-cc-pvdz iop(5/13=1,5/36=2,99/5=2) pseudo=read geom=check gue
 ss=(read,tcheck) scf=(maxcycle=1)
 ----------------------------------------------------------------------
 -----
 title
 -----
 Structure from the checkpoint file:  "BDE49_expt_1934_mol2.chk"
 Charge =  0 Multiplicity = 2

                         Standard orientation:
 ---------------------------------------------------------------------
 Center     Atomic      Atomic             Coordinates (Angstroms)
 Number     Number       Type             X           Y           Z
 ---------------------------------------------------------------------
      1         17           0        0.000000    0.000000    0.979767
      2         16           0        0.000000    0.000000   -1.041002
 ---------------------------------------------------------------------

 SCF Done:  E(UHF) =  -857.436398307     A.U. after    2 cycles

 Unable to determine electronic state:  an orbital has unidentified symmetry.
 Alpha  occ. eigenvalues --  -99.93071 -75.77023 -13.10036 -13.09182 -13.07160
 Alpha  occ. eigenvalues --  -10.50316  -9.69829  -9.69479  -9.69196  -8.10493
 Alpha  occ. eigenvalues --   -1.37258  -1.07418  -0.58886  -0.57613  -0.57594
 Alpha  occ. eigenvalues --   -0.32667  -0.27811
 Alpha virt. eigenvalues --    0.02733   0.06654   0.11298   0.12069   0.12972
 Alpha virt. eigenvalues --    0.15648   0.16652   0.17172   0.24682   0.25880
 Alpha virt. eigenvalues --    0.25892   0.26191   0.26684   0.37921   0.38402

  Beta  occ. eigenvalues --  -99.92970 -75.76026 -13.09480 -13.06584 -13.03202
  Beta  occ. eigenvalues --  -10.50210  -9.69936  -9.69139  -9.68899  -8.09380
  Beta  occ. eigenvalues --   -1.35679  -0.98945  -0.57362  -0.56299  -0.55512
  Beta  occ. eigenvalues --   -0.26336
  Beta virt. eigenvalues --    0.01690   0.03365   0.06894   0.12150   0.12587
  Beta virt. eigenvalues --    0.13199   0.16406   0.17240   0.17853   0.26299
  Beta virt. eigenvalues --    0.26742   0.27636   0.27676   0.29135   0.39643

 Mulliken charges and spin densities:
               1          2
     1  Cl  -0.458634   0.012211
     2  S    0.458634   0.987789
 Sum of Mulliken charges =  -0.00000   1.00000

 Dipole moment (field-independent basis, Debye):
    X=              0.0000    Y=             -0.0000    Z=             -3.2108  Tot=              3.2108
                          Isotropic Fermi Contact Couplings
        Atom                 a.u.       MegaHertz       Gauss      10(-4) cm-1
     1  Cl(35)             0.04914      21.54683       7.68845       7.18725
     2  S(33)              0.27867      95.71628      34.15395      31.92752
 --------------------------------------------------------
       Center         ----  Spin Dipole Couplings  ----
                      3XX-RR        3YY-RR        3ZZ-RR
 --------------------------------------------------------
     1   Atom        0.125763      0.185140     -0.310903
     2   Atom        0.097715      0.165589     -0.263304

 Normal termination of Gaussian 16 at Tue Apr  8 22:59:36 2025.
