 Gaussian 16, Revision C.01,

 ----------------------------------------------------------------------
 #t hf aug-cc-pvdz symm=none int=(grid=ultrafine) guess=(read,tcheck) s
 table=(opt,rrhf)
 ----------------------------------------------------------------------
 -----
 title
 -----
 Symbolic Z-matrix:
 Charge =  0 Multiplicity = 1

 SCF Done:  E(RHF) =  -1054.64335509     A.U. after   16 cycles
 Normal termination of Gaussian 16 at Wed Apr  9 00:04:58 2025.
 Gaussian 16:  ES64L-G16RevC.01  3-Jul-2019

 ----------------------------------------------------------------------
 #t hf aug-cc-pvdz iop(5/13=1,5/36=2,99/5=2) pseudo=read geom=check gue
 ss=(read,tcheck) scf=(maxcycle=1)
 ----------------------------------------------------------------------
 -----
 title
 -----
 Structure from the checkpoint file:  "BDE49_nonexpt_2187_mol1.chk"
 Charge =  0 Multiplicity = 1

                         Standard orientation:
 ---------------------------------------------------------------------
 Center     Atomic      Atomic             Coordinates (Angstroms)
 Number     Number       Type             X           Y           Z
 ---------------------------------------------------------------------
      1          6           0        2.736433   -0.585069    0.275451
      2          6           0        2.082412    0.643119    0.247758
      3          6           0        0.722004    0.698743   -0.038339
      4          6           0        2.026982   -1.754265    0.010945
      5          6           0        0.667503   -1.696226   -0.277889
      6          6           0       -0.002162   -0.471147   -0.304244
      7          1           0        3.795888   -0.623124    0.498227
      8          1           0        2.616943    1.563122    0.446852
      9         17           0       -0.092108    2.248119   -0.075772
     10          1           0        2.530469   -2.713709    0.025268
     11          1           0        0.104002   -2.594726   -0.499924
     12          8           0       -1.323564   -0.409897   -0.634330
     13         14           0       -2.654682   -0.667709    0.331330
     14          1           0       -3.813471   -0.357015   -0.522814
     15          1           0       -2.614598    0.205091    1.523783
     16          1           0       -2.698363   -2.081488    0.770667
 ---------------------------------------------------------------------

 SCF Done:  E(RHF) =  -1056.45114647     A.U. after    2 cycles

 The electronic state is 1-A.
 Alpha  occ. eigenvalues --  -99.89441 -76.24947 -21.07300 -11.54021 -11.47844
 Alpha  occ. eigenvalues --  -11.45633 -11.43271 -11.41956 -11.38111 -10.46795
 Alpha  occ. eigenvalues --   -9.66822  -9.66021  -9.65770  -5.58432  -2.25090
 Alpha  occ. eigenvalues --   -2.20283  -2.20040  -1.75010  -1.38294  -1.27918
 Alpha  occ. eigenvalues --   -1.09966  -1.07650  -0.89060  -0.86809  -0.77028
 Alpha  occ. eigenvalues --   -0.71367  -0.66081  -0.63922  -0.60148  -0.59449
 Alpha  occ. eigenvalues --   -0.57921  -0.52506  -0.51298  -0.50537  -0.49166
 Alpha  occ. eigenvalues --   -0.48243  -0.46298  -0.43959  -0.37319  -0.34320
 Alpha  occ. eigenvalues --   -0.30161
 Alpha virt. eigenvalues --    0.03188   0.04855   0.05141   0.05270   0.06282
 Alpha virt. eigenvalues --    0.06706   0.07147   0.07926   0.08479   0.09228
 Alpha virt. eigenvalues --    0.09854   0.11104   0.11398   0.11948   0.12689

 Mulliken charges:
               1
     1  C   -0.760515
     2  C   -0.521027
     3  C   -2.812066
     4  C   -0.776567
     5  C   -3.392066
     6  C    5.629024
     7  H    1.538337
     8  H    1.780416
     9  Cl  -0.742606
    10  H    1.550139
    11  H    1.875572
    12  O   -4.523683
    13  Si   6.288112
    14  H   -1.729906
    15  H   -1.717715
    16  H   -1.685451
 Sum of Mulliken charges =  -0.00000

 Dipole moment (field-independent basis, Debye):
    X=              0.9756    Y=             -1.9646    Z=             -0.0888  Tot=              2.1953

 Test job not archived.
 1\1\GINC-SE398\SP\RHF\Aug-CC-pVDZ\C6H7Cl1O1Si1\OHZDE\09-Apr-2025\0\\#t
  hf aug-cc-pvdz iop(5/13=1,5/36=2,99/5=2) pseudo=read geom=check guess
 =(read,tcheck) scf=(maxcycle=1)\\title\\0,1\C,0,2.736433,-0.585068,0.2
 75451\C,0,2.082412,0.643119,0.247758\C,0,0.722004,0.698743,-0.038339\C
 ,0,2.026983,-1.754265,0.010945\C,0,0.667504,-1.696226,-0.277889\C,0,-0
 .002162,-0.471147,-0.304244\H,0,3.795888,-0.623123,0.498227\H,0,2.6169
 43,1.563123,0.446852\Cl,0,-0.092109,2.248119,-0.075772\H,0,2.53047,-2.
 713708,0.025268\H,0,0.104003,-2.594726,-0.499924\O,0,-1.323564,-0.4098

 Normal termination of Gaussian 16 at Wed Apr  9 00:05:06 2025.
