 Gaussian 16, Revision C.01,

 ----------------------------------------------------------------------
 #t hf aug-cc-pvdz symm=none int=(grid=ultrafine) guess=(read,tcheck) s
 table=(opt,rrhf)
 ----------------------------------------------------------------------
 -----
 title
 -----
 Symbolic Z-matrix:
 Charge =  0 Multiplicity = 1

 SCF Done:  E(RHF) =  -1109.54312310     A.U. after   14 cycles
 Normal termination of Gaussian 16 at Tue Apr  8 22:41:07 2025.
 Gaussian 16:  ES64L-G16RevC.01  3-Jul-2019

 ----------------------------------------------------------------------
 #t hf aug-cc-pvdz iop(5/13=1,5/36=2,99/5=2) pseudo=read geom=check gue
 ss=(read,tcheck) scf=(maxcycle=1)
 ----------------------------------------------------------------------
 -----
 title
 -----
 Structure from the checkpoint file:  "BDE49_expt_1268_mol1.chk"
 Charge =  0 Multiplicity = 1

                         Standard orientation:
 ---------------------------------------------------------------------
 Center     Atomic      Atomic             Coordinates (Angstroms)
 Number     Number       Type             X           Y           Z
 ---------------------------------------------------------------------
      1          6           0       -0.000032   -0.000424    0.230553
      2          7           0        0.219489    1.436004   -0.358146
      3          7           0        1.132885   -0.907750   -0.362172
      4          7           0       -1.353591   -0.526922   -0.360015
      5         17           0        0.001069   -0.002944    1.948166
      6          8           0       -1.253100   -1.260057   -1.314847
      7          8           0        1.280415   -1.970099    0.188009
      8          8           0       -0.467688    1.717025   -1.311088
      9          8           0        1.718628   -0.450981   -1.314827
     10          8           0        1.066724    2.092789    0.193106
     11          8           0       -2.346163   -0.123268    0.192171
 ---------------------------------------------------------------------

 SCF Done:  E(RHF) =  -1112.50944915     A.U. after    2 cycles

 The electronic state is 1-A.
 Alpha  occ. eigenvalues --  -99.99336 -21.16886 -21.16885 -21.16884 -21.16632
 Alpha  occ. eigenvalues --  -21.16632 -21.16619 -16.07842 -16.07841 -16.07802
 Alpha  occ. eigenvalues --  -11.65408 -10.56815  -9.76971  -9.75746  -9.75746
 Alpha  occ. eigenvalues --   -2.09522  -2.05734  -2.05734  -1.77348  -1.77348
 Alpha  occ. eigenvalues --   -1.77228  -1.47960  -1.28419  -1.06719  -1.06716
 Alpha  occ. eigenvalues --   -0.85686  -0.81705  -0.81700  -0.81227  -0.71710
 Alpha  occ. eigenvalues --   -0.71710  -0.68438  -0.67000  -0.66999  -0.65976
 Alpha  occ. eigenvalues --   -0.61111  -0.61110  -0.48332  -0.41221  -0.41219
 Alpha  occ. eigenvalues --   -0.40961  -0.38099  -0.37355  -0.37351  -0.35514
 Alpha  occ. eigenvalues --   -0.35510
 Alpha virt. eigenvalues --    0.01743   0.06605   0.06616   0.06751   0.09169
 Alpha virt. eigenvalues --    0.11024   0.11027   0.13026   0.13029   0.13476
 Alpha virt. eigenvalues --    0.14333   0.14848   0.14850   0.15307   0.15309

 Mulliken charges:
               1
     1  C    1.861679
     2  N    5.201436
     3  N    5.200675
     4  N    5.200428
     5  Cl   0.572873
     6  O   -2.905867
     7  O   -3.106590
     8  O   -2.905850
     9  O   -2.905287
    10  O   -3.106915
    11  O   -3.106582
 Sum of Mulliken charges =  -0.00000

 Dipole moment (field-independent basis, Debye):
    X=              0.0010    Y=              0.0010    Z=             -0.0982  Tot=              0.0982

 Test job not archived.
 1\1\GINC-SE229\SP\RHF\Aug-CC-pVDZ\C1Cl1N3O6\OHZDE\08-Apr-2025\0\\#t hf
  aug-cc-pvdz iop(5/13=1,5/36=2,99/5=2) pseudo=read geom=check guess=(r
 ead,tcheck) scf=(maxcycle=1)\\title\\0,1\C,0,0.000032,0.000424,0.23055
 3\N,0,-0.219128,-1.436059,-0.358146\N,0,-1.133113,0.907465,-0.362172\N
 ,0,1.353458,0.527263,-0.360015\Cl,0,-0.00107,0.002944,1.948166\O,0,1.2
 52783,1.260372,-1.314847\O,0,-1.280911,1.969777,0.188009\O,0,0.46812,-
 1.716907,-1.311088\O,0,-1.718741,0.450549,-1.314827\O,0,-1.066197,-2.0
 93057,0.193106\O,0,2.346132,0.123858,0.192171\\Version=ES64L-G16RevC.0

 Normal termination of Gaussian 16 at Tue Apr  8 22:41:16 2025.
