 Gaussian 16, Revision C.01,

 ----------------------------------------------------------------------
 #t hf aug-cc-pvdz symm=none int=(grid=ultrafine) guess=(read,tcheck) s
 table=(opt,rrhf)
 ----------------------------------------------------------------------
 -----
 title
 -----
 Symbolic Z-matrix:
 Charge =  0 Multiplicity = 1

 SCF Done:  E(RHF) =  -937.861895775     A.U. after   13 cycles
 Normal termination of Gaussian 16 at Tue Apr  8 23:45:15 2025.
 Gaussian 16:  ES64L-G16RevC.01  3-Jul-2019

 ----------------------------------------------------------------------
 #t hf aug-cc-pvdz iop(5/13=1,5/36=2,99/5=2) pseudo=read geom=check gue
 ss=(read,tcheck) scf=(maxcycle=1)
 ----------------------------------------------------------------------
 -----
 title
 -----
 Structure from the checkpoint file:  "BDE49_nonexpt_1738_mol1.chk"
 Charge =  0 Multiplicity = 1

                         Standard orientation:
 ---------------------------------------------------------------------
 Center     Atomic      Atomic             Coordinates (Angstroms)
 Number     Number       Type             X           Y           Z
 ---------------------------------------------------------------------
      1          6           0       -1.325056    0.110198   -0.000119
      2          8           0       -2.356316   -0.508406    0.000076
      3         14           0        0.289521   -0.919450   -0.000013
      4          8           0       -1.310225    1.460846    0.000030
      5         17           0        1.938787    0.369769   -0.000001
      6          1           0       -0.395096    1.776138    0.000048
      7          1           0        0.332584   -1.735344   -1.222507
      8          1           0        0.332503   -1.735280    1.222528
 ---------------------------------------------------------------------

 SCF Done:  E(RHF) =  -939.027028576     A.U. after    2 cycles

 The electronic state is 1-A.
 Alpha  occ. eigenvalues --  -99.91473 -76.29671 -21.14036 -21.07631 -11.50469
 Alpha  occ. eigenvalues --  -10.48842  -9.68735  -9.68153  -9.68046  -5.63206
 Alpha  occ. eigenvalues --   -2.26382  -2.25406  -2.24977  -1.83176  -1.67268
 Alpha  occ. eigenvalues --   -1.31772  -0.88980  -0.78364  -0.67413  -0.59518
 Alpha  occ. eigenvalues --   -0.59015  -0.55859  -0.55347  -0.53779  -0.49783
 Alpha  occ. eigenvalues --   -0.46776  -0.35195  -0.29905
 Alpha virt. eigenvalues --    0.03604   0.04745   0.05000   0.05353   0.07159
 Alpha virt. eigenvalues --    0.08575   0.10862   0.11090   0.11518   0.12517
 Alpha virt. eigenvalues --    0.12751   0.13539   0.14881   0.15259   0.16399

 Mulliken charges:
               1
     1  C    3.052954
     2  O   -2.431262
     3  Si   5.402097
     4  O   -2.612764
     5  Cl  -0.848047
     6  H    1.051168
     7  H   -1.807063
     8  H   -1.807083
 Sum of Mulliken charges =  -0.00000

 Dipole moment (field-independent basis, Debye):
    X=              0.4368    Y=             -0.1274    Z=              0.0002  Tot=              0.4550

 Test job not archived.
 1\1\GINC-SE339\SP\RHF\Aug-CC-pVDZ\C1H3Cl1O2Si1\OHZDE\08-Apr-2025\0\\#t
  hf aug-cc-pvdz iop(5/13=1,5/36=2,99/5=2) pseudo=read geom=check guess
 =(read,tcheck) scf=(maxcycle=1)\\title\\0,1\C,0,-1.325056,0.110198,-0.
 000119\O,0,-2.356316,-0.508406,0.000076\Si,0,0.289521,-0.91945,-0.0000
 13\O,0,-1.310225,1.460846,0.00003\Cl,0,1.938787,0.369769,-0.000001\H,0
 ,-0.395096,1.776138,0.000048\H,0,0.332584,-1.735344,-1.222507\H,0,0.33
 2503,-1.73528,1.222528\\Version=ES64L-G16RevC.01\State=1-A\HF=-939.027
 0286\RMSD=6.616e-02\Dipole=0.1718494,-0.0501122,0.0000654\Quadrupole=-

 Normal termination of Gaussian 16 at Tue Apr  8 23:45:17 2025.
