 Gaussian 16, Revision C.01,

 ----------------------------------------------------------------------
 #t hf aug-cc-pvdz symm=none int=(grid=ultrafine) guess=(read,tcheck) s
 table=(opt,rrhf)
 ----------------------------------------------------------------------
 -----
 title
 -----
 Symbolic Z-matrix:
 Charge =  0 Multiplicity = 1

 SCF Done:  E(RHF) =  -1353.07516059     A.U. after   14 cycles
 Normal termination of Gaussian 16 at Tue Apr  8 23:56:23 2025.
 Gaussian 16:  ES64L-G16RevC.01  3-Jul-2019

 ----------------------------------------------------------------------
 #t hf aug-cc-pvdz iop(5/13=1,5/36=2,99/5=2) pseudo=read geom=check gue
 ss=(read,tcheck) scf=(maxcycle=1)
 ----------------------------------------------------------------------
 -----
 title
 -----
 Structure from the checkpoint file:  "BDE49_nonexpt_1967_mol1.chk"
 Charge =  0 Multiplicity = 1

                         Standard orientation:
 ---------------------------------------------------------------------
 Center     Atomic      Atomic             Coordinates (Angstroms)
 Number     Number       Type             X           Y           Z
 ---------------------------------------------------------------------
      1         14           0        0.604210    1.574566    0.045190
      2          6           0       -1.047963    1.165343   -0.784605
      3         16           0       -2.063217    0.012585    0.229949
      4          8           0       -1.276378   -0.200031    1.503331
      5          6           0       -1.841585   -1.483088   -0.788602
      6         16           0        1.992891   -0.185183   -0.256096
      7          1           0        0.535429    2.039338    1.442278
      8          1           0        1.225719    2.626323   -0.794258
      9          8           0        1.303501   -0.998309   -1.349847
     10          6           0        1.776389   -1.055059    1.339988
     11          1           0       -2.413453   -1.355240   -1.710714
     12          1           0       -2.256350   -2.306248   -0.206058
     13          1           0       -0.778396   -1.626872   -0.995952
     14          1           0        2.293324   -0.470072    2.105011
     15          1           0        2.267619   -2.021684    1.218327
     16          1           0        0.719268   -1.163028    1.580553
     17          1           0       -0.846141    0.729903   -1.765360
     18          1           0       -1.618777    2.088762   -0.916697
 ---------------------------------------------------------------------

 SCF Done:  E(RHF) =  -1354.95284835     A.U. after    2 cycles

 The electronic state is 1-A.
 Alpha  occ. eigenvalues --  -76.25647 -75.78985 -75.76571 -21.00486 -20.99411
 Alpha  occ. eigenvalues --  -13.33492 -13.29414 -13.22828 -13.20198 -13.17934
 Alpha  occ. eigenvalues --  -13.15491 -11.40450 -11.39949 -11.39588  -8.13128
 Alpha  occ. eigenvalues --   -8.10754  -5.59021  -2.22602  -2.21238  -2.21025
 Alpha  occ. eigenvalues --   -1.69189  -1.66543  -1.19939  -1.14611  -1.05270
 Alpha  occ. eigenvalues --   -0.92431  -0.89705  -0.74454  -0.64362  -0.61153
 Alpha  occ. eigenvalues --   -0.60420  -0.60294  -0.59677  -0.55621  -0.51173
 Alpha  occ. eigenvalues --   -0.48815  -0.47742  -0.46073  -0.43078  -0.38011
 Alpha  occ. eigenvalues --   -0.37409  -0.33742  -0.30568  -0.26228  -0.23976
 Alpha virt. eigenvalues --    0.03113   0.03775   0.04032   0.05232   0.05428
 Alpha virt. eigenvalues --    0.06005   0.06861   0.07530   0.08429   0.08839
 Alpha virt. eigenvalues --    0.09023   0.10070   0.10312   0.10753   0.11480

 Mulliken charges:
               1
     1  Si   6.284934
     2  C   -4.616311
     3  S    3.167044
     4  O   -2.389755
     5  C   -4.798348
     6  S    1.234048
     7  H   -1.957751
     8  H   -2.107754
     9  O   -2.138696
    10  C   -4.756209
    11  H    1.415273
    12  H    1.350037
    13  H    1.804011
    14  H    1.506541
    15  H    1.364651
    16  H    1.669852
    17  H    1.556247
    18  H    1.412186
 Sum of Mulliken charges =  -0.00000

 Dipole moment (field-independent basis, Debye):
    X=             -0.7952    Y=             -0.1029    Z=             -0.2583  Tot=              0.8424

 Test job not archived.
 1\1\GINC-SE335\SP\RHF\Aug-CC-pVDZ\C3H10O2S2Si1\OHZDE\08-Apr-2025\0\\#t
  hf aug-cc-pvdz iop(5/13=1,5/36=2,99/5=2) pseudo=read geom=check guess
 =(read,tcheck) scf=(maxcycle=1)\\title\\0,1\Si,0,0.60421,1.574566,0.04
 519\C,0,-1.047963,1.165343,-0.784605\S,0,-2.063217,0.012585,0.229949\O
 ,0,-1.276378,-0.200031,1.503331\C,0,-1.841585,-1.483088,-0.788602\S,0,
 1.992891,-0.185183,-0.256096\H,0,0.535429,2.039338,1.442278\H,0,1.2257
 19,2.626323,-0.794258\O,0,1.303501,-0.998309,-1.349847\C,0,1.776389,-1
 .055059,1.339988\H,0,-2.413453,-1.35524,-1.710714\H,0,-2.25635,-2.3062

 Normal termination of Gaussian 16 at Tue Apr  8 23:56:31 2025.
