 Gaussian 16, Revision C.01,

 ----------------------------------------------------------------------
 #t hf aug-cc-pvdz symm=none int=(grid=ultrafine) guess=(read,tcheck) s
 table=opt
 ----------------------------------------------------------------------
 -----
 title
 -----
 Symbolic Z-matrix:
 Charge =  0 Multiplicity = 2

 SCF Done:  E(UHF) =  -598.705728604     A.U. after   16 cycles
 Normal termination of Gaussian 16 at Wed Apr  9 00:15:57 2025.
 Gaussian 16:  ES64L-G16RevC.01  3-Jul-2019

 ----------------------------------------------------------------------
 #t hf aug-cc-pvdz iop(5/13=1,5/36=2,99/5=2) pseudo=read geom=check gue
 ss=(read,tcheck) scf=(maxcycle=1)
 ----------------------------------------------------------------------
 -----
 title
 -----
 Structure from the checkpoint file:  "BDE49_nonexpt_251_mol2.chk"
 Charge =  0 Multiplicity = 2

                         Standard orientation:
 ---------------------------------------------------------------------
 Center     Atomic      Atomic             Coordinates (Angstroms)
 Number     Number       Type             X           Y           Z
 ---------------------------------------------------------------------
      1          5           0        0.139172    0.957542    0.000002
      2         17           0        1.473786   -0.225312   -0.000003
      3          8           0       -1.149410    0.685236    0.000003
      4          6           0       -1.783133   -0.612517    0.000002
      5          1           0       -2.407809   -0.676637    0.890500
      6          1           0       -1.040507   -1.410916   -0.000006
      7          1           0       -2.407819   -0.676630   -0.890490
 ---------------------------------------------------------------------

 SCF Done:  E(UHF) =  -599.537307473     A.U. after    2 cycles

 The electronic state is 2-A.
 Alpha  occ. eigenvalues --  -99.89162 -21.05659 -11.43348 -10.46444  -9.66491
 Alpha  occ. eigenvalues --   -9.65908  -9.65662  -7.70281  -1.79437  -1.32482
 Alpha  occ. eigenvalues --   -1.02830  -0.75273  -0.64206  -0.63344  -0.61420
 Alpha  occ. eigenvalues --   -0.54730  -0.54187  -0.43006  -0.41426  -0.33587
 Alpha virt. eigenvalues --    0.02654   0.04561   0.04676   0.05443   0.06982
 Alpha virt. eigenvalues --    0.07806   0.09578   0.12241   0.13115   0.13712
 Alpha virt. eigenvalues --    0.14133   0.15225   0.16211   0.18538   0.19156

  Beta  occ. eigenvalues --  -99.89021 -21.05617 -11.43212 -10.46277  -9.66119
  Beta  occ. eigenvalues --   -9.65637  -9.65611  -7.68055  -1.79023  -1.31187
  Beta  occ. eigenvalues --   -1.02075  -0.72919  -0.63363  -0.62381  -0.59765
  Beta  occ. eigenvalues --   -0.54364  -0.52302  -0.41828  -0.41458
  Beta virt. eigenvalues --    0.02683   0.03255   0.04707   0.04801   0.07036
  Beta virt. eigenvalues --    0.07067   0.08500   0.10749   0.13576   0.13962
  Beta virt. eigenvalues --    0.14261   0.14856   0.15343   0.16606   0.18753

 Mulliken charges and spin densities:
               1          2
     1  B    1.694083   1.206721
     2  Cl  -0.762035   0.084467
     3  O   -2.556861  -0.326693
     4  C   -2.160554   0.053468
     5  H    1.241458  -0.003316
     6  H    1.302452  -0.011331
     7  H    1.241458  -0.003316
 Sum of Mulliken charges =  -0.00000   1.00000

 Dipole moment (field-independent basis, Debye):
    X=             -2.2980    Y=             -0.9697    Z=              0.0000  Tot=              2.4942
                          Isotropic Fermi Contact Couplings
        Atom                 a.u.       MegaHertz       Gauss      10(-4) cm-1
     1  B(11)              0.38555     553.02421     197.33279     184.46902
     2  Cl(35)             0.20408      89.48134      31.92917      29.84776
     3  O(17)              0.14336     -86.90220     -31.00886     -28.98745
     4  C(13)              0.03249      36.52937      13.03459      12.18489
     5  H(1)              -0.00111      -4.97422      -1.77493      -1.65922
     6  H(1)              -0.00047      -2.09017      -0.74582      -0.69720
     7  H(1)              -0.00111      -4.97420      -1.77492      -1.65921
 --------------------------------------------------------

 1\1\GINC-SE094\SP\UHF\Aug-CC-pVDZ\C1H3B1Cl1O1(2)\OHZDE\09-Apr-2025\0\\
 #t hf aug-cc-pvdz iop(5/13=1,5/36=2,99/5=2) pseudo=read geom=check gue
 ss=(read,tcheck) scf=(maxcycle=1)\\title\\0,2\B,0,0.139172,0.957542,0.
 000002\Cl,0,1.473786,-0.225312,-0.000003\O,0,-1.14941,0.685236,0.00000
 3\C,0,-1.783133,-0.612517,0.000002\H,0,-2.407809,-0.676637,0.8905\H,0,
 -1.040507,-1.410916,-0.000006\H,0,-2.407819,-0.67663,-0.89049\\Version
 =ES64L-G16RevC.01\State=2-A\HF=-599.5373075\S2=0.757198\S2-1=0.\S2A=0.
 750035\RMSD=5.487e-02\Dipole=-0.9041125,-0.3814932,0.0000011\Quadrupol

 Normal termination of Gaussian 16 at Wed Apr  9 00:15:59 2025.
