 Gaussian 16, Revision C.01,

 ----------------------------------------------------------------------
 #t hf aug-cc-pvdz symm=none int=(grid=ultrafine) guess=(read,tcheck) s
 table=(opt,rrhf)
 ----------------------------------------------------------------------
 -----
 title
 -----
 Symbolic Z-matrix:
 Charge =  0 Multiplicity = 1

 SCF Done:  E(RHF) =  -1560.16492757     A.U. after   15 cycles
 Normal termination of Gaussian 16 at Wed Apr  9 00:52:07 2025.
 Gaussian 16:  ES64L-G16RevC.01  3-Jul-2019

 ----------------------------------------------------------------------
 #t hf aug-cc-pvdz iop(5/13=1,5/36=2,99/5=2) pseudo=read geom=check gue
 ss=(read,tcheck) scf=(maxcycle=1)
 ----------------------------------------------------------------------
 -----
 title
 -----
 Structure from the checkpoint file:  "BDE49_nonexpt_937_mol1.chk"
 Charge =  0 Multiplicity = 1

                         Standard orientation:
 ---------------------------------------------------------------------
 Center     Atomic      Atomic             Coordinates (Angstroms)
 Number     Number       Type             X           Y           Z
 ---------------------------------------------------------------------
      1         17           0        1.443315    1.450136    0.040573
      2         16           0       -1.103820   -0.000000   -0.155773
      3          8           0       -1.570647   -1.259716   -0.656920
      4          7           0        0.641737    0.000000   -0.579264
      5          6           0       -1.184609   -0.000000    1.632192
      6          1           0       -2.249205   -0.000000    1.868495
      7          1           0       -0.708258   -0.902736    2.008410
      8         17           0        1.443315   -1.450136    0.040573
      9          8           0       -1.570647    1.259716   -0.656921
     10          1           0       -0.708259    0.902737    2.008410
 ---------------------------------------------------------------------

 SCF Done:  E(RHF) =  -1562.00797643     A.U. after    2 cycles

 The electronic state is 1-A.
 Alpha  occ. eigenvalues --  -99.95253 -99.95247 -75.93176 -21.08093 -21.08076
 Alpha  occ. eigenvalues --  -15.86543 -13.56824 -13.44178 -13.35458 -11.45072
 Alpha  occ. eigenvalues --  -10.52327 -10.52299  -9.72266  -9.71966  -9.71389
 Alpha  occ. eigenvalues --   -9.71301  -9.71290  -9.71186  -8.28382  -1.87125
 Alpha  occ. eigenvalues --   -1.68625  -1.52431  -1.33208  -1.20136  -1.13539
 Alpha  occ. eigenvalues --   -0.91029  -0.73103  -0.71297  -0.68955  -0.65914
 Alpha  occ. eigenvalues --   -0.62928  -0.60340  -0.56403  -0.54095  -0.53492
 Alpha  occ. eigenvalues --   -0.46335  -0.46255  -0.42866  -0.42408  -0.39805
 Alpha  occ. eigenvalues --   -0.38512
 Alpha virt. eigenvalues --   -0.01256   0.02467   0.03905   0.05487   0.06226
 Alpha virt. eigenvalues --    0.07930   0.09660   0.10955   0.11554   0.12660
 Alpha virt. eigenvalues --    0.12814   0.12982   0.15435   0.15758   0.15842

 Mulliken charges:
               1
     1  Cl   0.371021
     2  S    6.338676
     3  O   -2.500269
     4  N   -1.713400
     5  C   -4.354486
     6  H    1.330138
     7  H    1.328784
     8  Cl   0.371021
     9  O   -2.500268
    10  H    1.328783
 Sum of Mulliken charges =  -0.00000

 Dipole moment (field-independent basis, Debye):
    X=             -1.2393    Y=              0.0000    Z=              1.9483  Tot=              2.3090

 Test job not archived.
 1\1\GINC-SE329\SP\RHF\Aug-CC-pVDZ\C1H3Cl2N1O2S1\OHZDE\09-Apr-2025\0\\#
 t hf aug-cc-pvdz iop(5/13=1,5/36=2,99/5=2) pseudo=read geom=check gues
 s=(read,tcheck) scf=(maxcycle=1)\\title\\0,1\Cl,0,1.443315,1.450136,0.
 040573\S,0,-1.10382,0.,-0.155773\O,0,-1.570647,-1.259716,-0.65692\N,0,
 0.641737,0.,-0.579264\C,0,-1.184609,0.,1.632192\H,0,-2.249205,0.,1.868
 495\H,0,-0.708258,-0.902736,2.00841\Cl,0,1.443315,-1.450136,0.040573\O
 ,0,-1.570647,1.259716,-0.656921\H,0,-0.708259,0.902737,2.00841\\Versio
 n=ES64L-G16RevC.01\State=1-A\HF=-1562.0079764\RMSD=9.461e-02\Dipole=-0

 Normal termination of Gaussian 16 at Wed Apr  9 00:52:11 2025.
