 Gaussian 16, Revision C.01,

 ----------------------------------------------------------------------
 #t hf aug-cc-pvdz symm=none int=(grid=ultrafine) guess=(read,tcheck) s
 table=(opt,rrhf)
 ----------------------------------------------------------------------
 -----
 title
 -----
 Symbolic Z-matrix:
 Charge =  0 Multiplicity = 1

 SCF Done:  E(RHF) =  -533.849128786     A.U. after   16 cycles
 Normal termination of Gaussian 16 at Wed Apr  9 00:06:31 2025.
 Gaussian 16:  ES64L-G16RevC.01  3-Jul-2019

 ----------------------------------------------------------------------
 #t hf aug-cc-pvdz iop(5/13=1,5/36=2,99/5=2) pseudo=read geom=check gue
 ss=(read,tcheck) scf=(maxcycle=1)
 ----------------------------------------------------------------------
 -----
 title
 -----
 Structure from the checkpoint file:  "BDE49_nonexpt_2241_mol1.chk"
 Charge =  0 Multiplicity = 1

                         Standard orientation:
 ---------------------------------------------------------------------
 Center     Atomic      Atomic             Coordinates (Angstroms)
 Number     Number       Type             X           Y           Z
 ---------------------------------------------------------------------
      1         14           0        1.003026   -0.588500    0.090606
      2          8           0       -0.546789   -0.261625   -0.520151
      3          7           0       -1.563187    0.129823    0.443284
      4          8           0       -2.572076    0.361528   -0.083367
      5          6           0        2.086427    0.924943   -0.023424
      6          1           0        2.154011    1.285577   -1.053045
      7          1           0        3.098641    0.687529    0.319807
      8          1           0        1.700493    1.736306    0.599588
      9          1           0        1.514483   -1.682202   -0.759474
     10          1           0        0.864677   -1.045850    1.490333
 ---------------------------------------------------------------------

 SCF Done:  E(RHF) =  -535.054465516     A.U. after    2 cycles

 The electronic state is 1-A.
 Alpha  occ. eigenvalues --  -76.24387 -21.16629 -21.08036 -15.94809 -11.36046
 Alpha  occ. eigenvalues --   -5.58107  -2.24322  -2.20915  -2.19974  -1.95946
 Alpha  occ. eigenvalues --   -1.68221  -1.05369  -0.95760  -0.74971  -0.63812
 Alpha  occ. eigenvalues --   -0.62231  -0.61134  -0.57403  -0.56693  -0.48111
 Alpha  occ. eigenvalues --   -0.45640  -0.39500  -0.36557  -0.30454
 Alpha virt. eigenvalues --    0.03382   0.05247   0.05856   0.06154   0.07825
 Alpha virt. eigenvalues --    0.07874   0.08403   0.10231   0.12330   0.12676
 Alpha virt. eigenvalues --    0.13953   0.15140   0.15991   0.16510   0.16624

 Mulliken charges:
               1
     1  Si   6.263198
     2  O   -2.437353
     3  N    2.549148
     4  O   -1.750557
     5  C   -4.879025
     6  H    1.258423
     7  H    1.263992
     8  H    1.284265
     9  H   -1.853033
    10  H   -1.699057
 Sum of Mulliken charges =   0.00000

 Dipole moment (field-independent basis, Debye):
    X=              0.7242    Y=              0.5952    Z=             -0.5704  Tot=              1.0973

 Test job not archived.
 1\1\GINC-SE072\SP\RHF\Aug-CC-pVDZ\C1H5N1O2Si1\OHZDE\09-Apr-2025\0\\#t
 hf aug-cc-pvdz iop(5/13=1,5/36=2,99/5=2) pseudo=read geom=check guess=
 (read,tcheck) scf=(maxcycle=1)\\title\\0,1\Si,0,1.003026,-0.5885,0.090
 606\O,0,-0.546789,-0.261625,-0.520151\N,0,-1.563187,0.129823,0.443284\
 O,0,-2.572076,0.361528,-0.083367\C,0,2.086427,0.924943,-0.023424\H,0,2
 .154011,1.285577,-1.053045\H,0,3.098641,0.687529,0.319807\H,0,1.700493
 ,1.736306,0.599588\H,0,1.514483,-1.682202,-0.759474\H,0,0.864677,-1.04
 585,1.490333\\Version=ES64L-G16RevC.01\State=1-A\HF=-535.0544655\RMSD=

 Normal termination of Gaussian 16 at Wed Apr  9 00:06:34 2025.
