 Gaussian 16, Revision C.01,

 ----------------------------------------------------------------------
 #t hf aug-cc-pvdz symm=none int=(grid=ultrafine) guess=(read,tcheck) s
 table=(opt,rrhf)
 ----------------------------------------------------------------------
 -----
 title
 -----
 Symbolic Z-matrix:
 Charge =  0 Multiplicity = 1

 SCF Done:  E(RHF) =  -249.344526888     A.U. after   13 cycles
 Normal termination of Gaussian 16 at Wed Apr  9 00:38:52 2025.
 Gaussian 16:  ES64L-G16RevC.01  3-Jul-2019

 ----------------------------------------------------------------------
 #t hf aug-cc-pvdz iop(5/13=1,5/36=2,99/5=2) pseudo=read geom=check gue
 ss=(read,tcheck) scf=(maxcycle=1)
 ----------------------------------------------------------------------
 -----
 title
 -----
 Structure from the checkpoint file:  "BDE49_nonexpt_591_mol1.chk"
 Charge =  0 Multiplicity = 1

                         Standard orientation:
 ---------------------------------------------------------------------
 Center     Atomic      Atomic             Coordinates (Angstroms)
 Number     Number       Type             X           Y           Z
 ---------------------------------------------------------------------
      1          6           0        0.941124   -0.680637   -0.000049
      2          5           0       -0.501855    0.027870   -0.000010
      3          7           0       -0.482983    1.431320    0.000026
      4          8           0        1.980300   -0.050426    0.000005
      5          7           0       -1.649189   -0.793586   -0.000008
      6          1           0        0.998017   -1.801466    0.000108
      7          1           0       -2.597542   -0.454726    0.000020
      8          1           0       -1.582153   -1.798156   -0.000034
      9          1           0       -1.284028    2.039495    0.000056
     10          1           0        0.411053    1.898593    0.000031
 ---------------------------------------------------------------------

 SCF Done:  E(RHF) =  -250.440199964     A.U. after    2 cycles

 The electronic state is 1-A.
 Alpha  occ. eigenvalues --  -21.05933 -15.72907 -15.71465 -11.42750  -7.60746
 Alpha  occ. eigenvalues --   -1.69579  -1.38196  -1.24774  -0.91760  -0.76047
 Alpha  occ. eigenvalues --   -0.70068  -0.67586  -0.56908  -0.52687  -0.48884
 Alpha  occ. eigenvalues --   -0.47355  -0.41778  -0.35242  -0.27185
 Alpha virt. eigenvalues --    0.02998   0.03681   0.04701   0.04883   0.07954
 Alpha virt. eigenvalues --    0.07989   0.08935   0.09839   0.10058   0.11543
 Alpha virt. eigenvalues --    0.14604   0.16426   0.16511   0.17251   0.18565

 Mulliken charges:
               1
     1  C   -1.039578
     2  B    5.148836
     3  N   -3.009663
     4  O   -2.267126
     5  N   -3.114311
     6  H    1.269134
     7  H    0.783019
     8  H    0.699271
     9  H    0.745265
    10  H    0.785153
 Sum of Mulliken charges =  -0.00000

 Dipole moment (field-independent basis, Debye):
    X=             -2.1464    Y=              0.2229    Z=              0.0001  Tot=              2.1579

 Test job not archived.
 1\1\GINC-SE404\SP\RHF\Aug-CC-pVDZ\C1H5B1N2O1\OHZDE\09-Apr-2025\0\\#t h
 f aug-cc-pvdz iop(5/13=1,5/36=2,99/5=2) pseudo=read geom=check guess=(
 read,tcheck) scf=(maxcycle=1)\\title\\0,1\C,0,-0.941124,-0.680637,0.00
 0049\B,0,0.501855,0.02787,0.00001\N,0,0.482983,1.43132,-0.000026\O,0,-
 1.9803,-0.050426,-0.000005\N,0,1.649189,-0.793586,0.000008\H,0,-0.9980
 17,-1.801466,-0.000108\H,0,2.597542,-0.454726,-0.00002\H,0,1.582153,-1
 .798156,0.000034\H,0,1.284027,2.039495,-0.000056\H,0,-0.411054,1.89859
 3,-0.000031\\Version=ES64L-G16RevC.01\State=1-A\HF=-250.4402\RMSD=8.20

 Normal termination of Gaussian 16 at Wed Apr  9 00:38:54 2025.
