 Gaussian 16, Revision C.01,

 ----------------------------------------------------------------------
 #t hf aug-cc-pvdz symm=none int=(grid=ultrafine) guess=(read,tcheck) s
 table=(opt,rrhf)
 ----------------------------------------------------------------------
 -----
 title
 -----
 Symbolic Z-matrix:
 Charge =  0 Multiplicity = 1

 SCF Done:  E(RHF) =  -1031.74589200     A.U. after   12 cycles

 1\1\GINC-SE082\Stability\RHF\Aug-CC-pVDZ\C1Cl2O1\OHZDE\08-Apr-2025\0\\
 #t hf aug-cc-pvdz symm=none int=(grid=ultrafine) guess=(read,tcheck) s
 table=(opt,rrhf)\\title\\0,1\C,0,0.000001,0.507678,0.00065\O,0,-0.0004
 03,1.679588,-0.000109\Cl,0,-1.461396,-0.484927,-0.000086\Cl,0,1.461585
 ,-0.484647,-0.000092\\Version=ES64L-G16RevC.01\HF=-1031.745892\RMSD=8.
 453e-09\Dipole=0.0004587,-0.5426726,0.0004434\Quadrupole=1.4304011,-2.
 1860064,0.7556053,0.0002228,-0.0000014,0.0017833\PG=Unknown\\@
 The archive entry for this job was punched.

 Normal termination of Gaussian 16 at Tue Apr  8 22:50:30 2025.
 Gaussian 16:  ES64L-G16RevC.01  3-Jul-2019

 ----------------------------------------------------------------------
 #t hf aug-cc-pvdz iop(5/13=1,5/36=2,99/5=2) pseudo=read geom=check gue
 ss=(read,tcheck) scf=(maxcycle=1)
 ----------------------------------------------------------------------
 -----
 title
 -----
 Structure from the checkpoint file:  "BDE49_expt_1708_mol1.chk"
 Charge =  0 Multiplicity = 1

                         Standard orientation:
 ---------------------------------------------------------------------
 Center     Atomic      Atomic             Coordinates (Angstroms)
 Number     Number       Type             X           Y           Z
 ---------------------------------------------------------------------
      1          6           0        0.000001    0.507678    0.000650
      2          8           0       -0.000403    1.679588   -0.000109
      3         17           0       -1.461396   -0.484928   -0.000086
      4         17           0        1.461585   -0.484647   -0.000092
 ---------------------------------------------------------------------

 SCF Done:  E(RHF) =  -1032.68643952     A.U. after    2 cycles

 The electronic state is 1-A.
 Alpha  occ. eigenvalues --  -99.94256 -99.94244 -21.13679 -11.60049 -10.51749
 Alpha  occ. eigenvalues --  -10.51490  -9.71534  -9.71245  -9.70666  -9.70566
 Alpha  occ. eigenvalues --   -9.70561  -9.70530  -1.80020  -1.39759  -1.32985
 Alpha  occ. eigenvalues --   -0.89903  -0.73781  -0.65740  -0.64701  -0.55700
 Alpha  occ. eigenvalues --   -0.55354  -0.53178  -0.47059  -0.39283
 Alpha virt. eigenvalues --    0.00692   0.05360   0.07617   0.07830   0.10439
 Alpha virt. eigenvalues --    0.10924   0.11578   0.13626   0.14556   0.15148
 Alpha virt. eigenvalues --    0.16061   0.18464   0.21646   0.21847   0.24597

 Mulliken charges:
               1
     1  C    0.976397
     2  O   -1.732977
     3  Cl   0.378171
     4  Cl   0.378409
 Sum of Mulliken charges =  -0.00000

 Dipole moment (field-independent basis, Debye):
    X=              0.0002    Y=              1.1610    Z=             -0.0004  Tot=              1.1610

 Test job not archived.
 1\1\GINC-SE082\SP\RHF\Aug-CC-pVDZ\C1Cl2O1\OHZDE\08-Apr-2025\0\\#t hf a
 ug-cc-pvdz iop(5/13=1,5/36=2,99/5=2) pseudo=read geom=check guess=(rea
 d,tcheck) scf=(maxcycle=1)\\title\\0,1\C,0,0.000001,0.507678,0.00065\O
 ,0,-0.000403,1.679588,-0.000109\Cl,0,-1.461396,-0.484927,-0.000086\Cl,
 0,1.461585,-0.484647,-0.000092\\Version=ES64L-G16RevC.01\State=1-A\HF=
 -1032.6864395\RMSD=4.272e-02\Dipole=0.0000956,0.4567611,-0.0001642\Qua
 drupole=0.331511,0.4147594,-0.7462703,-0.0009612,-0.000002,0.0007504\P
 G=C01 [X(C1Cl2O1)]\\@

 Normal termination of Gaussian 16 at Tue Apr  8 22:50:31 2025.
