 Gaussian 16, Revision C.01,

 ----------------------------------------------------------------------
 #t hf aug-cc-pvdz symm=none int=(grid=ultrafine) guess=(read,tcheck) s
 table=(opt,rrhf)
 ----------------------------------------------------------------------
 -----
 title
 -----
 Symbolic Z-matrix:
 Charge =  0 Multiplicity = 1

 SCF Done:  E(RHF) =  -652.419675001     A.U. after   16 cycles
 Normal termination of Gaussian 16 at Wed Apr  9 00:45:12 2025.
 Gaussian 16:  ES64L-G16RevC.01  3-Jul-2019

 ----------------------------------------------------------------------
 #t hf aug-cc-pvdz iop(5/13=1,5/36=2,99/5=2) pseudo=read geom=check gue
 ss=(read,tcheck) scf=(maxcycle=1)
 ----------------------------------------------------------------------
 -----
 title
 -----
 Structure from the checkpoint file:  "BDE49_nonexpt_738_mol1.chk"
 Charge =  0 Multiplicity = 1

                         Standard orientation:
 ---------------------------------------------------------------------
 Center     Atomic      Atomic             Coordinates (Angstroms)
 Number     Number       Type             X           Y           Z
 ---------------------------------------------------------------------
      1          5           0        1.329965    0.485073   -0.122166
      2          6           0       -0.208190    0.180510   -0.058511
      3          6           0       -1.123422    1.174277    0.333775
      4          6           0       -0.729600   -1.083873   -0.383588
      5          6           0       -2.097568   -1.339495   -0.338026
      6          6           0       -2.982413   -0.336641    0.053244
      7          6           0       -2.491100    0.922211    0.394447
      8          1           0       -4.047506   -0.536019    0.096937
      9          1           0       -3.173439    1.704380    0.709374
     10          1           0       -0.757330    2.156265    0.618465
     11          1           0       -0.056043   -1.877601   -0.690889
     12          1           0       -2.473576   -2.321488   -0.603684
     13          7           0        1.776911    1.751132   -0.511499
     14         15           0        2.624301   -0.936431    0.219005
     15          1           0        1.146997    2.469815   -0.837944
     16          1           0        2.746828    2.023554   -0.530889
     17          1           0        2.226201   -1.230468    1.546141
     18          1           0        3.728912   -0.127200    0.590686
 ---------------------------------------------------------------------

 SCF Done:  E(RHF) =  -654.101094826     A.U. after    2 cycles

 The electronic state is 1-A.
 Alpha  occ. eigenvalues -- -105.15687 -15.73245 -11.51033 -11.42631 -11.42163
 Alpha  occ. eigenvalues --  -11.40148 -11.40057 -11.35526  -7.63644  -2.72586
 Alpha  occ. eigenvalues --   -1.47571  -1.42985  -1.41171  -1.34716  -1.29561
 Alpha  occ. eigenvalues --   -1.09470  -1.08730  -0.87903  -0.85980  -0.78349
 Alpha  occ. eigenvalues --   -0.71923  -0.68749  -0.64972  -0.63064  -0.57957
 Alpha  occ. eigenvalues --   -0.56204  -0.53848  -0.50073  -0.44433  -0.42639
 Alpha  occ. eigenvalues --   -0.42048  -0.33044  -0.32750  -0.24895  -0.15450
 Alpha  occ. eigenvalues --   -0.02103
 Alpha virt. eigenvalues --    0.03185   0.04430   0.05313   0.05622   0.05732
 Alpha virt. eigenvalues --    0.06127   0.06850   0.08258   0.08402   0.08714
 Alpha virt. eigenvalues --    0.09635   0.10132   0.10563   0.10913   0.11803

 Mulliken charges:
               1
     1  B    1.610556
     2  C   -2.507199
     3  C   -0.105261
     4  C   -1.256660
     5  C   -1.383035
     6  C   -2.165960
     7  C   -1.163464
     8  H    1.512130
     9  H    1.540321
    10  H    1.830143
    11  H    2.022136
    12  H    1.554925
    13  N   -3.441835
    14  P    1.513894
    15  H    0.921803
    16  H    0.891076
    17  H   -0.687933
    18  H   -0.685639
 Sum of Mulliken charges =  -0.00000

 Dipole moment (field-independent basis, Debye):
    X=              1.0940    Y=             -2.3288    Z=             -2.9021  Tot=              3.8784

 Test job not archived.
 1\1\GINC-SE336\SP\RHF\Aug-CC-pVDZ\C6H9B1N1P1\OHZDE\09-Apr-2025\0\\#t h
 f aug-cc-pvdz iop(5/13=1,5/36=2,99/5=2) pseudo=read geom=check guess=(
 read,tcheck) scf=(maxcycle=1)\\title\\0,1\B,0,1.329965,0.485073,-0.122
 166\C,0,-0.20819,0.18051,-0.058511\C,0,-1.123422,1.174277,0.333775\C,0
 ,-0.7296,-1.083873,-0.383588\C,0,-2.097568,-1.339495,-0.338026\C,0,-2.
 982413,-0.336641,0.053244\C,0,-2.4911,0.922211,0.394447\H,0,-4.047506,
 -0.536019,0.096937\H,0,-3.173439,1.70438,0.709374\H,0,-0.75733,2.15626
 5,0.618465\H,0,-0.056043,-1.877601,-0.690889\H,0,-2.473576,-2.321488,-

 Normal termination of Gaussian 16 at Wed Apr  9 00:45:24 2025.
