 Gaussian 16, Revision C.01,

 ----------------------------------------------------------------------
 #t hf aug-cc-pvdz symm=none int=(grid=ultrafine) guess=(read,tcheck) s
 table=opt
 ----------------------------------------------------------------------
 -----
 title
 -----
 Symbolic Z-matrix:
 Charge =  0 Multiplicity = 2

 SCF Done:  E(UHF) =  -688.199142957     A.U. after   15 cycles

 1\1\GINC-SE461\Stability\UHF\Aug-CC-pVDZ\H3S1Si1\OHZDE\08-Apr-2025\0\\
 #t hf aug-cc-pvdz symm=none int=(grid=ultrafine) guess=(read,tcheck) s
 table=opt\\title\\0,2\S,0,-1.068456,-0.084145,0.032919\Si,0,1.085911,0
 .023102,-0.103063\H,0,-1.276084,1.218151,-0.232835\H,0,1.553535,-1.301
 349,0.377841\H,0,1.615091,1.1061,0.771164\\Version=ES64L-G16RevC.01\HF
 =-688.199143\S2=0.756238\S2-1=0.\S2A=0.750019\RMSD=8.151e-09\Dipole=0.
 3221832,0.3449408,-0.0879177\Quadrupole=0.1078914,1.2432329,-1.3511243
 ,-1.2684302,0.1631473,-0.4501371\PG=Unknown\\@

 Normal termination of Gaussian 16 at Tue Apr  8 23:56:18 2025.
 Gaussian 16:  ES64L-G16RevC.01  3-Jul-2019

 ----------------------------------------------------------------------
 #t hf aug-cc-pvdz iop(5/13=1,5/36=2,99/5=2) pseudo=read geom=check gue
 ss=(read,tcheck) scf=(maxcycle=1)
 ----------------------------------------------------------------------
 -----
 title
 -----
 Structure from the checkpoint file:  "BDE49_nonexpt_2007_mol2.chk"
 Charge =  0 Multiplicity = 2

                         Standard orientation:
 ---------------------------------------------------------------------
 Center     Atomic      Atomic             Coordinates (Angstroms)
 Number     Number       Type             X           Y           Z
 ---------------------------------------------------------------------
      1         16           0       -1.068456   -0.084145    0.032919
      2         14           0        1.085911    0.023102   -0.103063
      3          1           0       -1.276084    1.218151   -0.232835
      4          1           0        1.553535   -1.301349    0.377841
      5          1           0        1.615091    1.106100    0.771164
 ---------------------------------------------------------------------

 SCF Done:  E(UHF) =  -688.565675501     A.U. after    2 cycles

 The electronic state is 2-A.
 Alpha  occ. eigenvalues --  -76.25926 -75.69332 -13.12694 -13.06633 -13.01685
 Alpha  occ. eigenvalues --   -8.03293  -5.59128  -2.20801  -2.20673  -2.19564
 Alpha  occ. eigenvalues --   -1.11378  -0.75455  -0.52599  -0.47299  -0.39143
 Alpha  occ. eigenvalues --   -0.31328  -0.23449
 Alpha virt. eigenvalues --    0.03123   0.03859   0.05647   0.06904   0.08043
 Alpha virt. eigenvalues --    0.09730   0.12459   0.13015   0.13706   0.14462
 Alpha virt. eigenvalues --    0.15397   0.17125   0.18248   0.19509   0.22312

  Beta  occ. eigenvalues --  -76.25380 -75.69219 -13.12607 -13.06445 -13.01172
  Beta  occ. eigenvalues --   -8.03165  -5.58253  -2.20232  -2.20045  -2.16116
  Beta  occ. eigenvalues --   -1.10484  -0.70862  -0.51917  -0.46449  -0.35840
  Beta  occ. eigenvalues --   -0.28520
  Beta virt. eigenvalues --    0.02681   0.03813   0.04941   0.05770   0.08069
  Beta virt. eigenvalues --    0.08654   0.09994   0.12934   0.13399   0.14527
  Beta virt. eigenvalues --    0.15210   0.16278   0.18546   0.19420   0.20909

 Mulliken charges and spin densities:
               1          2
     1  S   -2.198731   0.112914
     2  Si   4.101451   0.843546
     3  H    0.995801  -0.010542
     4  H   -1.475686   0.012551
     5  H   -1.422835   0.041530
 Sum of Mulliken charges =   0.00000   1.00000

 Dipole moment (field-independent basis, Debye):
    X=             -1.1767    Y=             -0.7886    Z=             -0.1337  Tot=              1.4228
                          Isotropic Fermi Contact Couplings
        Atom                 a.u.       MegaHertz       Gauss      10(-4) cm-1
     1  S(33)              0.05868      20.15655       7.19236       6.72350
     2  Si(29)             0.49369    -438.75474    -156.55860    -146.35283
     3  H(1)               0.00025       1.12291       0.40068       0.37456
     4  H(1)               0.00668      29.85905      10.65445       9.95991
     5  H(1)               0.01522      68.05322      24.28308      22.70011
 --------------------------------------------------------
       Center         ----  Spin Dipole Couplings  ----
                      3XX-RR        3YY-RR        3ZZ-RR

 Normal termination of Gaussian 16 at Tue Apr  8 23:56:19 2025.
