 Gaussian 16, Revision C.01,

 ----------------------------------------------------------------------
 #t hf aug-cc-pvdz symm=none int=(grid=ultrafine) guess=(read,tcheck) s
 table=(opt,rrhf)
 ----------------------------------------------------------------------
 -----
 title
 -----
 Symbolic Z-matrix:
 Charge =  0 Multiplicity = 1

 SCF Done:  E(RHF) =  -1454.78329387     A.U. after   15 cycles
 Normal termination of Gaussian 16 at Tue Apr  8 23:49:00 2025.
 Gaussian 16:  ES64L-G16RevC.01  3-Jul-2019

 ----------------------------------------------------------------------
 #t hf aug-cc-pvdz iop(5/13=1,5/36=2,99/5=2) pseudo=read geom=check gue
 ss=(read,tcheck) scf=(maxcycle=1)
 ----------------------------------------------------------------------
 -----
 title
 -----
 Structure from the checkpoint file:  "BDE49_nonexpt_1797_mol1.chk"
 Charge =  0 Multiplicity = 1

                         Standard orientation:
 ---------------------------------------------------------------------
 Center     Atomic      Atomic             Coordinates (Angstroms)
 Number     Number       Type             X           Y           Z
 ---------------------------------------------------------------------
      1          6           0        2.662764    1.069672   -0.723349
      2          6           0        1.281951    1.076990   -0.541601
      3          6           0        3.404758    0.030310   -0.173401
      4          6           0        2.736057   -0.964345    0.540722
      5          7           0        1.415184   -0.969313    0.721459
      6          6           0        0.697582    0.036715    0.184911
      7          1           0        3.149052    1.861033   -1.282515
      8          1           0        0.669660    1.871456   -0.950919
      9         14           0       -1.126580   -0.167826    0.539480
     10         17           0       -2.116793    1.625728    0.189680
     11         17           0       -1.943791   -1.609164   -0.702240
     12          1           0        4.481128   -0.013855   -0.289861
     13          1           0        3.284235   -1.789366    0.986337
     14          1           0       -1.387014   -0.572163    1.923851
 ---------------------------------------------------------------------

 SCF Done:  E(RHF) =  -1456.57293849     A.U. after    2 cycles

 The electronic state is 1-A.
 Alpha  occ. eigenvalues --  -99.89234 -99.88835 -76.30039 -15.75881 -11.49924
 Alpha  occ. eigenvalues --  -11.46004 -11.44684 -11.42894 -11.39426 -10.46665
 Alpha  occ. eigenvalues --  -10.46268  -9.66583  -9.66178  -9.65985  -9.65907
 Alpha  occ. eigenvalues --   -9.65528  -9.65493  -5.63709  -2.27635  -2.26151
 Alpha  occ. eigenvalues --   -2.25385  -1.46257  -1.30828  -1.28287  -1.20531
 Alpha  occ. eigenvalues --   -1.12853  -0.90943  -0.90366  -0.79498  -0.72260
 Alpha  occ. eigenvalues --   -0.65551  -0.62530  -0.59518  -0.59200  -0.58385
 Alpha  occ. eigenvalues --   -0.56819  -0.55785  -0.53568  -0.53125  -0.51212
 Alpha  occ. eigenvalues --   -0.49963  -0.44451  -0.38547  -0.36715  -0.36284
 Alpha virt. eigenvalues --    0.02811   0.04733   0.04959   0.05864   0.06141
 Alpha virt. eigenvalues --    0.06481   0.07435   0.07722   0.08627   0.09271
 Alpha virt. eigenvalues --    0.09504   0.11366   0.12223   0.12433   0.12565

 Mulliken charges:
               1
     1  C    0.465404
     2  C   -0.819458
     3  C   -0.685627
     4  C   -1.004800
     5  N   -3.364944
     6  C   -1.535723
     7  H    1.544474
     8  H    1.718778
     9  Si   4.264226
    10  Cl  -0.865964
    11  Cl  -0.834952
    12  H    1.438592
    13  H    1.634725
    14  H   -1.954731
 Sum of Mulliken charges =  -0.00000

 Dipole moment (field-independent basis, Debye):
    X=              3.8598    Y=              1.0906    Z=             -0.2910  Tot=              4.0214

 Test job not archived.
 1\1\GINC-SE331\SP\RHF\Aug-CC-pVDZ\C5H5Cl2N1Si1\OHZDE\08-Apr-2025\0\\#t
  hf aug-cc-pvdz iop(5/13=1,5/36=2,99/5=2) pseudo=read geom=check guess
 =(read,tcheck) scf=(maxcycle=1)\\title\\0,1\C,0,2.662764,1.069672,-0.7
 23349\C,0,1.281951,1.07699,-0.541601\C,0,3.404758,0.03031,-0.173401\C,
 0,2.736057,-0.964345,0.540722\N,0,1.415184,-0.969313,0.721459\C,0,0.69
 7582,0.036715,0.184911\H,0,3.149052,1.861033,-1.282515\H,0,0.66966,1.8
 71456,-0.950919\Si,0,-1.12658,-0.167826,0.53948\Cl,0,-2.116793,1.62572
 8,0.18968\Cl,0,-1.943791,-1.609164,-0.70224\H,0,4.481128,-0.013855,-0.

 Normal termination of Gaussian 16 at Tue Apr  8 23:49:06 2025.
