 Gaussian 16, Revision C.01,

 ----------------------------------------------------------------------
 #t hf aug-cc-pvdz symm=none int=(grid=ultrafine) guess=(read,tcheck) s
 table=(opt,rrhf)
 ----------------------------------------------------------------------
 -----
 title
 -----
 Symbolic Z-matrix:
 Charge =  0 Multiplicity = 1

 SCF Done:  E(RHF) =  -778.635082266     A.U. after   18 cycles
 Normal termination of Gaussian 16 at Tue Apr  8 23:32:10 2025.
 Gaussian 16:  ES64L-G16RevC.01  3-Jul-2019

 ----------------------------------------------------------------------
 #t hf aug-cc-pvdz iop(5/13=1,5/36=2,99/5=2) pseudo=read geom=check gue
 ss=(read,tcheck) scf=(maxcycle=1)
 ----------------------------------------------------------------------
 -----
 title
 -----
 Structure from the checkpoint file:  "BDE49_nonexpt_1367_mol1.chk"
 Charge =  0 Multiplicity = 1

                         Standard orientation:
 ---------------------------------------------------------------------
 Center     Atomic      Atomic             Coordinates (Angstroms)
 Number     Number       Type             X           Y           Z
 ---------------------------------------------------------------------
      1          9           0        2.346991   -0.986733    0.878892
      2         15           0        1.683778   -0.435313   -0.500559
      3          7           0        1.692516    1.353605   -0.121052
      4          7           0        0.550423    1.830045    0.035943
      5          6           0       -0.099299   -0.467858   -0.153800
      6          6           0       -0.511752    0.861819    0.014807
      7          6           0       -1.846294    1.206238    0.167272
      8          1           0       -2.126721    2.245762    0.285282
      9          6           0       -2.792568    0.179659    0.161324
     10          1           0       -3.842817    0.415810    0.286087
     11          6           0       -2.398967   -1.148325   -0.009368
     12          1           0       -3.146939   -1.932771   -0.008096
     13          6           0       -1.051230   -1.479785   -0.186351
     14          1           0       -0.763016   -2.514554   -0.332441
 ---------------------------------------------------------------------

 SCF Done:  E(RHF) =  -780.711678855     A.U. after    2 cycles

 The electronic state is 1-A.
 Alpha  occ. eigenvalues -- -105.26570 -29.28454 -15.82051 -15.79699 -11.54167
 Alpha  occ. eigenvalues --  -11.46802 -11.46116 -11.44312 -11.43726 -11.39613
 Alpha  occ. eigenvalues --   -2.85787  -1.65239  -1.58762  -1.56391  -1.46978
 Alpha  occ. eigenvalues --   -1.33726  -1.13920  -1.10924  -0.97790  -0.90798
 Alpha  occ. eigenvalues --   -0.82693  -0.79541  -0.68057  -0.64942  -0.63331
 Alpha  occ. eigenvalues --   -0.58639  -0.58425  -0.55155  -0.51718  -0.50199
 Alpha  occ. eigenvalues --   -0.47676  -0.44003  -0.38360  -0.35773  -0.33508
 Alpha  occ. eigenvalues --   -0.32492  -0.24130  -0.19759  -0.02181
 Alpha virt. eigenvalues --    0.03159   0.04730   0.04763   0.06302   0.06869
 Alpha virt. eigenvalues --    0.08853   0.08939   0.09694   0.10903   0.11784
 Alpha virt. eigenvalues --    0.12591   0.12831   0.13034   0.13457   0.13705

 Mulliken charges:
               1
     1  F   -0.368860
     2  P    3.443943
     3  N   -1.538153
     4  N   -1.741042
     5  C    1.417350
     6  C    1.297023
     7  C   -2.944826
     8  H    1.645551
     9  C   -0.716953
    10  H    1.364079
    11  C   -1.412700
    12  H    1.499222
    13  C   -3.400771
    14  H    1.456137
 Sum of Mulliken charges =   0.00000

 Dipole moment (field-independent basis, Debye):
    X=              1.6649    Y=             -4.7672    Z=              2.6082  Tot=              5.6834

 Test job not archived.
 1\1\GINC-SE220\SP\RHF\Aug-CC-pVDZ\C6H4F1N2P1\OHZDE\08-Apr-2025\0\\#t h
 f aug-cc-pvdz iop(5/13=1,5/36=2,99/5=2) pseudo=read geom=check guess=(
 read,tcheck) scf=(maxcycle=1)\\title\\0,1\F,0,2.346991,-0.986733,0.878
 892\P,0,1.683778,-0.435313,-0.500559\N,0,1.692516,1.353605,-0.121052\N
 ,0,0.550423,1.830045,0.035943\C,0,-0.099299,-0.467858,-0.1538\C,0,-0.5
 11752,0.861819,0.014807\C,0,-1.846294,1.206238,0.167272\H,0,-2.126721,
 2.245762,0.285282\C,0,-2.792568,0.179659,0.161324\H,0,-3.842817,0.4158
 11,0.286087\C,0,-2.398967,-1.148325,-0.009368\H,0,-3.146939,-1.932771,

 Normal termination of Gaussian 16 at Tue Apr  8 23:32:17 2025.
