 Gaussian 16, Revision C.01,

 ----------------------------------------------------------------------
 #t hf aug-cc-pvdz symm=none int=(grid=ultrafine) guess=(read,tcheck) s
 table=(opt,rrhf)
 ----------------------------------------------------------------------
 -----
 title
 -----
 Symbolic Z-matrix:
 Charge =  0 Multiplicity = 1

 SCF Done:  E(RHF) =  -905.695990270     A.U. after   15 cycles
 Normal termination of Gaussian 16 at Wed Apr  9 00:10:42 2025.
 Gaussian 16:  ES64L-G16RevC.01  3-Jul-2019

 ----------------------------------------------------------------------
 #t hf aug-cc-pvdz iop(5/13=1,5/36=2,99/5=2) pseudo=read geom=check gue
 ss=(read,tcheck) scf=(maxcycle=1)
 ----------------------------------------------------------------------
 -----
 title
 -----
 Structure from the checkpoint file:  "BDE49_nonexpt_2352_mol1.chk"
 Charge =  0 Multiplicity = 1

                         Standard orientation:
 ---------------------------------------------------------------------
 Center     Atomic      Atomic             Coordinates (Angstroms)
 Number     Number       Type             X           Y           Z
 ---------------------------------------------------------------------
      1         14           0        0.485480   -1.134664   -0.620562
      2         14           0       -1.628552   -0.772305    0.351566
      3          6           0        1.704680    0.183097    0.063122
      4          8           0        2.545818    0.803924   -0.482311
      5          1           0        0.486500   -1.029889   -2.092071
      6          1           0        1.037779   -2.442746   -0.199909
      7          9           0        1.502713    0.343810    1.429781
      8          6           0       -2.032164    1.086877   -0.003378
      9          1           0       -1.633671   -1.016206    1.813668
     10          1           0       -2.685508   -1.612314   -0.266483
     11          8           0       -1.269329    1.764132   -0.655589
     12          1           0       -2.973528    1.540139    0.387442
 ---------------------------------------------------------------------

 SCF Done:  E(RHF) =  -907.274455428     A.U. after    2 cycles

 The electronic state is 1-A.
 Alpha  occ. eigenvalues --  -76.25544 -76.24956 -29.28996 -21.09791 -21.09502
 Alpha  occ. eigenvalues --  -11.52389 -11.47191  -5.59164  -5.58581  -2.22589
 Alpha  occ. eigenvalues --   -2.21859  -2.21287  -2.20906  -2.20589  -2.19681
 Alpha  occ. eigenvalues --   -1.75931  -1.72609  -1.04245  -0.91408  -0.81935
 Alpha  occ. eigenvalues --   -0.74945  -0.63433  -0.60901  -0.57707  -0.55668
 Alpha  occ. eigenvalues --   -0.52022  -0.51541  -0.49455  -0.46240  -0.42630
 Alpha  occ. eigenvalues --   -0.39336  -0.29485  -0.29209  -0.28232  -0.26390
 Alpha virt. eigenvalues --    0.03390   0.04045   0.04572   0.05895   0.06503
 Alpha virt. eigenvalues --    0.07279   0.07369   0.08084   0.08842   0.09034
 Alpha virt. eigenvalues --    0.09780   0.10053   0.11019   0.11526   0.12476

 Mulliken charges:
               1
     1  Si   4.541261
     2  Si   4.643353
     3  C    1.048508
     4  O   -2.561497
     5  H   -1.761075
     6  H   -1.744984
     7  F    0.438937
     8  C   -0.586810
     9  H   -1.630397
    10  H   -1.787172
    11  O   -1.990656
    12  H    1.390531
 Sum of Mulliken charges =  -0.00000

 Dipole moment (field-independent basis, Debye):
    X=             -1.8980    Y=             -0.4440    Z=              3.0018  Tot=              3.5792

 Test job not archived.
 1\1\GINC-SE424\SP\RHF\Aug-CC-pVDZ\C2H5F1O2Si2\OHZDE\09-Apr-2025\0\\#t
 hf aug-cc-pvdz iop(5/13=1,5/36=2,99/5=2) pseudo=read geom=check guess=
 (read,tcheck) scf=(maxcycle=1)\\title\\0,1\Si,0,0.48548,-1.134664,-0.6
 20562\Si,0,-1.628552,-0.772305,0.351566\C,0,1.70468,0.183097,0.063122\
 O,0,2.545818,0.803924,-0.482311\H,0,0.4865,-1.029889,-2.092071\H,0,1.0
 37779,-2.442746,-0.199909\F,0,1.502713,0.34381,1.429781\C,0,-2.032164,
 1.086877,-0.003378\H,0,-1.633671,-1.016206,1.813668\H,0,-2.685508,-1.6
 12314,-0.266483\O,0,-1.269329,1.764132,-0.655589\H,0,-2.973528,1.54013

 Normal termination of Gaussian 16 at Wed Apr  9 00:10:47 2025.
