 Gaussian 16, Revision C.01,

 ----------------------------------------------------------------------
 #t hf aug-cc-pvdz symm=none int=(grid=ultrafine) guess=(read,tcheck) s
 table=(opt,rrhf)
 ----------------------------------------------------------------------
 -----
 title
 -----
 Symbolic Z-matrix:
 Charge =  0 Multiplicity = 1

 SCF Done:  E(RHF) =  -362.077081840     A.U. after   14 cycles
 Normal termination of Gaussian 16 at Wed Apr  9 00:39:33 2025.
 Gaussian 16:  ES64L-G16RevC.01  3-Jul-2019

 ----------------------------------------------------------------------
 #t hf aug-cc-pvdz iop(5/13=1,5/36=2,99/5=2) pseudo=read geom=check gue
 ss=(read,tcheck) scf=(maxcycle=1)
 ----------------------------------------------------------------------
 -----
 title
 -----
 Structure from the checkpoint file:  "BDE49_nonexpt_610_mol1.chk"
 Charge =  0 Multiplicity = 1

                         Standard orientation:
 ---------------------------------------------------------------------
 Center     Atomic      Atomic             Coordinates (Angstroms)
 Number     Number       Type             X           Y           Z
 ---------------------------------------------------------------------
      1          6           0        1.824465    0.072094    0.000005
      2          7           0        0.488919   -0.320501   -0.000008
      3          6           0       -0.567481    0.577239   -0.000019
      4          5           0       -2.255940   -1.355925    0.000004
      5          8           0        2.729884   -0.721663    0.000017
      6          1           0        1.940926    1.164168    0.000006
      7          8           0       -0.426697    1.777631    0.000000
      8          1           0        0.310871   -1.316357   -0.000006
      9          7           0       -1.849505   -0.010548   -0.000003
     10          1           0       -1.449408   -2.230382   -0.000010
     11          1           0       -3.419328   -1.589096    0.000010
     12          1           0       -2.546656    0.724892    0.000004
 ---------------------------------------------------------------------

 SCF Done:  E(RHF) =  -363.633593098     A.U. after    2 cycles

 The electronic state is 1-A.
 Alpha  occ. eigenvalues --  -21.06578 -21.06082 -15.80564 -15.77361 -11.55155
 Alpha  occ. eigenvalues --  -11.50818  -7.65350  -1.76425  -1.72599  -1.45091
 Alpha  occ. eigenvalues --   -1.36601  -0.96705  -0.90137  -0.84067  -0.71570
 Alpha  occ. eigenvalues --   -0.66420  -0.63536  -0.61390  -0.53592  -0.51651
 Alpha  occ. eigenvalues --   -0.51492  -0.50147  -0.40748  -0.35678  -0.33889
 Alpha  occ. eigenvalues --   -0.30349
 Alpha virt. eigenvalues --    0.02825   0.03014   0.03356   0.04230   0.06946
 Alpha virt. eigenvalues --    0.09098   0.09580   0.10640   0.10899   0.11143
 Alpha virt. eigenvalues --    0.11440   0.12501   0.13264   0.13995   0.14475

 Mulliken charges:
               1
     1  C    1.828357
     2  N   -2.798668
     3  C    5.545380
     4  B    8.148484
     5  O   -2.666978
     6  H    1.561767
     7  O   -2.880582
     8  H    0.709812
     9  N   -2.535287
    10  H   -3.726716
    11  H   -4.070343
    12  H    0.884773
 Sum of Mulliken charges =   0.00000

 Dipole moment (field-independent basis, Debye):
    X=             -2.0384    Y=             -0.3503    Z=              0.0000  Tot=              2.0682

 Test job not archived.
 1\1\GINC-SE102\SP\RHF\Aug-CC-pVDZ\C2H5B1N2O2\OHZDE\09-Apr-2025\0\\#t h
 f aug-cc-pvdz iop(5/13=1,5/36=2,99/5=2) pseudo=read geom=check guess=(
 read,tcheck) scf=(maxcycle=1)\\title\\0,1\C,0,1.824465,0.072094,0.0000
 05\N,0,0.488919,-0.320501,-0.000008\C,0,-0.567481,0.577239,-0.000019\B
 ,0,-2.25594,-1.355925,0.000004\O,0,2.729884,-0.721663,0.000017\H,0,1.9
 40926,1.164168,0.000006\O,0,-0.426697,1.777631,0.\H,0,0.310871,-1.3163
 57,-0.000006\N,0,-1.849505,-0.010548,-0.000003\H,0,-1.449408,-2.230382
 ,-0.00001\H,0,-3.419328,-1.589096,0.00001\H,0,-2.546656,0.724892,0.000

 Normal termination of Gaussian 16 at Wed Apr  9 00:39:37 2025.
