 Gaussian 16, Revision C.01,

 ----------------------------------------------------------------------
 #t hf aug-cc-pvdz symm=none int=(grid=ultrafine) guess=(read,tcheck) s
 table=(opt,rrhf)
 ----------------------------------------------------------------------
 -----
 title
 -----
 Symbolic Z-matrix:
 Charge =  0 Multiplicity = 1

 SCF Done:  E(RHF) =  -1428.58280814     A.U. after   12 cycles

 1\1\GINC-SE363\Stability\RHF\Aug-CC-pVDZ\B2Cl3H1\OHZDE\08-Apr-2025\0\\
 #t hf aug-cc-pvdz symm=none int=(grid=ultrafine) guess=(read,tcheck) s
 table=(opt,rrhf)\\title\\0,1\B,0,1.05858,-0.000003,0.842969\B,0,-0.503
 156,0.,0.225836\Cl,0,-1.335809,1.518709,-0.088596\Cl,0,-1.335815,-1.51
 8706,-0.088596\Cl,0,2.43123,-0.000002,-0.255076\H,0,1.309576,-0.000001
 ,2.004533\\Version=ES64L-G16RevC.01\HF=-1428.5828081\RMSD=4.173e-09\Di
 pole=0.0296222,-0.000001,0.3647216\Quadrupole=-1.997886,0.3717035,1.62
 61825,-0.0000039,0.1175973,-0.000004\PG=Unknown\\@

 Normal termination of Gaussian 16 at Tue Apr  8 23:32:01 2025.
 Gaussian 16:  ES64L-G16RevC.01  3-Jul-2019

 ----------------------------------------------------------------------
 #t hf aug-cc-pvdz iop(5/13=1,5/36=2,99/5=2) pseudo=read geom=check gue
 ss=(read,tcheck) scf=(maxcycle=1)
 ----------------------------------------------------------------------
 -----
 title
 -----
 Structure from the checkpoint file:  "BDE49_nonexpt_13_mol1.chk"
 Charge =  0 Multiplicity = 1

                         Standard orientation:
 ---------------------------------------------------------------------
 Center     Atomic      Atomic             Coordinates (Angstroms)
 Number     Number       Type             X           Y           Z
 ---------------------------------------------------------------------
      1          5           0        1.058580   -0.000003    0.842969
      2          5           0       -0.503156   -0.000000    0.225836
      3         17           0       -1.335809    1.518709   -0.088596
      4         17           0       -1.335815   -1.518706   -0.088596
      5         17           0        2.431230   -0.000002   -0.255076
      6          1           0        1.309576   -0.000001    2.004533
 ---------------------------------------------------------------------

 SCF Done:  E(RHF) =  -1429.52657098     A.U. after    2 cycles

 The electronic state is 1-A.
 Alpha  occ. eigenvalues --  -99.91320 -99.91301 -99.90701 -10.48696 -10.48494
 Alpha  occ. eigenvalues --  -10.47958  -9.68641  -9.68400  -9.68109  -9.68076
 Alpha  occ. eigenvalues --   -9.67964  -9.67893  -9.67844  -9.67450  -9.67267
 Alpha  occ. eigenvalues --   -7.71145  -7.67154  -1.40890  -1.35228  -1.30799
 Alpha  occ. eigenvalues --   -0.91355  -0.77125  -0.64114  -0.63101  -0.60638
 Alpha  occ. eigenvalues --   -0.57341  -0.55255  -0.53445  -0.53164  -0.51498
 Alpha  occ. eigenvalues --   -0.42120
 Alpha virt. eigenvalues --    0.02115   0.02214   0.02500   0.03617   0.04719
 Alpha virt. eigenvalues --    0.05853   0.08447   0.09543   0.09596   0.10435
 Alpha virt. eigenvalues --    0.11814   0.13026   0.13810   0.14734   0.16493

 Mulliken charges:
               1
     1  B    4.080404
     2  B    1.623442
     3  Cl  -1.112178
     4  Cl  -1.112178
     5  Cl  -1.192245
     6  H   -2.287244
 Sum of Mulliken charges =   0.00000

 Dipole moment (field-independent basis, Debye):
    X=              0.0712    Y=             -0.0000    Z=              0.7345  Tot=              0.7379

 Test job not archived.
 1\1\GINC-SE363\SP\RHF\Aug-CC-pVDZ\B2Cl3H1\OHZDE\08-Apr-2025\0\\#t hf a
 ug-cc-pvdz iop(5/13=1,5/36=2,99/5=2) pseudo=read geom=check guess=(rea
 d,tcheck) scf=(maxcycle=1)\\title\\0,1\B,0,1.05858,-0.000003,0.842969\
 B,0,-0.503156,0.,0.225836\Cl,0,-1.335809,1.518709,-0.088596\Cl,0,-1.33
 5815,-1.518706,-0.088596\Cl,0,2.43123,-0.000002,-0.255076\H,0,1.309576
 ,-0.000001,2.004533\\Version=ES64L-G16RevC.01\State=1-A\HF=-1429.52657
 1\RMSD=7.080e-02\Dipole=0.0280026,-0.0000007,0.2889726\Quadrupole=-1.9
 093391,1.2108248,0.6985143,-0.0000018,-0.2934639,-0.0000044\PG=C01 [X(

 Normal termination of Gaussian 16 at Tue Apr  8 23:32:03 2025.
