 Gaussian 16, Revision C.01,

 ----------------------------------------------------------------------
 #t hf aug-cc-pvdz symm=none int=(grid=ultrafine) guess=(read,tcheck) s
 table=(opt,rrhf)
 ----------------------------------------------------------------------
 -----
 title
 -----
 Symbolic Z-matrix:
 Charge =  0 Multiplicity = 1

 SCF Done:  E(RHF) =  -578.934205813     A.U. after   13 cycles
 Normal termination of Gaussian 16 at Tue Apr  8 23:39:06 2025.
 Gaussian 16:  ES64L-G16RevC.01  3-Jul-2019

 ----------------------------------------------------------------------
 #t hf aug-cc-pvdz iop(5/13=1,5/36=2,99/5=2) pseudo=read geom=check gue
 ss=(read,tcheck) scf=(maxcycle=1)
 ----------------------------------------------------------------------
 -----
 title
 -----
 Structure from the checkpoint file:  "BDE49_nonexpt_1547_mol1.chk"
 Charge =  0 Multiplicity = 1

                         Standard orientation:
 ---------------------------------------------------------------------
 Center     Atomic      Atomic             Coordinates (Angstroms)
 Number     Number       Type             X           Y           Z
 ---------------------------------------------------------------------
      1          6           0       -2.851595   -0.668488    0.414203
      2          5           0       -1.559097    0.071852   -0.098004
      3          1           0       -3.125723   -0.227284    1.383756
      4          1           0       -2.742804   -1.744533    0.576077
      5          1           0       -3.713046   -0.500591   -0.242290
      6          6           0       -1.642231    1.523968   -0.692634
      7          1           0       -2.200123    1.485742   -1.639199
      8          1           0       -0.676267    1.989577   -0.897343
      9          1           0       -2.226647    2.184916   -0.040579
     10         15           0        0.051454   -0.935684   -0.174274
     11          7           0        1.380871    0.145380   -0.073752
     12          6           0        2.651719   -0.329861   -0.621565
     13          1           0        3.209286   -0.973469    0.078359
     14          1           0        3.287803    0.527076   -0.868249
     15          1           0        2.472162   -0.896184   -1.535947
     16          6           0        1.553289    0.953861    1.129563
     17          1           0        2.296715    1.737209    0.946328
     18          1           0        1.893501    0.360631    1.994770
     19          1           0        0.612132    1.436074    1.397526
     20          1           0        0.003500   -1.597722    1.089786
 ---------------------------------------------------------------------

 SCF Done:  E(RHF) =  -580.345029202     A.U. after    2 cycles

 The electronic state is 1-A.
 Alpha  occ. eigenvalues -- -105.16185 -15.70834 -11.38956 -11.38099 -11.33587
 Alpha  occ. eigenvalues --  -11.33259  -7.59711  -2.74314  -1.57115  -1.48192
 Alpha  occ. eigenvalues --   -1.42762  -1.29191  -1.10984  -1.03053  -1.00599
 Alpha  occ. eigenvalues --   -0.87784  -0.72820  -0.62525  -0.62271  -0.58774
 Alpha  occ. eigenvalues --   -0.57988  -0.55922  -0.54273  -0.53866  -0.52600
 Alpha  occ. eigenvalues --   -0.52292  -0.49369  -0.41666  -0.34317  -0.25488
 Alpha  occ. eigenvalues --   -0.14379  -0.01830
 Alpha virt. eigenvalues --    0.03459   0.04184   0.04873   0.05161   0.06432
 Alpha virt. eigenvalues --    0.06523   0.07084   0.07408   0.07625   0.08133
 Alpha virt. eigenvalues --    0.08599   0.08729   0.08831   0.09512   0.09658

 Mulliken charges:
               1
     1  C   -6.271132
     2  B    5.195429
     3  H    0.900750
     4  H    1.237720
     5  H    1.047480
     6  C   -6.059561
     7  H    0.900129
     8  H    1.531145
     9  H    1.127838
    10  P    2.506086
    11  N   -1.570738
    12  C   -3.651586
    13  H    1.469885
    14  H    1.420235
    15  H    1.533155
    16  C   -3.938563
    17  H    1.290443
    18  H    1.320452
    19  H    1.805767
    20  H   -1.794934
 Sum of Mulliken charges =  -0.00000

 Dipole moment (field-independent basis, Debye):
    X=              4.0402    Y=             -2.2969    Z=             -2.2776  Tot=              5.1756

 Test job not archived.
 1\1\GINC-SE328\SP\RHF\Aug-CC-pVDZ\C4H13B1N1P1\OHZDE\08-Apr-2025\0\\#t
 hf aug-cc-pvdz iop(5/13=1,5/36=2,99/5=2) pseudo=read geom=check guess=
 (read,tcheck) scf=(maxcycle=1)\\title\\0,1\C,0,-2.851595,-0.668488,0.4
 14203\B,0,-1.559097,0.071852,-0.098004\H,0,-3.125723,-0.227284,1.38375
 6\H,0,-2.742804,-1.744533,0.576077\H,0,-3.713046,-0.500591,-0.24229\C,
 0,-1.642231,1.523968,-0.692634\H,0,-2.200123,1.485742,-1.639199\H,0,-0
 .676267,1.989577,-0.897343\H,0,-2.226647,2.184916,-0.040579\P,0,0.0514
 54,-0.935684,-0.174274\N,0,1.380871,0.14538,-0.073752\C,0,2.651719,-0.

 Normal termination of Gaussian 16 at Tue Apr  8 23:39:15 2025.
