 Gaussian 16, Revision C.01,

 ----------------------------------------------------------------------
 #t hf aug-cc-pvdz symm=none int=(grid=ultrafine) guess=(read,tcheck) s
 table=(opt,rrhf)
 ----------------------------------------------------------------------
 -----
 title
 -----
 Symbolic Z-matrix:
 Charge =  0 Multiplicity = 1

 SCF Done:  E(RHF) =  -750.497000287     A.U. after   18 cycles
 Normal termination of Gaussian 16 at Tue Apr  8 22:58:32 2025.
 Gaussian 16:  ES64L-G16RevC.01  3-Jul-2019

 ----------------------------------------------------------------------
 #t hf aug-cc-pvdz iop(5/13=1,5/36=2,99/5=2) pseudo=read geom=check gue
 ss=(read,tcheck) scf=(maxcycle=1)
 ----------------------------------------------------------------------
 -----
 title
 -----
 Structure from the checkpoint file:  "BDE49_expt_1804_mol1.chk"
 Charge =  0 Multiplicity = 1

                         Standard orientation:
 ---------------------------------------------------------------------
 Center     Atomic      Atomic             Coordinates (Angstroms)
 Number     Number       Type             X           Y           Z
 ---------------------------------------------------------------------
      1          6           0        2.150476   -0.066180    0.000000
      2          6           0        1.302765   -1.167567    0.000012
      3          6           0       -0.069805   -0.951165    0.000009
      4          6           0        1.674613    1.240975   -0.000013
      5          6           0        0.302266    1.446011   -0.000015
      6          6           0       -0.573211    0.354392   -0.000004
      7          1           0        1.723342   -2.163129    0.000022
      8          1           0       -0.753108   -1.789200    0.000017
      9          1           0        2.375681    2.063535   -0.000022
     10          1           0       -0.111583    2.446097   -0.000025
     11          6           0       -2.044027    0.648784   -0.000008
     12          8           0       -2.781092   -0.495834    0.000004
     13          7           0       -4.354076   -0.233223    0.000125
     14          8           0       -4.878139   -1.242284   -0.000144
     15          8           0       -2.505328    1.759574    0.000013
     16          7           0        3.617067   -0.293389    0.000003
     17          8           0        4.008067   -1.451714    0.000027
     18          8           0        4.339774    0.692444    0.000002
 ---------------------------------------------------------------------

 SCF Done:  E(RHF) =  -753.707552758     A.U. after    2 cycles

 The electronic state is 1-A.
 Alpha  occ. eigenvalues --  -21.24979 -21.12132 -21.10498 -21.10381 -21.07411
 Alpha  occ. eigenvalues --  -16.01921 -16.01032 -11.56870 -11.55871 -11.49369
 Alpha  occ. eigenvalues --  -11.48551 -11.47755 -11.45552 -11.41608  -2.02234
 Alpha  occ. eigenvalues --   -2.00790  -1.82383  -1.70119  -1.67332  -1.39066
 Alpha  occ. eigenvalues --   -1.20417  -1.14070  -1.05726  -1.01153  -0.91752
 Alpha  occ. eigenvalues --   -0.87795  -0.81281  -0.75938  -0.71890  -0.68591
 Alpha  occ. eigenvalues --   -0.67607  -0.66003  -0.65949  -0.64528  -0.62945
 Alpha  occ. eigenvalues --   -0.62560  -0.58911  -0.58525  -0.53615  -0.52113
 Alpha  occ. eigenvalues --   -0.51188  -0.47823  -0.37884  -0.37281  -0.36670
 Alpha  occ. eigenvalues --   -0.34894  -0.34304  -0.32171  -0.32097  -0.30678
 Alpha virt. eigenvalues --    0.03064   0.04837   0.06297   0.06437   0.06852
 Alpha virt. eigenvalues --    0.07767   0.08516   0.08885   0.09855   0.10402
 Alpha virt. eigenvalues --    0.10656   0.11467   0.11565   0.12553   0.12711

 Mulliken charges:
               1
     1  C    1.191203
     2  C   -2.944202
     3  C    1.321134
     4  C   -2.478528
     5  C   -1.230475
     6  C    1.475702
     7  H    1.855114
     8  H    2.050725
     9  H    1.839959
    10  H    1.847745
    11  C    3.482398
    12  O   -2.796422
    13  N    2.770140
    14  O   -2.149798
    15  O   -3.511819
    16  N    3.251123
    17  O   -2.987504
    18  O   -2.986495
 Sum of Mulliken charges =  -0.00000

 Dipole moment (field-independent basis, Debye):
    X=             -2.9672    Y=             -1.5463    Z=             -0.0002  Tot=              3.3460

 Test job not archived.
 1\1\GINC-SE219\SP\RHF\Aug-CC-pVDZ\C7H4N2O5\OHZDE\08-Apr-2025\0\\#t hf
 aug-cc-pvdz iop(5/13=1,5/36=2,99/5=2) pseudo=read geom=check guess=(re
 ad,tcheck) scf=(maxcycle=1)\\title\\0,1\C,0,2.150476,-0.06618,0.\C,0,1
 .302765,-1.167567,0.000012\C,0,-0.069805,-0.951165,0.000009\C,0,1.6746
 13,1.240975,-0.000013\C,0,0.302266,1.446011,-0.000015\C,0,-0.573211,0.
 354392,-0.000004\H,0,1.723342,-2.163129,0.000022\H,0,-0.753108,-1.7892
 ,0.000017\H,0,2.375681,2.063535,-0.000022\H,0,-0.111583,2.446097,-0.00
 0025\C,0,-2.044027,0.648784,-0.000008\O,0,-2.781092,-0.495834,0.000004

 Normal termination of Gaussian 16 at Tue Apr  8 22:58:46 2025.
