 Gaussian 16, Revision C.01,

 ----------------------------------------------------------------------
 #t hf aug-cc-pvdz symm=none int=(grid=ultrafine) guess=(read,tcheck) s
 table=(opt,rrhf)
 ----------------------------------------------------------------------
 -----
 title
 -----
 Symbolic Z-matrix:
 Charge =  0 Multiplicity = 1

 SCF Done:  E(RHF) =  -747.977669284     A.U. after   13 cycles
 Normal termination of Gaussian 16 at Wed Apr  9 00:12:08 2025.
 Gaussian 16:  ES64L-G16RevC.01  3-Jul-2019

 ----------------------------------------------------------------------
 #t hf aug-cc-pvdz iop(5/13=1,5/36=2,99/5=2) pseudo=read geom=check gue
 ss=(read,tcheck) scf=(maxcycle=1)
 ----------------------------------------------------------------------
 -----
 title
 -----
 Structure from the checkpoint file:  "BDE49_nonexpt_2396_mol1.chk"
 Charge =  0 Multiplicity = 1

                         Standard orientation:
 ---------------------------------------------------------------------
 Center     Atomic      Atomic             Coordinates (Angstroms)
 Number     Number       Type             X           Y           Z
 ---------------------------------------------------------------------
      1         14           0       -1.873757   -0.765839   -0.048733
      2         14           0       -0.392118    1.056930    0.178139
      3          1           0       -3.190863   -0.316784    0.462242
      4          1           0       -1.393408   -1.916747    0.746036
      5          1           0       -1.993786   -1.141471   -1.474924
      6          8           0        1.161721    0.674570   -0.452987
      7          1           0       -0.198668    1.454443    1.589417
      8          1           0       -0.769672    2.225438   -0.637018
      9          6           0        1.925089   -0.287627   -0.081073
     10          7           0        2.632049   -1.150135    0.230413
 ---------------------------------------------------------------------

 SCF Done:  E(RHF) =  -748.988304362     A.U. after    2 cycles

 The electronic state is 1-A.
 Alpha  occ. eigenvalues --  -76.28367 -76.24278 -21.14759 -15.75042 -11.48480
 Alpha  occ. eigenvalues --   -5.61759  -5.57720  -2.27093  -2.23554  -2.22691
 Alpha  occ. eigenvalues --   -2.19842  -2.19815  -2.18741  -1.81067  -1.28291
 Alpha  occ. eigenvalues --   -0.85799  -0.78239  -0.67047  -0.59573  -0.58672
 Alpha  occ. eigenvalues --   -0.52470  -0.50916  -0.49662  -0.48998  -0.41615
 Alpha  occ. eigenvalues --   -0.37388  -0.34435
 Alpha virt. eigenvalues --    0.03534   0.03883   0.04474   0.05593   0.06481
 Alpha virt. eigenvalues --    0.07488   0.07721   0.08313   0.08434   0.08991
 Alpha virt. eigenvalues --    0.09294   0.10790   0.11647   0.12589   0.12894

 Mulliken charges:
               1
     1  Si   4.349428
     2  Si   4.844996
     3  H   -1.472716
     4  H   -1.424591
     5  H   -1.497549
     6  O   -2.817594
     7  H   -1.686273
     8  H   -1.655797
     9  C    3.840411
    10  N   -2.480313
 Sum of Mulliken charges =  -0.00000

 Dipole moment (field-independent basis, Debye):
    X=             -3.5509    Y=              2.2261    Z=             -0.7193  Tot=              4.2523

 Test job not archived.
 1\1\GINC-SE044\SP\RHF\Aug-CC-pVDZ\C1H5N1O1Si2\OHZDE\09-Apr-2025\0\\#t
 hf aug-cc-pvdz iop(5/13=1,5/36=2,99/5=2) pseudo=read geom=check guess=
 (read,tcheck) scf=(maxcycle=1)\\title\\0,1\Si,0,-1.873757,-0.765839,-0
 .048733\Si,0,-0.392118,1.05693,0.178139\H,0,-3.190863,-0.316784,0.4622
 42\H,0,-1.393408,-1.916747,0.746036\H,0,-1.993786,-1.141471,-1.474924\
 O,0,1.161721,0.67457,-0.452987\H,0,-0.198668,1.454443,1.589417\H,0,-0.
 769672,2.225438,-0.637018\C,0,1.925089,-0.287627,-0.081073\N,0,2.63204
 9,-1.150135,0.230413\\Version=ES64L-G16RevC.01\State=1-A\HF=-748.98830

 Normal termination of Gaussian 16 at Wed Apr  9 00:12:11 2025.
