 Gaussian 16, Revision C.01,

 ----------------------------------------------------------------------
 #t hf aug-cc-pvdz symm=none int=(grid=ultrafine) guess=(read,tcheck) s
 table=(opt,rrhf)
 ----------------------------------------------------------------------
 -----
 title
 -----
 Symbolic Z-matrix:
 Charge =  0 Multiplicity = 1

 SCF Done:  E(RHF) =  -1368.41329119     A.U. after   17 cycles
 Normal termination of Gaussian 16 at Wed Apr  9 00:32:12 2025.
 Gaussian 16:  ES64L-G16RevC.01  3-Jul-2019

 ----------------------------------------------------------------------
 #t hf aug-cc-pvdz iop(5/13=1,5/36=2,99/5=2) pseudo=read geom=check gue
 ss=(read,tcheck) scf=(maxcycle=1)
 ----------------------------------------------------------------------
 -----
 title
 -----
 Structure from the checkpoint file:  "BDE49_nonexpt_2725_mol1.chk"
 Charge =  0 Multiplicity = 1

                         Standard orientation:
 ---------------------------------------------------------------------
 Center     Atomic      Atomic             Coordinates (Angstroms)
 Number     Number       Type             X           Y           Z
 ---------------------------------------------------------------------
      1          6           0        0.853991    0.039005   -0.442206
      2          8           0        0.152256    0.917789   -0.860145
      3         16           0        0.177375   -1.635271   -0.040611
      4         16           0       -1.756735   -1.446134   -0.734607
      5          6           0       -2.561680   -0.477462    0.604130
      6          8           0       -1.982271   -0.087804    1.573408
      7          6           0        2.308865    0.195900   -0.155080
      8          6           0        2.824893    1.498945   -0.152773
      9          6           0        4.172184    1.715197    0.104967
     10          6           0        5.017427    0.634053    0.355768
     11          6           0        4.511873   -0.664519    0.346606
     12          6           0        3.162216   -0.885621    0.092312
     13          1           0        2.783544   -1.900398    0.072298
     14          1           0        2.152771    2.323648   -0.353098
     15          1           0        4.565260    2.725246    0.110483
     16          1           0        6.069450    0.803379    0.555614
     17          1           0        5.169027   -1.505645    0.533456
     18          6           0       -4.031025   -0.228248    0.306952
     19          6           0       -4.406122    1.252380    0.492769
     20          1           0       -4.591937   -0.851519    1.012788
     21          1           0       -4.282232   -0.573355   -0.700889
     22          6           0       -3.773125    2.172612   -0.554871
     23          1           0       -4.098249    1.558031    1.496184
     24          1           0       -5.496765    1.335543    0.454549
     25          1           0       -2.681745    2.115848   -0.532091
     26          1           0       -4.057253    3.213012   -0.378424
     27          1           0       -4.098969    1.905365   -1.564914
 ---------------------------------------------------------------------

 SCF Done:  E(RHF) =  -1371.51704306     A.U. after    2 cycles

 The electronic state is 1-A.
 Alpha  occ. eigenvalues --  -75.72389 -75.72126 -21.07138 -21.07046 -13.20920
 Alpha  occ. eigenvalues --  -13.15288 -13.14073 -13.12114 -13.06887 -13.06020
 Alpha  occ. eigenvalues --  -11.53601 -11.52684 -11.51561 -11.45375 -11.44787
 Alpha  occ. eigenvalues --  -11.43318 -11.43178 -11.42445 -11.39912 -11.38418
 Alpha  occ. eigenvalues --  -11.35804  -8.06364  -8.06184  -1.73540  -1.72849
 Alpha  occ. eigenvalues --   -1.36257  -1.25924  -1.21597  -1.13774  -1.11070
 Alpha  occ. eigenvalues --   -1.06977  -1.01325  -0.91786  -0.88266  -0.87191
 Alpha  occ. eigenvalues --   -0.78674  -0.73703  -0.71633  -0.65823  -0.63943
 Alpha  occ. eigenvalues --   -0.63317  -0.61346  -0.60016  -0.58701  -0.57871
 Alpha  occ. eigenvalues --   -0.56538  -0.54776  -0.52022  -0.51309  -0.49311
 Alpha  occ. eigenvalues --   -0.48132  -0.47508  -0.47452  -0.46285  -0.45812
 Alpha  occ. eigenvalues --   -0.43132  -0.36492  -0.34651  -0.33543  -0.29340
 Alpha  occ. eigenvalues --   -0.28399  -0.25607  -0.24726
 Alpha virt. eigenvalues --    0.02987   0.03781   0.04904   0.04948   0.05601
 Alpha virt. eigenvalues --    0.05832   0.06145   0.06269   0.06848   0.07104
 Alpha virt. eigenvalues --    0.07505   0.07771   0.09021   0.09341   0.10085

 Mulliken charges:
               1
     1  C    1.005506
     2  O   -3.774024
     3  S   -0.210125
     4  S   -0.260570
     5  C    4.115163
     6  O   -3.212742
     7  C    5.015751
     8  C   -3.312799
     9  C   -1.258995
    10  C   -2.973129
    11  C   -2.571196
    12  C   -0.129283
    13  H    2.088140
    14  H    1.677449
    15  H    1.494913
    16  H    1.529780
    17  H    1.516659
    18  C   -3.620276
    19  C   -3.280492
    20  H    1.357859
    21  H    1.804481
    22  C   -3.971985
    23  H    1.466847
    24  H    1.340188
    25  H    1.723916
    26  H    1.140769
    27  H    1.298195
 Sum of Mulliken charges =  -0.00000

 Dipole moment (field-independent basis, Debye):
    X=              0.8442    Y=             -0.2918    Z=             -0.1769  Tot=              0.9105

 Test job not archived.
 1\1\GINC-SE461\SP\RHF\Aug-CC-pVDZ\C11H12O2S2\OHZDE\09-Apr-2025\0\\#t h
 f aug-cc-pvdz iop(5/13=1,5/36=2,99/5=2) pseudo=read geom=check guess=(
 read,tcheck) scf=(maxcycle=1)\\title\\0,1\C,0,0.853991,0.039005,-0.442
 206\O,0,0.152256,0.917789,-0.860145\S,0,0.177375,-1.635271,-0.040611\S
 ,0,-1.756735,-1.446134,-0.734607\C,0,-2.56168,-0.477462,0.60413\O,0,-1
 .982271,-0.087804,1.573408\C,0,2.308865,0.1959,-0.15508\C,0,2.824893,1
 .498945,-0.152773\C,0,4.172184,1.715197,0.104967\C,0,5.017427,0.634053
 ,0.355768\C,0,4.511873,-0.664519,0.346606\C,0,3.162216,-0.885621,0.092

 Normal termination of Gaussian 16 at Wed Apr  9 00:32:35 2025.
