 Gaussian 16, Revision C.01,

 ----------------------------------------------------------------------
 #t hf aug-cc-pvdz symm=none int=(grid=ultrafine) guess=(read,tcheck) s
 table=(opt,rrhf)
 ----------------------------------------------------------------------
 -----
 title
 -----
 Symbolic Z-matrix:
 Charge =  0 Multiplicity = 1

 SCF Done:  E(RHF) =  -762.702104503     A.U. after   15 cycles
 Normal termination of Gaussian 16 at Tue Apr  8 23:19:58 2025.
 Gaussian 16:  ES64L-G16RevC.01  3-Jul-2019

 ----------------------------------------------------------------------
 #t hf aug-cc-pvdz iop(5/13=1,5/36=2,99/5=2) pseudo=read geom=check gue
 ss=(read,tcheck) scf=(maxcycle=1)
 ----------------------------------------------------------------------
 -----
 title
 -----
 Structure from the checkpoint file:  "BDE49_nonexpt_1076_mol1.chk"
 Charge =  0 Multiplicity = 1

                         Standard orientation:
 ---------------------------------------------------------------------
 Center     Atomic      Atomic             Coordinates (Angstroms)
 Number     Number       Type             X           Y           Z
 ---------------------------------------------------------------------
      1         17           0        1.688279   -0.581485   -0.245562
      2          8           0        0.529537   -0.062447    0.947566
      3          6           0       -0.536384    0.719314    0.380928
      4          8           0       -1.288749    0.006501   -0.531219
      5          8           0       -0.117262    1.878153   -0.209061
      6          6           0       -1.882281   -1.193946   -0.029879
      7          1           0       -1.120878   -1.921747    0.258253
      8          1           0       -2.488199   -1.592877   -0.841072
      9          1           0       -2.525393   -0.978071    0.831174
     10          1           0        0.038809    1.686752   -1.143032
     11          1           0       -1.081300    0.961331    1.304653
 ---------------------------------------------------------------------

 SCF Done:  E(RHF) =  -764.240748124     A.U. after    2 cycles

 The electronic state is 1-A.
 Alpha  occ. eigenvalues --  -99.93767 -21.11741 -21.09989 -21.07679 -11.50514
 Alpha  occ. eigenvalues --  -11.42099 -10.50512  -9.70390  -9.69623  -9.69492
 Alpha  occ. eigenvalues --   -1.88891  -1.73013  -1.69733  -1.25485  -1.02580
 Alpha  occ. eigenvalues --   -0.90468  -0.71355  -0.68270  -0.65314  -0.61901
 Alpha  occ. eigenvalues --   -0.59236  -0.57566  -0.55073  -0.49798  -0.46066
 Alpha  occ. eigenvalues --   -0.41998  -0.36689  -0.33841  -0.32969
 Alpha virt. eigenvalues --    0.03596   0.04277   0.05790   0.06106   0.06188
 Alpha virt. eigenvalues --    0.06534   0.10078   0.11151   0.11864   0.14202
 Alpha virt. eigenvalues --    0.14560   0.15052   0.16134   0.17187   0.17387

 Mulliken charges:
               1
     1  Cl   0.279743
     2  O   -2.038230
     3  C    3.948689
     4  O   -2.935919
     5  O   -2.754475
     6  C   -2.773802
     7  H    1.301621
     8  H    1.281189
     9  H    1.293593
    10  H    0.678733
    11  H    1.718859
 Sum of Mulliken charges =  -0.00000

 Dipole moment (field-independent basis, Debye):
    X=             -2.6858    Y=              0.2478    Z=              0.6922  Tot=              2.7847

 Test job not archived.
 1\1\GINC-SE150\SP\RHF\Aug-CC-pVDZ\C2H5Cl1O3\OHZDE\08-Apr-2025\0\\#t hf
  aug-cc-pvdz iop(5/13=1,5/36=2,99/5=2) pseudo=read geom=check guess=(r
 ead,tcheck) scf=(maxcycle=1)\\title\\0,1\Cl,0,1.688279,-0.581485,-0.24
 5562\O,0,0.529537,-0.062447,0.947566\C,0,-0.536384,0.719314,0.380928\O
 ,0,-1.288749,0.006501,-0.531219\O,0,-0.117262,1.878153,-0.209061\C,0,-
 1.882281,-1.193947,-0.029879\H,0,-1.120877,-1.921747,0.258253\H,0,-2.4
 88199,-1.592878,-0.841072\H,0,-2.525393,-0.978072,0.831174\H,0,0.03880
 9,1.686752,-1.143032\H,0,-1.0813,0.961331,1.304653\\Version=ES64L-G16R

 Normal termination of Gaussian 16 at Tue Apr  8 23:20:02 2025.
