 Gaussian 16, Revision C.01,

 ----------------------------------------------------------------------
 #t hf aug-cc-pvdz symm=none int=(grid=ultrafine) guess=(read,tcheck) s
 table=(opt,rrhf)
 ----------------------------------------------------------------------
 -----
 title
 -----
 Symbolic Z-matrix:
 Charge =  0 Multiplicity = 1

 SCF Done:  E(RHF) =  -469.873856100     A.U. after   15 cycles
 Normal termination of Gaussian 16 at Wed Apr  9 00:34:34 2025.
 Gaussian 16:  ES64L-G16RevC.01  3-Jul-2019

 ----------------------------------------------------------------------
 #t hf aug-cc-pvdz iop(5/13=1,5/36=2,99/5=2) pseudo=read geom=check gue
 ss=(read,tcheck) scf=(maxcycle=1)
 ----------------------------------------------------------------------
 -----
 title
 -----
 Structure from the checkpoint file:  "BDE49_nonexpt_428_mol1.chk"
 Charge =  0 Multiplicity = 1

                         Standard orientation:
 ---------------------------------------------------------------------
 Center     Atomic      Atomic             Coordinates (Angstroms)
 Number     Number       Type             X           Y           Z
 ---------------------------------------------------------------------
      1          9           0        2.414091   -1.126211   -0.000103
      2          5           0        1.718106    0.005728    0.000140
      3          9           0        2.419943    1.135649   -0.000105
      4          6           0        0.176024    0.015064    0.000079
      5          6           0       -0.554478    1.212446    0.000053
      6          6           0       -0.558014   -1.181700    0.000053
      7          7           0       -1.890590   -1.249617    0.000007
      8          6           0       -1.941346    1.161497    0.000006
      9          6           0       -2.557177   -0.089731   -0.000016
     10          1           0       -0.035697    2.164737    0.000072
     11          1           0       -2.539993    2.064374   -0.000014
     12          1           0       -0.035997   -2.134389    0.000073
     13          1           0       -3.641075   -0.166442   -0.000053
 ---------------------------------------------------------------------

 SCF Done:  E(RHF) =  -471.796104079     A.U. after    2 cycles

 The electronic state is 1-A.
 Alpha  occ. eigenvalues --  -29.26021 -29.25873 -15.75084 -11.49705 -11.46790
 Alpha  occ. eigenvalues --  -11.45580 -11.42299 -11.38617  -7.72777  -1.46500
 Alpha  occ. eigenvalues --   -1.24095  -1.16335  -1.07849  -0.91288  -0.89243
 Alpha  occ. eigenvalues --   -0.74909  -0.74465  -0.66934  -0.61413  -0.60876
 Alpha  occ. eigenvalues --   -0.57012  -0.56628  -0.50315  -0.50092  -0.45599
 Alpha  occ. eigenvalues --   -0.44361  -0.38590  -0.38139  -0.35146  -0.34222
 Alpha  occ. eigenvalues --   -0.32680  -0.26704
 Alpha virt. eigenvalues --    0.02951   0.04628   0.04755   0.05100   0.05377
 Alpha virt. eigenvalues --    0.06085   0.08361   0.08558   0.09252   0.09853
 Alpha virt. eigenvalues --    0.09979   0.12205   0.12286   0.13275   0.13679

 Mulliken charges:
               1
     1  F   -0.706566
     2  B    0.286404
     3  F   -0.706010
     4  C   -1.183811
     5  C    0.952151
     6  C   -0.203443
     7  N   -3.364233
     8  C   -0.518004
     9  C   -1.315675
    10  H    1.949261
    11  H    1.425511
    12  H    1.845749
    13  H    1.538666
 Sum of Mulliken charges =  -0.00000

 Dipole moment (field-independent basis, Debye):
    X=              2.3371    Y=              1.6012    Z=             -0.0006  Tot=              2.8330

 Test job not archived.
 1\1\GINC-SE058\SP\RHF\Aug-CC-pVDZ\C5H4B1F2N1\OHZDE\09-Apr-2025\0\\#t h
 f aug-cc-pvdz iop(5/13=1,5/36=2,99/5=2) pseudo=read geom=check guess=(
 read,tcheck) scf=(maxcycle=1)\\title\\0,1\F,0,-2.414091,-1.126211,0.00
 0103\B,0,-1.718106,0.005728,-0.00014\F,0,-2.419943,1.135649,0.000105\C
 ,0,-0.176024,0.015064,-0.000079\C,0,0.554478,1.212446,-0.000053\C,0,0.
 558014,-1.1817,-0.000053\N,0,1.89059,-1.249617,-0.000007\C,0,1.941346,
 1.161497,-0.000006\C,0,2.557177,-0.089731,0.000016\H,0,0.035697,2.1647
 37,-0.000072\H,0,2.539993,2.064374,0.000014\H,0,0.035997,-2.134389,-0.

 Normal termination of Gaussian 16 at Wed Apr  9 00:34:40 2025.
