 Gaussian 16, Revision C.01,

 ----------------------------------------------------------------------
 #t hf aug-cc-pvdz symm=none int=(grid=ultrafine) guess=(read,tcheck) s
 table=(opt,rrhf)
 ----------------------------------------------------------------------
 -----
 title
 -----
 Symbolic Z-matrix:
 Charge =  0 Multiplicity = 1

 SCF Done:  E(RHF) =  -549.306048172     A.U. after   15 cycles
 Normal termination of Gaussian 16 at Tue Apr  8 23:37:10 2025.
 Gaussian 16:  ES64L-G16RevC.01  3-Jul-2019

 ----------------------------------------------------------------------
 #t hf aug-cc-pvdz iop(5/13=1,5/36=2,99/5=2) pseudo=read geom=check gue
 ss=(read,tcheck) scf=(maxcycle=1)
 ----------------------------------------------------------------------
 -----
 title
 -----
 Structure from the checkpoint file:  "BDE49_nonexpt_1521_mol1.chk"
 Charge =  0 Multiplicity = 1

                         Standard orientation:
 ---------------------------------------------------------------------
 Center     Atomic      Atomic             Coordinates (Angstroms)
 Number     Number       Type             X           Y           Z
 ---------------------------------------------------------------------
      1          6           0       -2.107694   -0.485028    0.016228
      2          6           0       -0.786677    0.253451   -0.012084
      3          1           0       -2.376389   -0.754057   -1.010867
      4          1           0       -2.886479    0.160343    0.424640
      5          1           0       -2.041669   -1.412280    0.591285
      6          7           0        1.968529    0.415697    0.122833
      7          8           0       -0.710127    1.461616   -0.022468
      8         15           0        0.788493   -0.787267   -0.111899
      9          1           0        0.607672   -1.263802    1.216209
     10          1           0        1.590741    1.303294    0.445948
     11          1           0        2.546262    0.562162   -0.693686
 ---------------------------------------------------------------------

 SCF Done:  E(RHF) =  -550.440904995     A.U. after    2 cycles

 The electronic state is 1-A.
 Alpha  occ. eigenvalues -- -105.19885 -21.06524 -15.74578 -11.48187 -11.39545
 Alpha  occ. eigenvalues --   -2.78099  -1.72064  -1.57467  -1.47368  -1.45393
 Alpha  occ. eigenvalues --   -1.18176  -1.10828  -0.79784  -0.68516  -0.64659
 Alpha  occ. eigenvalues --   -0.60066  -0.58719  -0.53407  -0.44406  -0.43774
 Alpha  occ. eigenvalues --   -0.39085  -0.27753  -0.18505  -0.02885
 Alpha virt. eigenvalues --    0.03855   0.05623   0.06267   0.06739   0.07376
 Alpha virt. eigenvalues --    0.07518   0.08718   0.10516   0.11896   0.12770
 Alpha virt. eigenvalues --    0.14255   0.14702   0.15016   0.15640   0.17307

 Mulliken charges:
               1
     1  C   -3.956246
     2  C    1.299776
     3  H    1.225643
     4  H    1.250282
     5  H    1.408155
     6  N   -2.339273
     7  O   -2.860665
     8  P    3.499373
     9  H   -0.693563
    10  H    0.602228
    11  H    0.564291
 Sum of Mulliken charges =   0.00000

 Dipole moment (field-independent basis, Debye):
    X=              0.3738    Y=             -0.0613    Z=             -0.9561  Tot=              1.0284

 Test job not archived.
 1\1\GINC-SE398\SP\RHF\Aug-CC-pVDZ\C2H6N1O1P1\OHZDE\08-Apr-2025\0\\#t h
 f aug-cc-pvdz iop(5/13=1,5/36=2,99/5=2) pseudo=read geom=check guess=(
 read,tcheck) scf=(maxcycle=1)\\title\\0,1\C,0,-2.107694,-0.485028,0.01
 6228\C,0,-0.786677,0.253451,-0.012084\H,0,-2.376389,-0.754057,-1.01086
 7\H,0,-2.886479,0.160344,0.42464\H,0,-2.041669,-1.41228,0.591285\N,0,1
 .968529,0.415697,0.122833\O,0,-0.710127,1.461616,-0.022468\P,0,0.78849
 3,-0.787267,-0.111899\H,0,0.607672,-1.263802,1.216209\H,0,1.590741,1.3
 03294,0.445948\H,0,2.546262,0.562162,-0.693686\\Version=ES64L-G16RevC.

 Normal termination of Gaussian 16 at Tue Apr  8 23:37:13 2025.
