 Gaussian 16, Revision C.01,

 ----------------------------------------------------------------------
 #t hf aug-cc-pvdz symm=none int=(grid=ultrafine) guess=(read,tcheck) s
 table=(opt,rrhf)
 ----------------------------------------------------------------------
 -----
 title
 -----
 Symbolic Z-matrix:
 Charge =  0 Multiplicity = 1

 SCF Done:  E(RHF) =  -1529.70043231     A.U. after   14 cycles
 Normal termination of Gaussian 16 at Tue Apr  8 22:36:25 2025.
 Gaussian 16:  ES64L-G16RevC.01  3-Jul-2019

 ----------------------------------------------------------------------
 #t hf aug-cc-pvdz iop(5/13=1,5/36=2,99/5=2) pseudo=read geom=check gue
 ss=(read,tcheck) scf=(maxcycle=1)
 ----------------------------------------------------------------------
 -----
 title
 -----
 Structure from the checkpoint file:  "BDE49_expt_1077_mol1.chk"
 Charge =  0 Multiplicity = 1

                         Standard orientation:
 ---------------------------------------------------------------------
 Center     Atomic      Atomic             Coordinates (Angstroms)
 Number     Number       Type             X           Y           Z
 ---------------------------------------------------------------------
      1          6           0        0.624455   -0.000122    0.597223
      2          6           0       -0.909175   -0.002128    0.645841
      3          8           0       -1.512333   -0.002491    1.662455
      4         17           0       -1.713206   -0.000286   -0.946600
      5         17           0        1.231970    1.486739   -0.184066
      6          1           0        0.979273   -0.000280    1.622562
      7         17           0        1.235808   -1.484470   -0.185840
 ---------------------------------------------------------------------

 SCF Done:  E(RHF) =  -1531.07779697     A.U. after    2 cycles

 The electronic state is 1-A.
 Alpha  occ. eigenvalues --  -99.93034 -99.93027 -99.92430 -21.13105 -11.58394
 Alpha  occ. eigenvalues --  -11.53280 -10.50403 -10.50276 -10.49807  -9.70229
 Alpha  occ. eigenvalues --   -9.70193  -9.69675  -9.69434  -9.69370  -9.69348
 Alpha  occ. eigenvalues --   -9.69313  -9.68867  -9.68775  -1.79093  -1.43529
 Alpha  occ. eigenvalues --   -1.34098  -1.31656  -1.08196  -0.87087  -0.73270
 Alpha  occ. eigenvalues --   -0.70977  -0.70026  -0.60681  -0.60144  -0.56365
 Alpha  occ. eigenvalues --   -0.54381  -0.52466  -0.52308  -0.51238  -0.47406
 Alpha  occ. eigenvalues --   -0.37294
 Alpha virt. eigenvalues --    0.01610   0.03863   0.05330   0.06742   0.07946
 Alpha virt. eigenvalues --    0.08928   0.09128   0.11282   0.12428   0.12468
 Alpha virt. eigenvalues --    0.13135   0.14344   0.15187   0.15427   0.15790

 Mulliken charges:
               1
     1  C   -3.231987
     2  C    2.851457
     3  O   -2.544451
     4  Cl   0.202485
     5  Cl   0.390702
     6  H    1.941157
     7  Cl   0.390636
 Sum of Mulliken charges =   0.00000

 Dipole moment (field-independent basis, Debye):
    X=              0.2813    Y=             -0.0006    Z=              2.2953  Tot=              2.3124

 Test job not archived.
 1\1\GINC-SE252\SP\RHF\Aug-CC-pVDZ\C2H1Cl3O1\OHZDE\08-Apr-2025\0\\#t hf
  aug-cc-pvdz iop(5/13=1,5/36=2,99/5=2) pseudo=read geom=check guess=(r
 ead,tcheck) scf=(maxcycle=1)\\title\\0,1\C,0,-0.624455,0.000122,0.5972
 23\C,0,0.909175,0.002128,0.645841\O,0,1.512333,0.002491,1.662455\Cl,0,
 1.713206,0.000286,-0.9466\Cl,0,-1.23197,-1.486739,-0.184066\H,0,-0.979
 273,0.00028,1.622562\Cl,0,-1.235808,1.48447,-0.18584\\Version=ES64L-G1
 6RevC.01\State=1-A\HF=-1531.077797\RMSD=1.188e-01\Dipole=-0.1106638,0.
 0002287,0.9030213\Quadrupole=-1.6245097,0.1639639,1.4605459,-0.0014214

 Normal termination of Gaussian 16 at Tue Apr  8 22:36:28 2025.
