 Gaussian 16, Revision C.01,

 ----------------------------------------------------------------------
 #t hf aug-cc-pvdz symm=none int=(grid=ultrafine) guess=(read,tcheck) s
 table=(opt,rrhf)
 ----------------------------------------------------------------------
 -----
 title
 -----
 Symbolic Z-matrix:
 Charge =  0 Multiplicity = 1

 SCF Done:  E(RHF) =  -611.366078149     A.U. after   15 cycles
 Normal termination of Gaussian 16 at Tue Apr  8 23:36:42 2025.
 Gaussian 16:  ES64L-G16RevC.01  3-Jul-2019

 ----------------------------------------------------------------------
 #t hf aug-cc-pvdz iop(5/13=1,5/36=2,99/5=2) pseudo=read geom=check gue
 ss=(read,tcheck) scf=(maxcycle=1)
 ----------------------------------------------------------------------
 -----
 title
 -----
 Structure from the checkpoint file:  "BDE49_nonexpt_1489_mol1.chk"
 Charge =  0 Multiplicity = 1

                         Standard orientation:
 ---------------------------------------------------------------------
 Center     Atomic      Atomic             Coordinates (Angstroms)
 Number     Number       Type             X           Y           Z
 ---------------------------------------------------------------------
      1         15           0       -2.076825   -0.371628    0.092646
      2          6           0       -0.445688    0.605736   -0.071332
      3          6           0        0.897325   -0.160229   -0.012271
      4          6           0        0.812494   -1.543228   -0.678419
      5          1           0        0.542756   -1.466581   -1.735118
      6          1           0        0.087706   -2.196524   -0.184914
      7          6           0        1.982473    0.692684   -0.689944
      8          1           0        1.784164    0.805049   -1.759369
      9          1           0        2.959397    0.215499   -0.573458
     10          6           0        1.222174   -0.326466    1.492417
     11          1           0        1.303573    0.646602    1.981942
     12          1           0        0.455661   -0.908940    2.010602
     13          8           0       -0.490465    1.810682   -0.068855
     14          1           0        2.023043    1.689859   -0.251744
     15          1           0        1.785560   -2.038245   -0.618856
     16          1           0        2.176153   -0.849473    1.605422
     17          1           0       -1.989254   -1.093928   -1.121287
     18          1           0       -2.865331    0.674664   -0.434787
 ---------------------------------------------------------------------

 SCF Done:  E(RHF) =  -612.861056781     A.U. after    2 cycles

 The electronic state is 1-A.
 Alpha  occ. eigenvalues -- -105.19155 -21.06176 -11.49202 -11.42823 -11.40361
 Alpha  occ. eigenvalues --  -11.39472 -11.36498  -2.76066  -1.72106  -1.47278
 Alpha  occ. eigenvalues --   -1.46534  -1.44175  -1.27795  -1.01999  -1.01335
 Alpha  occ. eigenvalues --   -0.89998  -0.78586  -0.68137  -0.61740  -0.61293
 Alpha  occ. eigenvalues --   -0.59390  -0.55851  -0.54811  -0.52306  -0.47784
 Alpha  occ. eigenvalues --   -0.47700  -0.46255  -0.41463  -0.39261  -0.26249
 Alpha  occ. eigenvalues --   -0.17738  -0.03291
 Alpha virt. eigenvalues --    0.03901   0.05375   0.05433   0.05581   0.05909
 Alpha virt. eigenvalues --    0.06176   0.06781   0.07487   0.08022   0.09123
 Alpha virt. eigenvalues --    0.09358   0.10353   0.10782   0.11586   0.13332

 Mulliken charges:
               1
     1  P    2.214769
     2  C    2.478833
     3  C    1.332097
     4  C   -3.908210
     5  H    1.265105
     6  H    1.453038
     7  C   -4.332399
     8  H    1.181025
     9  H    1.246089
    10  C   -4.676873
    11  H    1.236730
    12  H    1.223318
    13  O   -3.235534
    14  H    1.418834
    15  H    1.051830
    16  H    1.265681
    17  H   -0.697924
    18  H   -0.516410
 Sum of Mulliken charges =  -0.00000

 Dipole moment (field-independent basis, Debye):
    X=             -0.2718    Y=             -1.6223    Z=              2.6054  Tot=              3.0812

 Test job not archived.
 1\1\GINC-SE128\SP\RHF\Aug-CC-pVDZ\C5H11O1P1\OHZDE\08-Apr-2025\0\\#t hf
  aug-cc-pvdz iop(5/13=1,5/36=2,99/5=2) pseudo=read geom=check guess=(r
 ead,tcheck) scf=(maxcycle=1)\\title\\0,1\P,0,-2.076825,-0.371628,0.092
 646\C,0,-0.445688,0.605736,-0.071332\C,0,0.897325,-0.160229,-0.012271\
 C,0,0.812494,-1.543228,-0.678419\H,0,0.542756,-1.466581,-1.735118\H,0,
 0.087706,-2.196524,-0.184914\C,0,1.982473,0.692684,-0.689944\H,0,1.784
 164,0.805049,-1.759369\H,0,2.959397,0.215499,-0.573458\C,0,1.222174,-0
 .326466,1.492417\H,0,1.303573,0.646602,1.981942\H,0,0.455661,-0.90894,

 Normal termination of Gaussian 16 at Tue Apr  8 23:36:50 2025.
