 Gaussian 16, Revision C.01,

 ----------------------------------------------------------------------
 #t hf aug-cc-pvdz symm=none int=(grid=ultrafine) guess=(read,tcheck) s
 table=(opt,rrhf)
 ----------------------------------------------------------------------
 -----
 title
 -----
 Symbolic Z-matrix:
 Charge =  0 Multiplicity = 1

 SCF Done:  E(RHF) =  -683.498559521     A.U. after   16 cycles
 Normal termination of Gaussian 16 at Tue Apr  8 22:56:16 2025.
 Gaussian 16:  ES64L-G16RevC.01  3-Jul-2019

 ----------------------------------------------------------------------
 #t hf aug-cc-pvdz iop(5/13=1,5/36=2,99/5=2) pseudo=read geom=check gue
 ss=(read,tcheck) scf=(maxcycle=1)
 ----------------------------------------------------------------------
 -----
 title
 -----
 Structure from the checkpoint file:  "BDE49_expt_1820_mol1.chk"
 Charge =  0 Multiplicity = 1

                         Standard orientation:
 ---------------------------------------------------------------------
 Center     Atomic      Atomic             Coordinates (Angstroms)
 Number     Number       Type             X           Y           Z
 ---------------------------------------------------------------------
      1          7           0       -1.777702    0.461886   -0.000168
      2          8           0       -2.914463    0.142739   -0.000163
      3         16           0       -0.565818   -0.927207    0.000053
      4          6           0        0.989758    0.106144    0.000052
      5          6           0        2.136961   -0.915467   -0.000009
      6          1           0        2.106930   -1.554329    0.885960
      7          1           0        3.093845   -0.383443   -0.000018
      8          1           0        2.106884   -1.554276   -0.886014
      9          6           0        1.034796    0.971315    1.266425
     10          1           0        1.004553    0.354527    2.167272
     11          1           0        0.196318    1.668566    1.298144
     12          1           0        1.963036    1.552720    1.280230
     13          6           0        1.034732    0.971395   -1.266269
     14          1           0        1.004439    0.354665   -2.167153
     15          1           0        1.962972    1.552800   -1.280087
     16          1           0        0.196252    1.668649   -1.297898
 ---------------------------------------------------------------------

 SCF Done:  E(RHF) =  -685.092331295     A.U. after    2 cycles

 The electronic state is 1-A.
 Alpha  occ. eigenvalues --  -75.70701 -21.14878 -15.90051 -13.14518 -13.12075
 Alpha  occ. eigenvalues --  -13.06698 -11.44650 -11.40486 -11.39909 -11.36736
 Alpha  occ. eigenvalues --   -8.04669  -1.88799  -1.31735  -1.13692  -1.02503
 Alpha  occ. eigenvalues --   -1.02230  -0.91762  -0.78053  -0.65565  -0.62541
 Alpha  occ. eigenvalues --   -0.62212  -0.58346  -0.57108  -0.56869  -0.54706
 Alpha  occ. eigenvalues --   -0.54474  -0.52639  -0.46292  -0.46124  -0.36255
 Alpha  occ. eigenvalues --   -0.25402  -0.24545
 Alpha virt. eigenvalues --    0.03394   0.05195   0.05480   0.05763   0.05989
 Alpha virt. eigenvalues --    0.06393   0.06694   0.07074   0.08998   0.09009
 Alpha virt. eigenvalues --    0.11274   0.11542   0.12493   0.13494   0.14035

 Mulliken charges:
               1
     1  N    0.965174
     2  O   -1.880876
     3  S    0.850488
     4  C    1.168232
     5  C   -3.808667
     6  H    1.281324
     7  H    1.172173
     8  H    1.281345
     9  C   -4.395495
    10  H    1.353500
    11  H    1.340727
    12  H    1.186719
    13  C   -4.395585
    14  H    1.353516
    15  H    1.186686
    16  H    1.340739
 Sum of Mulliken charges =   0.00000

 Dipole moment (field-independent basis, Debye):
    X=              1.4682    Y=             -1.2744    Z=              0.0002  Tot=              1.9441

 Test job not archived.
 1\1\GINC-SE226\SP\RHF\Aug-CC-pVDZ\C4H9N1O1S1\OHZDE\08-Apr-2025\0\\#t h
 f aug-cc-pvdz iop(5/13=1,5/36=2,99/5=2) pseudo=read geom=check guess=(
 read,tcheck) scf=(maxcycle=1)\\title\\0,1\N,0,-1.777702,0.461886,-0.00
 0168\O,0,-2.914463,0.142739,-0.000163\S,0,-0.565818,-0.927207,0.000053
 \C,0,0.989758,0.106144,0.000052\C,0,2.136961,-0.915467,-0.000009\H,0,2
 .10693,-1.554329,0.88596\H,0,3.093845,-0.383443,-0.000018\H,0,2.106884
 ,-1.554276,-0.886014\C,0,1.034796,0.971315,1.266425\H,0,1.004553,0.354
 527,2.167272\H,0,0.196318,1.668566,1.298144\H,0,1.963036,1.55272,1.280

 Normal termination of Gaussian 16 at Tue Apr  8 22:56:22 2025.
