 Gaussian 16, Revision C.01,

 ----------------------------------------------------------------------
 #t hf aug-cc-pvdz symm=none int=(grid=ultrafine) guess=(read,tcheck) s
 table=opt
 ----------------------------------------------------------------------
 -----
 title
 -----
 Symbolic Z-matrix:
 Charge =  0 Multiplicity = 2

 SCF Done:  E(UHF) =  -195.722554863     A.U. after   16 cycles
 Normal termination of Gaussian 16 at Tue Apr  8 22:46:57 2025.
 Gaussian 16:  ES64L-G16RevC.01  3-Jul-2019

 ----------------------------------------------------------------------
 #t hf aug-cc-pvdz iop(5/13=1,5/36=2,99/5=2) pseudo=read geom=check gue
 ss=(read,tcheck) scf=(maxcycle=1)
 ----------------------------------------------------------------------
 -----
 title
 -----
 Structure from the checkpoint file:  "BDE49_expt_1553_mol2.chk"
 Charge =  0 Multiplicity = 2

                         Standard orientation:
 ---------------------------------------------------------------------
 Center     Atomic      Atomic             Coordinates (Angstroms)
 Number     Number       Type             X           Y           Z
 ---------------------------------------------------------------------
      1          6           0       -2.134608   -0.728228   -0.175487
      2          6           0       -1.470399    0.547396    0.214121
      3          6           0       -0.015866    0.677972   -0.273117
      4          1           0       -1.507041    0.671404    1.303985
      5          1           0       -2.044483    1.400350   -0.189758
      6          6           0        0.948424   -0.316541    0.383521
      7          1           0        0.334292    1.699647   -0.083613
      8          1           0        0.008481    0.543990   -1.362417
      9          6           0        2.386783   -0.185921   -0.124224
     10          1           0        0.587289   -1.336537    0.211035
     11          1           0        0.928512   -0.168040    1.470326
     12          1           0        2.443512   -0.365902   -1.202461
     13          1           0        3.050534   -0.903021    0.366578
     14          1           0        2.784682    0.816508    0.063580
     15          1           0       -2.942212   -1.145290    0.413420
     16          1           0       -1.929570   -1.181184   -1.139556
 ---------------------------------------------------------------------

 SCF Done:  E(UHF) =  -196.730485870     A.U. after    2 cycles

 The electronic state is 2-A.
 Alpha  occ. eigenvalues --  -11.41495 -11.39930 -11.37899 -11.35934 -11.33847
 Alpha  occ. eigenvalues --   -1.25298  -1.11534  -0.97847  -0.86902  -0.80640
 Alpha  occ. eigenvalues --   -0.64486  -0.60479  -0.59455  -0.56715  -0.54014
 Alpha  occ. eigenvalues --   -0.49270  -0.48433  -0.44931  -0.44004  -0.42378
 Alpha  occ. eigenvalues --   -0.31003
 Alpha virt. eigenvalues --    0.04239   0.05169   0.05626   0.05727   0.05978
 Alpha virt. eigenvalues --    0.06270   0.06451   0.06662   0.07504   0.08605
 Alpha virt. eigenvalues --    0.09532   0.11951   0.13466   0.14176   0.14871

  Beta  occ. eigenvalues --  -11.41478 -11.39798 -11.37246 -11.34963 -11.33601
  Beta  occ. eigenvalues --   -1.24444  -1.09734  -0.95153  -0.84753  -0.79098
  Beta  occ. eigenvalues --   -0.64156  -0.59703  -0.57621  -0.56377  -0.53493
  Beta  occ. eigenvalues --   -0.48742  -0.47909  -0.44713  -0.43503  -0.41498
  Beta virt. eigenvalues --    0.04282   0.05222   0.05555   0.05763   0.05977
  Beta virt. eigenvalues --    0.06303   0.06454   0.06584   0.07243   0.08591
  Beta virt. eigenvalues --    0.09444   0.11001   0.12167   0.13726   0.14394

 Mulliken charges and spin densities:
               1          2
     1  C   -2.855022   1.524564
     2  C   -3.119513  -0.400022
     3  C   -2.522342   0.031413
     4  H    1.443832  -0.001498
     5  H    1.282634   0.020402
     6  C   -2.835483   0.020887
     7  H    1.390817  -0.001643
     8  H    1.541784  -0.010310
     9  C   -3.952855  -0.001492
    10  H    1.614755  -0.032541
    11  H    1.434439   0.001316
    12  H    1.290353   0.000937
    13  H    1.108118  -0.000445
    14  H    1.318742   0.001030
    15  H    1.422307  -0.072930
    16  H    1.437435  -0.079670
 Sum of Mulliken charges =  -0.00000   1.00000

 Dipole moment (field-independent basis, Debye):
    X=             -0.0487    Y=              0.1752    Z=              0.0663  Tot=              0.1936
                          Isotropic Fermi Contact Couplings
        Atom                 a.u.       MegaHertz       Gauss      10(-4) cm-1
     1  C(13)              0.12795     143.83743      51.32477      47.97900
     2  C(13)             -0.03679     -41.35871     -14.75782     -13.79578
     3  C(13)              0.01380      15.51273       5.53533       5.17449
     4  H(1)               0.00554      24.78390       8.84351       8.26702
     5  H(1)               0.02160      96.55965      34.45488      32.20883
     6  C(13)             -0.00039      -0.44126      -0.15745      -0.14719
     7  H(1)              -0.00083      -3.69463      -1.31833      -1.23239
     8  H(1)              -0.00063      -2.83824      -1.01276      -0.94674

 Normal termination of Gaussian 16 at Tue Apr  8 22:47:01 2025.
