 Gaussian 16, Revision C.01,

 ----------------------------------------------------------------------
 #t hf aug-cc-pvdz symm=none int=(grid=ultrafine) guess=(read,tcheck) s
 table=opt
 ----------------------------------------------------------------------
 -----
 title
 -----
 Symbolic Z-matrix:
 Charge =  0 Multiplicity = 2

 SCF Done:  E(UHF) =  -1029.91622157     A.U. after   24 cycles
 Normal termination of Gaussian 16 at Tue Apr  8 22:57:36 2025.
 Gaussian 16:  ES64L-G16RevC.01  3-Jul-2019

 ----------------------------------------------------------------------
 #t hf aug-cc-pvdz iop(5/13=1,5/36=2,99/5=2) pseudo=read geom=check gue
 ss=(read,tcheck) scf=(maxcycle=1)
 ----------------------------------------------------------------------
 -----
 title
 -----
 Structure from the checkpoint file:  "BDE49_expt_1721_mol2.chk"
 Charge =  0 Multiplicity = 2

                         Standard orientation:
 ---------------------------------------------------------------------
 Center     Atomic      Atomic             Coordinates (Angstroms)
 Number     Number       Type             X           Y           Z
 ---------------------------------------------------------------------
      1          6           0        0.982253   -0.366423   -0.136180
      2          8           0        0.689110   -1.506291    0.144319
      3          6           0        0.015467    0.751825   -0.070371
      4          8           0        2.205213    0.041348   -0.514617
      5         17           0        0.579406    2.350462    0.100655
      6          6           0        3.243466   -0.973304   -0.559629
      7          6           0        3.889728   -1.163427    0.802253
      8          1           0        3.953014   -0.588874   -1.291697
      9          1           0        2.806588   -1.902910   -0.926073
     10          1           0        4.280614   -0.216810    1.181637
     11          1           0        4.720428   -1.869830    0.718545
     12          1           0        3.172457   -1.565222    1.519646
     13          6           0       -1.460439    0.574858   -0.032770
     14          8           0       -2.212276    1.391018    0.445270
     15          8           0       -1.830562   -0.567800   -0.624458
     16          6           0       -3.246941   -0.888851   -0.598251
     17          6           0       -3.625799   -1.583446    0.698846
     18          1           0       -3.380827   -1.543520   -1.458767
     19          1           0       -3.816725    0.029785   -0.742974
     20          1           0       -2.999655   -2.463206    0.860104
     21          1           0       -4.670674   -1.903198    0.652734
     22          1           0       -3.513404   -0.907661    1.548216
 ---------------------------------------------------------------------

 SCF Done:  E(UHF) =  -1032.65537985     A.U. after    2 cycles

 The electronic state is 2-A.
 Alpha  occ. eigenvalues --  -99.91974 -21.09907 -21.09522 -21.07458 -21.06844
 Alpha  occ. eigenvalues --  -11.55941 -11.55004 -11.48216 -11.45392 -11.44920
 Alpha  occ. eigenvalues --  -11.37820 -11.37316 -10.49439  -9.69235  -9.68562
 Alpha  occ. eigenvalues --   -9.68543  -1.87173  -1.83815  -1.68807  -1.68323
 Alpha  occ. eigenvalues --   -1.38734  -1.16416  -1.14270  -1.09510  -0.94664
 Alpha  occ. eigenvalues --   -0.90287  -0.83261  -0.74393  -0.71428  -0.69744
 Alpha  occ. eigenvalues --   -0.67202  -0.63038  -0.62129  -0.60971  -0.59635
 Alpha  occ. eigenvalues --   -0.56573  -0.56112  -0.54107  -0.53691  -0.52423
 Alpha  occ. eigenvalues --   -0.51870  -0.51122  -0.50463  -0.49093  -0.44077
 Alpha  occ. eigenvalues --   -0.41387  -0.35816  -0.34498  -0.34107  -0.32178
 Alpha  occ. eigenvalues --   -0.30879
 Alpha virt. eigenvalues --    0.03419   0.04545   0.04786   0.05696   0.05792
 Alpha virt. eigenvalues --    0.05973   0.06154   0.06823   0.06984   0.07527
 Alpha virt. eigenvalues --    0.08038   0.09309   0.10497   0.11530   0.11813

  Beta  occ. eigenvalues --  -99.91909 -21.09969 -21.09533 -21.06513 -21.06115
  Beta  occ. eigenvalues --  -11.55801 -11.55517 -11.46608 -11.45394 -11.44914
  Beta  occ. eigenvalues --  -11.37818 -11.37312 -10.49371  -9.69499  -9.68514
  Beta  occ. eigenvalues --   -9.67989  -1.86945  -1.83718  -1.67319  -1.67125
  Beta  occ. eigenvalues --   -1.36876  -1.15451  -1.14239  -1.05391  -0.94607
  Beta  occ. eigenvalues --   -0.89728  -0.82950  -0.73923  -0.71281  -0.69192
  Beta  occ. eigenvalues --   -0.63924  -0.62794  -0.61202  -0.60961  -0.57605
  Beta  occ. eigenvalues --   -0.56358  -0.55511  -0.53836  -0.53092  -0.52263
  Beta  occ. eigenvalues --   -0.51424  -0.50540  -0.50026  -0.48919  -0.43412
  Beta  occ. eigenvalues --   -0.41193  -0.32768  -0.32227  -0.31126  -0.29819
  Beta virt. eigenvalues --    0.02343   0.03622   0.04578   0.04795   0.05741
  Beta virt. eigenvalues --    0.05849   0.05979   0.06195   0.06914   0.06993
  Beta virt. eigenvalues --    0.07853   0.08131   0.09470   0.10547   0.11592

 Mulliken charges and spin densities:
               1          2
     1  C    7.396684  -0.629569
     2  O   -3.415138   0.268898
     3  C   -2.706143   1.722904
     4  O   -3.564206  -0.021295
     5  Cl  -0.312501   0.048906
     6  C   -2.047979  -0.005924
     7  C   -3.881576   0.003517
     8  H    1.420008   0.000236
     9  H    1.708167  -0.000482
    10  H    1.437542  -0.000918
    11  H    1.152928  -0.000104
    12  H    1.254376   0.003672
    13  C    6.989309  -0.589878
    14  O   -3.199783   0.207297
    15  O   -3.326415  -0.004688
    16  C   -2.034557  -0.008189
    17  C   -3.904828   0.004869
    18  H    1.407517  -0.000542
    19  H    1.717895  -0.000359
    20  H    1.470398  -0.000547
    21  H    1.159591   0.000608
    22  H    1.278714   0.001590
 Sum of Mulliken charges =  -0.00000   1.00000

 Dipole moment (field-independent basis, Debye):
    X=              0.5384    Y=             -2.3491    Z=             -0.8762  Tot=              2.5644
                          Isotropic Fermi Contact Couplings
        Atom                 a.u.       MegaHertz       Gauss      10(-4) cm-1
     1  C(13)             -0.05074     -57.04548     -20.35524     -19.02832
     2  O(17)              0.05484     -33.24567     -11.86288     -11.08956
     3  C(13)              0.15220     171.09837      61.05215      57.07227
     4  O(17)             -0.01336       8.09656       2.88906       2.70072
     5  Cl(35)             0.04216      18.48664       6.59649       6.16648
     6  C(13)             -0.00044      -0.49760      -0.17756      -0.16598
     7  C(13)              0.00063       0.70685       0.25222       0.23578
     8  H(1)              -0.00010      -0.46167      -0.16473      -0.15400

 Normal termination of Gaussian 16 at Tue Apr  8 22:57:53 2025.
