 Gaussian 16, Revision C.01,

 ----------------------------------------------------------------------
 #t hf aug-cc-pvdz symm=none int=(grid=ultrafine) guess=(read,tcheck) s
 table=opt
 ----------------------------------------------------------------------
 -----
 title
 -----
 Symbolic Z-matrix:
 Charge =  0 Multiplicity = 2

 SCF Done:  E(UHF) =  -149.636300489     A.U. after   18 cycles
 Normal termination of Gaussian 16 at Tue Apr  8 22:52:33 2025.
 Gaussian 16:  ES64L-G16RevC.01  3-Jul-2019

 ----------------------------------------------------------------------
 #t hf aug-cc-pvdz iop(5/13=1,5/36=2,99/5=2) pseudo=read geom=check gue
 ss=(read,tcheck) scf=(maxcycle=1)
 ----------------------------------------------------------------------
 -----
 title
 -----
 Structure from the checkpoint file:  "BDE49_expt_1749_mol2.chk"
 Charge =  0 Multiplicity = 2

                         Standard orientation:
 ---------------------------------------------------------------------
 Center     Atomic      Atomic             Coordinates (Angstroms)
 Number     Number       Type             X           Y           Z
 ---------------------------------------------------------------------
      1          7           0        1.133378    0.199966    0.086943
      2          7           0        0.062110   -0.615970   -0.037986
      3          1           0        1.062402    1.150029   -0.280109
      4          1           0        2.001484   -0.260573   -0.149212
      5          6           0       -1.159169    0.156774    0.005398
      6          1           0       -1.168591    0.967258   -0.745371
      7          1           0       -1.306712    0.620394    0.992822
      8          1           0       -2.001986   -0.505726   -0.193214
 ---------------------------------------------------------------------

 SCF Done:  E(UHF) =  -150.333037599     A.U. after    2 cycles

 The electronic state is 2-A.
 Alpha  occ. eigenvalues --  -15.77002 -15.74752 -11.37880  -1.49539  -1.13847
 Alpha  occ. eigenvalues --   -0.90637  -0.69670  -0.64207  -0.61209  -0.52596
 Alpha  occ. eigenvalues --   -0.49179  -0.40548  -0.28429
 Alpha virt. eigenvalues --    0.03821   0.05183   0.06039   0.06544   0.07466
 Alpha virt. eigenvalues --    0.11083   0.15267   0.16027   0.16143   0.17039
 Alpha virt. eigenvalues --    0.18511   0.20587   0.21957   0.22273   0.23025

  Beta  occ. eigenvalues --  -15.76459 -15.71729 -11.38168  -1.44822  -1.11316
  Beta  occ. eigenvalues --   -0.86519  -0.69163  -0.60584  -0.57647  -0.52073
  Beta  occ. eigenvalues --   -0.41599  -0.37039
  Beta virt. eigenvalues --    0.03874   0.05198   0.06006   0.06447   0.07474
  Beta virt. eigenvalues --    0.11141   0.13199   0.15475   0.16146   0.16905
  Beta virt. eigenvalues --    0.17513   0.18810   0.20712   0.21939   0.22304

 Mulliken charges and spin densities:
               1          2
     1  N   -1.199339   0.093833
     2  N   -1.046108   1.002998
     3  H    0.638117   0.004654
     4  H    0.754759  -0.013983
     5  C   -2.958431  -0.159950
     6  H    1.243141   0.029828
     7  H    1.274864   0.034939
     8  H    1.292996   0.007681
 Sum of Mulliken charges =  -0.00000   1.00000

 Dipole moment (field-independent basis, Debye):
    X=              0.3708    Y=              1.3916    Z=             -0.6681  Tot=              1.5876
                          Isotropic Fermi Contact Couplings
        Atom                 a.u.       MegaHertz       Gauss      10(-4) cm-1
     1  N(14)              0.04644      15.00395       5.35378       5.00478
     2  N(14)              0.22955      74.16804      26.46500      24.73980
     3  H(1)               0.00301      13.43350       4.79341       4.48093
     4  H(1)              -0.00050      -2.22196      -0.79285      -0.74117
     5  C(13)             -0.02869     -32.25717     -11.51016     -10.75983
     6  H(1)               0.01076      48.10616      17.16548      16.04649
     7  H(1)               0.01513      67.61767      24.12767      22.55483
     8  H(1)               0.00089       3.96092       1.41336       1.32122

 Normal termination of Gaussian 16 at Tue Apr  8 22:52:35 2025.
