 Gaussian 16, Revision C.01,

 ----------------------------------------------------------------------
 #t hf aug-cc-pvdz symm=none int=(grid=ultrafine) guess=(read,tcheck) s
 table=(opt,rrhf)
 ----------------------------------------------------------------------
 -----
 title
 -----
 Symbolic Z-matrix:
 Charge =  0 Multiplicity = 1

 SCF Done:  E(RHF) =  -515.994435220     A.U. after   15 cycles
 Normal termination of Gaussian 16 at Wed Apr  9 00:40:29 2025.
 Gaussian 16:  ES64L-G16RevC.01  3-Jul-2019

 ----------------------------------------------------------------------
 #t hf aug-cc-pvdz iop(5/13=1,5/36=2,99/5=2) pseudo=read geom=check gue
 ss=(read,tcheck) scf=(maxcycle=1)
 ----------------------------------------------------------------------
 -----
 title
 -----
 Structure from the checkpoint file:  "BDE49_nonexpt_596_mol1.chk"
 Charge =  0 Multiplicity = 1

                         Standard orientation:
 ---------------------------------------------------------------------
 Center     Atomic      Atomic             Coordinates (Angstroms)
 Number     Number       Type             X           Y           Z
 ---------------------------------------------------------------------
      1          6           0        2.087010   -1.667627    0.257858
      2          6           0        0.711282   -1.788379    0.100071
      3          6           0        2.721203   -0.433221    0.177560
      4          6           0        1.965052    0.716327   -0.093756
      5          6           0        0.578549    0.596956   -0.269875
      6          6           0       -0.060603   -0.645832   -0.158892
      7          1           0        0.007614    1.472072   -0.561072
      8          1           0        3.794009   -0.354982    0.316476
      9          1           0        2.678221   -2.554714    0.458090
     10          1           0        0.227521   -2.754441    0.190717
     11          5           0       -2.482322    0.165642    0.038296
     12          8           0       -3.767544   -0.187390   -0.287110
     13          8           0       -2.267827    1.356297    0.689257
     14          7           0        2.573542    1.970173   -0.150191
     15          1           0        3.557125    1.958776   -0.376397
     16          1           0        2.073039    2.670098   -0.678192
     17          1           0       -4.399515    0.458046    0.041221
     18          1           0       -1.363651    1.461336    1.001251
     19          7           0       -1.449509   -0.759885   -0.318003
     20          1           0       -1.762978   -1.677019   -0.601181
 ---------------------------------------------------------------------

 SCF Done:  E(RHF) =  -518.319452318     A.U. after    2 cycles

 The electronic state is 1-A.
 Alpha  occ. eigenvalues --  -21.05327 -21.04771 -15.76265 -15.71972 -11.52979
 Alpha  occ. eigenvalues --  -11.47295 -11.44128 -11.40405 -11.40094 -11.36084
 Alpha  occ. eigenvalues --   -7.64906  -1.82150  -1.65369  -1.43813  -1.36328
 Alpha  occ. eigenvalues --   -1.22996  -1.07882  -1.04757  -0.87848  -0.85736
 Alpha  occ. eigenvalues --   -0.77552  -0.70857  -0.68935  -0.67918  -0.65383
 Alpha  occ. eigenvalues --   -0.61604  -0.58054  -0.57222  -0.55933  -0.53043
 Alpha  occ. eigenvalues --   -0.50827  -0.47728  -0.46483  -0.44054  -0.42293
 Alpha  occ. eigenvalues --   -0.39123  -0.38468  -0.35917  -0.30097  -0.26753
 Alpha virt. eigenvalues --    0.03208   0.04443   0.04597   0.05234   0.05441
 Alpha virt. eigenvalues --    0.05760   0.06610   0.07848   0.08283   0.08612
 Alpha virt. eigenvalues --    0.09276   0.09545   0.10448   0.11996   0.12315

 Mulliken charges:
               1
     1  C    1.049912
     2  C   -3.820665
     3  C   -3.415806
     4  C    3.357714
     5  C   -2.150070
     6  C    5.385961
     7  H    1.924135
     8  H    1.725285
     9  H    1.509534
    10  H    1.775882
    11  B    7.032409
    12  O   -4.265577
    13  O   -4.348353
    14  N   -4.079957
    15  H    0.626980
    16  H    0.646609
    17  H    0.992758
    18  H    1.571367
    19  N   -6.622867
    20  H    1.104749
 Sum of Mulliken charges =  -0.00000

 Dipole moment (field-independent basis, Debye):
    X=              1.1348    Y=              0.7154    Z=             -0.5913  Tot=              1.4660

 Test job not archived.
 1\1\GINC-SE365\SP\RHF\Aug-CC-pVDZ\C6H9B1N2O2\OHZDE\09-Apr-2025\0\\#t h
 f aug-cc-pvdz iop(5/13=1,5/36=2,99/5=2) pseudo=read geom=check guess=(
 read,tcheck) scf=(maxcycle=1)\\title\\0,1\C,0,-2.08701,1.667627,0.2578
 58\C,0,-0.711282,1.788379,0.100071\C,0,-2.721203,0.433221,0.17756\C,0,
 -1.965052,-0.716327,-0.093756\C,0,-0.578549,-0.596956,-0.269875\C,0,0.
 060603,0.645832,-0.158892\H,0,-0.007614,-1.472072,-0.561072\H,0,-3.794
 009,0.354982,0.316476\H,0,-2.678221,2.554714,0.45809\H,0,-0.227521,2.7
 54441,0.190717\B,0,2.482322,-0.165642,0.038296\O,0,3.767544,0.18739,-0

 Normal termination of Gaussian 16 at Wed Apr  9 00:40:39 2025.
