 Gaussian 16, Revision C.01,

 ----------------------------------------------------------------------
 #t hf aug-cc-pvdz symm=none int=(grid=ultrafine) guess=(read,tcheck) s
 table=(opt,rrhf)
 ----------------------------------------------------------------------
 -----
 title
 -----
 Symbolic Z-matrix:
 Charge =  0 Multiplicity = 1

 SCF Done:  E(RHF) =  -815.403960086     A.U. after   17 cycles
 Normal termination of Gaussian 16 at Wed Apr  9 00:02:41 2025.
 Gaussian 16:  ES64L-G16RevC.01  3-Jul-2019

 ----------------------------------------------------------------------
 #t hf aug-cc-pvdz iop(5/13=1,5/36=2,99/5=2) pseudo=read geom=check gue
 ss=(read,tcheck) scf=(maxcycle=1)
 ----------------------------------------------------------------------
 -----
 title
 -----
 Structure from the checkpoint file:  "BDE49_nonexpt_2112_mol1.chk"
 Charge =  0 Multiplicity = 1

                         Standard orientation:
 ---------------------------------------------------------------------
 Center     Atomic      Atomic             Coordinates (Angstroms)
 Number     Number       Type             X           Y           Z
 ---------------------------------------------------------------------
      1         14           0        0.329101    0.187476   -0.896336
      2          7           0        0.023850    1.613130    0.254751
      3          7           0        1.609041   -0.846594   -0.018324
      4          8           0        0.403559    1.670510    1.409722
      5          8           0       -0.669220    2.461325   -0.317249
      6          8           0        2.682452   -0.287391    0.177946
      7          8           0        1.344940   -2.005669    0.286957
      8          6           0       -1.258264   -0.727252   -1.196096
      9          6           0       -2.341639   -0.666535   -0.094809
     10          1           0       -0.969716   -1.767700   -1.390984
     11          1           0       -1.655627   -0.331540   -2.137921
     12          6           0       -1.930748   -1.299571    1.237540
     13          1           0       -3.229510   -1.177236   -0.480029
     14          1           0       -2.635869    0.375704    0.061138
     15          1           0       -1.623624   -2.340032    1.107306
     16          1           0       -2.766130   -1.278276    1.941283
     17          1           0       -1.099283   -0.767564    1.708180
     18          1           0        1.032165    0.746176   -2.054074
 ---------------------------------------------------------------------

 SCF Done:  E(RHF) =  -817.856752343     A.U. after    2 cycles

 The electronic state is 1-A.
 Alpha  occ. eigenvalues --  -76.33081 -21.12554 -21.11677 -21.11552 -21.11517
 Alpha  occ. eigenvalues --  -15.98961 -15.98532 -11.45672 -11.41334 -11.37804
 Alpha  occ. eigenvalues --   -5.66953  -2.31615  -2.31441  -2.29591  -1.99862
 Alpha  occ. eigenvalues --   -1.99370  -1.70920  -1.70310  -1.24153  -1.08204
 Alpha  occ. eigenvalues --   -1.02287  -0.98167  -0.87725  -0.76778  -0.71794
 Alpha  occ. eigenvalues --   -0.68801  -0.68342  -0.65448  -0.64118  -0.62684
 Alpha  occ. eigenvalues --   -0.62039  -0.60968  -0.58617  -0.53561  -0.49547
 Alpha  occ. eigenvalues --   -0.48868  -0.46207  -0.36716  -0.34467  -0.34394
 Alpha  occ. eigenvalues --   -0.33082  -0.32477  -0.32064
 Alpha virt. eigenvalues --    0.02801   0.04209   0.04666   0.05338   0.05991
 Alpha virt. eigenvalues --    0.06044   0.06586   0.07577   0.07824   0.08743
 Alpha virt. eigenvalues --    0.08802   0.10057   0.11059   0.12528   0.12843

 Mulliken charges:
               1
     1  Si   5.883447
     2  N    3.419300
     3  N    3.730438
     4  O   -2.332724
     5  O   -2.335524
     6  O   -2.483390
     7  O   -2.281289
     8  C   -3.764564
     9  C   -3.050024
    10  H    1.448696
    11  H    1.322412
    12  C   -3.827735
    13  H    1.312837
    14  H    1.487671
    15  H    1.334643
    16  H    1.177406
    17  H    1.413184
    18  H   -2.454783
 Sum of Mulliken charges =   0.00000

 Dipole moment (field-independent basis, Debye):
    X=             -2.5336    Y=             -1.2359    Z=             -1.7257  Tot=              3.3052

 Test job not archived.
 1\1\GINC-SE222\SP\RHF\Aug-CC-pVDZ\C3H8N2O4Si1\OHZDE\09-Apr-2025\0\\#t
 hf aug-cc-pvdz iop(5/13=1,5/36=2,99/5=2) pseudo=read geom=check guess=
 (read,tcheck) scf=(maxcycle=1)\\title\\0,1\Si,0,0.329101,0.187476,-0.8
 96336\N,0,0.023849,1.61313,0.254751\N,0,1.609042,-0.846593,-0.018324\O
 ,0,0.403558,1.67051,1.409722\O,0,-0.669222,2.461325,-0.317249\O,0,2.68
 2452,-0.287389,0.177946\O,0,1.344941,-2.005668,0.286957\C,0,-1.258263,
 -0.727253,-1.196096\C,0,-2.341638,-0.666536,-0.094809\H,0,-0.969715,-1
 .767701,-1.390984\H,0,-1.655627,-0.331541,-2.137921\C,0,-1.930747,-1.2

 Normal termination of Gaussian 16 at Wed Apr  9 00:02:51 2025.
