 Gaussian 16, Revision C.01,

 ----------------------------------------------------------------------
 #t hf aug-cc-pvdz symm=none int=(grid=ultrafine) guess=(read,tcheck) s
 table=(opt,rrhf)
 ----------------------------------------------------------------------
 -----
 title
 -----
 Symbolic Z-matrix:
 Charge =  0 Multiplicity = 1

 SCF Done:  E(RHF) =  -563.472862934     A.U. after   13 cycles
 Normal termination of Gaussian 16 at Tue Apr  8 22:37:34 2025.
 Gaussian 16:  ES64L-G16RevC.01  3-Jul-2019

 ----------------------------------------------------------------------
 #t hf aug-cc-pvdz iop(5/13=1,5/36=2,99/5=2) pseudo=read geom=check gue
 ss=(read,tcheck) scf=(maxcycle=1)
 ----------------------------------------------------------------------
 -----
 title
 -----
 Structure from the checkpoint file:  "BDE49_expt_1128_mol1.chk"
 Charge =  0 Multiplicity = 1

                         Standard orientation:
 ---------------------------------------------------------------------
 Center     Atomic      Atomic             Coordinates (Angstroms)
 Number     Number       Type             X           Y           Z
 ---------------------------------------------------------------------
      1          6           0        0.472379    0.407321   -0.000043
      2          8           0        0.775931    1.565405   -0.000015
      3          8           0        1.294444   -0.637512   -0.000010
      4          6           0       -0.993060   -0.089210   -0.000000
      5          6           0        2.705941   -0.324898    0.000012
      6          1           0        3.211887   -1.286315    0.000042
      7          1           0        2.961879    0.249673    0.890590
      8          1           0        2.961914    0.249637   -0.890578
      9          9           0       -1.833035    0.945466    0.000028
     10          9           0       -1.239639   -0.839140   -1.088563
     11          9           0       -1.239575   -0.839149    1.088572
 ---------------------------------------------------------------------

 SCF Done:  E(RHF) =  -565.604105822     A.U. after    2 cycles

 The electronic state is 1-A.
 Alpha  occ. eigenvalues --  -29.32713 -29.32678 -29.32450 -21.12915 -21.09542
 Alpha  occ. eigenvalues --  -11.63096 -11.54670 -11.44302  -1.88296  -1.70969
 Alpha  occ. eigenvalues --   -1.42811  -1.06711  -0.90803  -0.90621  -0.89289
 Alpha  occ. eigenvalues --   -0.73670  -0.65920  -0.60756  -0.60101  -0.55019
 Alpha  occ. eigenvalues --   -0.50096  -0.47152  -0.45290  -0.44453  -0.39532
 Alpha  occ. eigenvalues --   -0.37920  -0.36775  -0.34662  -0.28575  -0.27224
 Alpha  occ. eigenvalues --   -0.25935  -0.22778
 Alpha virt. eigenvalues --    0.03268   0.05586   0.05981   0.08460   0.10036
 Alpha virt. eigenvalues --    0.12353   0.12749   0.13049   0.13322   0.13981
 Alpha virt. eigenvalues --    0.15175   0.15834   0.17424   0.17509   0.17807

 Mulliken charges:
               1
     1  C    3.070657
     2  O   -2.685523
     3  O   -2.646713
     4  C    0.204390
     5  C   -3.002940
     6  H    1.375692
     7  H    1.260012
     8  H    1.260016
     9  F    0.487362
    10  F    0.338524
    11  F    0.338522
 Sum of Mulliken charges =   0.00000

 Dipole moment (field-independent basis, Debye):
    X=             -0.1231    Y=             -1.6396    Z=              0.0001  Tot=              1.6442

 Test job not archived.
 1\1\GINC-SE252\SP\RHF\Aug-CC-pVDZ\C3H3F3O2\OHZDE\08-Apr-2025\0\\#t hf
 aug-cc-pvdz iop(5/13=1,5/36=2,99/5=2) pseudo=read geom=check guess=(re
 ad,tcheck) scf=(maxcycle=1)\\title\\0,1\C,0,0.472379,0.407321,-0.00004
 3\O,0,0.775931,1.565405,-0.000015\O,0,1.294444,-0.637512,-0.00001\C,0,
 -0.99306,-0.08921,0.\C,0,2.705941,-0.324898,0.000012\H,0,3.211887,-1.2
 86315,0.000042\H,0,2.961879,0.249673,0.89059\H,0,2.961914,0.249637,-0.
 890578\F,0,-1.833035,0.945466,0.000028\F,0,-1.239639,-0.83914,-1.08856
 3\F,0,-1.239575,-0.839149,1.088572\\Version=ES64L-G16RevC.01\State=1-A

 Normal termination of Gaussian 16 at Tue Apr  8 22:37:38 2025.
