 Gaussian 16, Revision C.01,

 ----------------------------------------------------------------------
 #t hf aug-cc-pvdz symm=none int=(grid=ultrafine) guess=(read,tcheck) s
 table=(opt,rrhf)
 ----------------------------------------------------------------------
 -----
 title
 -----
 Symbolic Z-matrix:
 Charge =  0 Multiplicity = 1

 SCF Done:  E(RHF) =  -1203.60304251     A.U. after   15 cycles
 Normal termination of Gaussian 16 at Tue Apr  8 22:52:23 2025.
 Gaussian 16:  ES64L-G16RevC.01  3-Jul-2019

 ----------------------------------------------------------------------
 #t hf aug-cc-pvdz iop(5/13=1,5/36=2,99/5=2) pseudo=read geom=check gue
 ss=(read,tcheck) scf=(maxcycle=1)
 ----------------------------------------------------------------------
 -----
 title
 -----
 Structure from the checkpoint file:  "BDE49_expt_1729_mol1.chk"
 Charge =  0 Multiplicity = 1

                         Standard orientation:
 ---------------------------------------------------------------------
 Center     Atomic      Atomic             Coordinates (Angstroms)
 Number     Number       Type             X           Y           Z
 ---------------------------------------------------------------------
      1          6           0        2.376384    0.968970   -0.000000
      2          6           0        1.375476    0.005258   -0.000000
      3          7           0        2.142690    2.287379   -0.000000
      4          6           0        0.868686    2.679157   -0.000000
      5          6           0       -0.211194    1.796092   -0.000000
      6          6           0        0.045623    0.427475   -0.000000
      7          1           0        3.420344    0.670104   -0.000000
      8          1           0        1.625838   -1.048369   -0.000000
      9          1           0        0.695027    3.751456   -0.000000
     10          1           0       -1.226285    2.176927   -0.000000
     11          6           0       -1.104615   -0.539198    0.000000
     12         17           0       -1.104615   -1.575413    1.480985
     13         17           0       -1.104615   -1.575413   -1.480985
     14          1           0       -2.058980   -0.024247    0.000000
 ---------------------------------------------------------------------

 SCF Done:  E(RHF) =  -1205.43376661     A.U. after    2 cycles

 The electronic state is 1-A'.
 Alpha  occ. eigenvalues --  -99.90754 -99.90750 -15.75247 -11.53223 -11.50392
 Alpha  occ. eigenvalues --  -11.46531 -11.45960 -11.43675 -11.39691 -10.48087
 Alpha  occ. eigenvalues --  -10.47942  -9.67987  -9.67950  -9.67269  -9.67194
 Alpha  occ. eigenvalues --   -9.67118  -9.67102  -1.47780  -1.39675  -1.29105
 Alpha  occ. eigenvalues --   -1.21624  -1.13086  -1.02289  -0.91197  -0.87515
 Alpha  occ. eigenvalues --   -0.74459  -0.70264  -0.67517  -0.66435  -0.61345
 Alpha  occ. eigenvalues --   -0.61114  -0.59832  -0.55444  -0.53156  -0.51834
 Alpha  occ. eigenvalues --   -0.50024  -0.48658  -0.47970  -0.38234  -0.37472
 Alpha  occ. eigenvalues --   -0.35519
 Alpha virt. eigenvalues --    0.02678   0.03524   0.05058   0.05599   0.05836
 Alpha virt. eigenvalues --    0.06161   0.06734   0.09204   0.09397   0.10017
 Alpha virt. eigenvalues --    0.10777   0.11240   0.11825   0.12751   0.13016

 Mulliken charges:
               1
     1  C   -0.614326
     2  C   -2.288150
     3  N   -3.858039
     4  C   -1.039900
     5  C   -3.106116
     6  C    7.286256
     7  H    1.517771
     8  H    1.659254
     9  H    1.519751
    10  H    1.624306
    11  C   -4.835089
    12  Cl   0.241731
    13  Cl   0.241731
    14  H    1.650819
 Sum of Mulliken charges =  -0.00000

 Dipole moment (field-independent basis, Debye):
    X=             -0.5729    Y=              1.1872    Z=             -0.0000  Tot=              1.3182

 Test job not archived.
 1\1\GINC-SE080\SP\RHF\Aug-CC-pVDZ\C6H5Cl2N1\OHZDE\08-Apr-2025\0\\#t hf
  aug-cc-pvdz iop(5/13=1,5/36=2,99/5=2) pseudo=read geom=check guess=(r
 ead,tcheck) scf=(maxcycle=1)\\title\\0,1\C,0,2.376384,0.96897,0.\C,0,1
 .375476,0.005258,0.\N,0,2.14269,2.287379,0.\C,0,0.868686,2.679157,0.\C
 ,0,-0.211194,1.796092,0.\C,0,0.045623,0.427475,0.\H,0,3.420344,0.67010
 4,0.\H,0,1.625838,-1.048369,0.\H,0,0.695027,3.751456,0.\H,0,-1.226285,
 2.176927,0.\C,0,-1.104615,-0.539198,0.\Cl,0,-1.104615,-1.575413,1.4809
 85\Cl,0,-1.104615,-1.575413,-1.480985\H,0,-2.05898,-0.024247,0.\\Versi

 Normal termination of Gaussian 16 at Tue Apr  8 22:52:29 2025.
