 Gaussian 16, Revision C.01,

 ----------------------------------------------------------------------
 #t hf aug-cc-pvdz symm=none int=(grid=ultrafine) guess=(read,tcheck) s
 table=(opt,rrhf)
 ----------------------------------------------------------------------
 -----
 title
 -----
 Symbolic Z-matrix:
 Charge =  0 Multiplicity = 1

 SCF Done:  E(RHF) =  -295.335670431     A.U. after   14 cycles
 Normal termination of Gaussian 16 at Wed Apr  9 00:29:56 2025.
 Gaussian 16:  ES64L-G16RevC.01  3-Jul-2019

 ----------------------------------------------------------------------
 #t hf aug-cc-pvdz iop(5/13=1,5/36=2,99/5=2) pseudo=read geom=check gue
 ss=(read,tcheck) scf=(maxcycle=1)
 ----------------------------------------------------------------------
 -----
 title
 -----
 Structure from the checkpoint file:  "BDE49_nonexpt_316_mol1.chk"
 Charge =  0 Multiplicity = 1

                         Standard orientation:
 ---------------------------------------------------------------------
 Center     Atomic      Atomic             Coordinates (Angstroms)
 Number     Number       Type             X           Y           Z
 ---------------------------------------------------------------------
      1          6           0        0.296288   -0.009756    0.229039
      2          5           0       -1.256776    0.008460   -0.095986
      3          6           0       -1.994611   -1.366592   -0.263147
      4          1           0       -1.444213   -2.099255   -0.862368
      5          1           0       -3.014252   -1.280555   -0.647655
      6          1           0       -2.064669   -1.803720    0.744227
      7          8           0        0.518851   -0.099763    1.431379
      8          6           0        1.420459    0.069810   -0.788682
      9          6           0       -2.011245    1.383633   -0.117803
     10          1           0       -2.008849    1.733775   -1.162670
     11          1           0       -1.528018    2.167028    0.471682
     12          1           0       -3.062681    1.307361    0.174575
     13          6           0        2.821108    0.006565   -0.182798
     14          1           0        1.274212    0.997067   -1.360528
     15          1           0        1.261990   -0.737582   -1.516966
     16          1           0        2.975374    0.821735    0.526602
     17          1           0        3.584839    0.075360   -0.960890
     18          1           0        2.967344   -0.927366    0.363238
 ---------------------------------------------------------------------

 SCF Done:  E(RHF) =  -296.755551072     A.U. after    2 cycles

 The electronic state is 1-A.
 Alpha  occ. eigenvalues --  -21.04254 -11.46978 -11.40240 -11.36196 -11.34404
 Alpha  occ. eigenvalues --  -11.33824  -7.60980  -1.69563  -1.18815  -1.13937
 Alpha  occ. eigenvalues --   -1.01698  -0.95170  -0.80538  -0.67807  -0.62748
 Alpha  occ. eigenvalues --   -0.60297  -0.56462  -0.55585  -0.55316  -0.53818
 Alpha  occ. eigenvalues --   -0.51785  -0.49760  -0.47881  -0.44461  -0.42525
 Alpha  occ. eigenvalues --   -0.37912  -0.25594
 Alpha virt. eigenvalues --    0.02906   0.04259   0.04575   0.04845   0.06003
 Alpha virt. eigenvalues --    0.06541   0.06747   0.07210   0.08224   0.08305
 Alpha virt. eigenvalues --    0.08457   0.09110   0.09620   0.10271   0.11248

 Mulliken charges:
               1
     1  C    0.444249
     2  B    8.403220
     3  C   -6.299453
     4  H    0.876222
     5  H    1.409708
     6  H    1.023846
     7  O   -2.784582
     8  C   -3.121255
     9  C   -6.318849
    10  H    1.111227
    11  H    1.044358
    12  H    1.348597
    13  C   -3.755294
    14  H    1.518772
    15  H    1.388515
    16  H    1.315052
    17  H    1.090027
    18  H    1.305639
 Sum of Mulliken charges =  -0.00000

 Dipole moment (field-independent basis, Debye):
    X=             -0.3807    Y=              0.0746    Z=             -1.1321  Tot=              1.1967

 Test job not archived.
 1\1\GINC-SE177\SP\RHF\Aug-CC-pVDZ\C5H11B1O1\OHZDE\09-Apr-2025\0\\#t hf
  aug-cc-pvdz iop(5/13=1,5/36=2,99/5=2) pseudo=read geom=check guess=(r
 ead,tcheck) scf=(maxcycle=1)\\title\\0,1\C,0,0.296288,-0.009756,0.2290
 39\B,0,-1.256776,0.00846,-0.095986\C,0,-1.994611,-1.366592,-0.263147\H
 ,0,-1.444213,-2.099255,-0.862368\H,0,-3.014252,-1.280555,-0.647655\H,0
 ,-2.064669,-1.80372,0.744227\O,0,0.518851,-0.099763,1.431379\C,0,1.420
 459,0.06981,-0.788682\C,0,-2.011245,1.383633,-0.117803\H,0,-2.008849,1
 .733775,-1.16267\H,0,-1.528018,2.167028,0.471682\H,0,-3.062681,1.30736

 Normal termination of Gaussian 16 at Wed Apr  9 00:30:03 2025.
