 Gaussian 16, Revision C.01,

 ----------------------------------------------------------------------
 #t hf aug-cc-pvdz symm=none int=(grid=ultrafine) guess=(read,tcheck) s
 table=(opt,rrhf)
 ----------------------------------------------------------------------
 -----
 title
 -----
 Symbolic Z-matrix:
 Charge =  0 Multiplicity = 1

 SCF Done:  E(RHF) =  -670.137938165     A.U. after   13 cycles
 Normal termination of Gaussian 16 at Tue Apr  8 23:39:09 2025.
 Gaussian 16:  ES64L-G16RevC.01  3-Jul-2019

 ----------------------------------------------------------------------
 #t hf aug-cc-pvdz iop(5/13=1,5/36=2,99/5=2) pseudo=read geom=check gue
 ss=(read,tcheck) scf=(maxcycle=1)
 ----------------------------------------------------------------------
 -----
 title
 -----
 Structure from the checkpoint file:  "BDE49_nonexpt_1569_mol1.chk"
 Charge =  0 Multiplicity = 1

                         Standard orientation:
 ---------------------------------------------------------------------
 Center     Atomic      Atomic             Coordinates (Angstroms)
 Number     Number       Type             X           Y           Z
 ---------------------------------------------------------------------
      1         15           0       -0.637455   -0.024212    0.554092
      2          7           0        1.040868   -0.043751    0.645450
      3          9           0       -0.979432   -1.102248   -0.599752
      4          9           0       -0.765291    1.263950   -0.406847
      5          8           0        1.802722   -0.113353   -0.554852
      6          1           0        2.117694    0.791624   -0.668355
      7          1           0        1.438791   -0.670696    1.337024
 ---------------------------------------------------------------------

 SCF Done:  E(RHF) =  -671.556834546     A.U. after    2 cycles

 The electronic state is 1-A.
 Alpha  occ. eigenvalues -- -105.30522 -29.28783 -29.28246 -21.12484 -15.79669
 Alpha  occ. eigenvalues --   -2.90979  -1.80846  -1.65461  -1.63311  -1.58736
 Alpha  occ. eigenvalues --   -1.15025  -0.87531  -0.65579  -0.62193  -0.56347
 Alpha  occ. eigenvalues --   -0.49508  -0.42983  -0.40488  -0.39232  -0.34843
 Alpha  occ. eigenvalues --   -0.32348  -0.26791  -0.24886  -0.19650  -0.01081
 Alpha virt. eigenvalues --    0.04471   0.06122   0.09192   0.10371   0.12644
 Alpha virt. eigenvalues --    0.15856   0.17241   0.17728   0.19185   0.20287
 Alpha virt. eigenvalues --    0.21168   0.23109   0.24356   0.26047   0.26912

 Mulliken charges:
               1
     1  P    1.786687
     2  N   -0.309614
     3  F   -0.169325
     4  F   -0.313755
     5  O   -2.039805
     6  H    0.714008
     7  H    0.331803
 Sum of Mulliken charges =  -0.00000

 Dipole moment (field-independent basis, Debye):
    X=             -0.3180    Y=              1.2150    Z=             -7.2461  Tot=              7.3541

 Test job not archived.
 1\1\GINC-SE212\SP\RHF\Aug-CC-pVDZ\F2H2N1O1P1\OHZDE\08-Apr-2025\0\\#t h
 f aug-cc-pvdz iop(5/13=1,5/36=2,99/5=2) pseudo=read geom=check guess=(
 read,tcheck) scf=(maxcycle=1)\\title\\0,1\P,0,-0.637455,-0.024212,0.55
 4092\N,0,1.040868,-0.043751,0.64545\F,0,-0.979432,-1.102248,-0.599752\
 F,0,-0.765291,1.26395,-0.406847\O,0,1.802722,-0.113353,-0.554852\H,0,2
 .117694,0.791623,-0.668355\H,0,1.438791,-0.670696,1.337024\\Version=ES
 64L-G16RevC.01\State=1-A\HF=-671.5568345\RMSD=6.819e-02\Dipole=-0.1250
 947,0.4780153,-2.8508291\Quadrupole=2.1433716,6.8081073,-8.9514788,0.8

 Normal termination of Gaussian 16 at Tue Apr  8 23:39:11 2025.
