 Gaussian 16, Revision C.01,

 ----------------------------------------------------------------------
 #t hf aug-cc-pvdz symm=none int=(grid=ultrafine) guess=(read,tcheck) s
 table=(opt,rrhf)
 ----------------------------------------------------------------------
 -----
 title
 -----
 Symbolic Z-matrix:
 Charge =  0 Multiplicity = 1

 SCF Done:  E(RHF) =  -1090.00005599     A.U. after   14 cycles
 Normal termination of Gaussian 16 at Wed Apr  9 00:09:39 2025.
 Gaussian 16:  ES64L-G16RevC.01  3-Jul-2019

 ----------------------------------------------------------------------
 #t hf aug-cc-pvdz iop(5/13=1,5/36=2,99/5=2) pseudo=read geom=check gue
 ss=(read,tcheck) scf=(maxcycle=1)
 ----------------------------------------------------------------------
 -----
 title
 -----
 Structure from the checkpoint file:  "BDE49_nonexpt_2270_mol1.chk"
 Charge =  0 Multiplicity = 1

                         Standard orientation:
 ---------------------------------------------------------------------
 Center     Atomic      Atomic             Coordinates (Angstroms)
 Number     Number       Type             X           Y           Z
 ---------------------------------------------------------------------
      1          6           0        2.006211   -0.000000    0.109177
      2          6           0        1.316640    1.202408    0.004426
      3          6           0       -0.056674    1.198465   -0.205634
      4          6           0        1.316641   -1.202408    0.004426
      5          6           0       -0.056673   -1.198465   -0.205634
      6          6           0       -0.765401   -0.000000   -0.318250
      7          9           0        3.326266    0.000001    0.313015
      8          9           0        1.976366    2.359640    0.108358
      9          9           0       -0.710852    2.362183   -0.300748
     10          9           0        1.976367   -2.359639    0.108358
     11          9           0       -0.710851   -2.362183   -0.300747
     12          8           0       -2.090975   -0.000001   -0.588227
     13         14           0       -3.380307   -0.000000    0.481273
     14          1           0       -4.571542   -0.000003   -0.381985
     15          1           0       -3.328249    1.206850    1.332395
     16          1           0       -3.328246   -1.206846    1.332400
 ---------------------------------------------------------------------

 SCF Done:  E(RHF) =  -1093.16395627     A.U. after    2 cycles

 The electronic state is 1-A.
 Alpha  occ. eigenvalues --  -76.26732 -29.32688 -29.32619 -29.32579 -29.32437
 Alpha  occ. eigenvalues --  -29.32409 -21.10195 -11.61686 -11.54228 -11.54152
 Alpha  occ. eigenvalues --  -11.51848 -11.51754 -11.46828  -5.60164  -2.26630
 Alpha  occ. eigenvalues --   -2.22087  -2.21832  -1.78315  -1.46214  -1.28859
 Alpha  occ. eigenvalues --   -1.24021  -1.09315  -1.04374  -0.91733  -0.86742
 Alpha  occ. eigenvalues --   -0.77962  -0.77704  -0.76572  -0.70167  -0.68147
 Alpha  occ. eigenvalues --   -0.65218  -0.58889  -0.57631  -0.56443  -0.52079
 Alpha  occ. eigenvalues --   -0.50327  -0.44811  -0.44590  -0.44300  -0.43566
 Alpha  occ. eigenvalues --   -0.42572  -0.42047  -0.40003  -0.38550  -0.38082
 Alpha  occ. eigenvalues --   -0.32314  -0.31692  -0.31187  -0.30419  -0.29400
 Alpha  occ. eigenvalues --   -0.28007  -0.21494  -0.19338
 Alpha virt. eigenvalues --    0.04015   0.05092   0.06167   0.06226   0.08189
 Alpha virt. eigenvalues --    0.08330   0.10426   0.10806   0.11446   0.11653
 Alpha virt. eigenvalues --    0.12190   0.12317   0.12651   0.13366   0.13417

 Mulliken charges:
               1
     1  C    0.039930
     2  C   -1.360621
     3  C    1.079867
     4  C   -1.360613
     5  C    1.079868
     6  C   -1.552124
     7  F    1.103720
     8  F    1.129514
     9  F    0.982898
    10  F    1.129519
    11  F    0.982894
    12  O   -4.359476
    13  Si   6.158631
    14  H   -1.685699
    15  H   -1.684153
    16  H   -1.684155
 Sum of Mulliken charges =  -0.00000

 Dipole moment (field-independent basis, Debye):
    X=              1.5044    Y=             -0.0000    Z=              0.2918  Tot=              1.5325

 Test job not archived.
 1\1\GINC-SE126\SP\RHF\Aug-CC-pVDZ\C6H3F5O1Si1\OHZDE\09-Apr-2025\0\\#t
 hf aug-cc-pvdz iop(5/13=1,5/36=2,99/5=2) pseudo=read geom=check guess=
 (read,tcheck) scf=(maxcycle=1)\\title\\0,1\C,0,2.006211,0.,0.109177\C,
 0,1.31664,1.202408,0.004426\C,0,-0.056674,1.198465,-0.205634\C,0,1.316
 641,-1.202408,0.004426\C,0,-0.056673,-1.198465,-0.205634\C,0,-0.765401
 ,0.,-0.31825\F,0,3.326266,0.000001,0.313015\F,0,1.976366,2.35964,0.108
 358\F,0,-0.710852,2.362183,-0.300748\F,0,1.976367,-2.359639,0.108358\F
 ,0,-0.710851,-2.362183,-0.300747\O,0,-2.090975,-0.000001,-0.588227\Si,

 Normal termination of Gaussian 16 at Wed Apr  9 00:09:50 2025.
