 Gaussian 16, Revision C.01,

 ----------------------------------------------------------------------
 #t hf aug-cc-pvdz symm=none int=(grid=ultrafine) guess=(read,tcheck) s
 table=opt
 ----------------------------------------------------------------------
 -----
 title
 -----
 Symbolic Z-matrix:
 Charge =  0 Multiplicity = 2

 SCF Done:  E(UHF) =  -586.776768581     A.U. after   20 cycles
 Normal termination of Gaussian 16 at Tue Apr  8 23:55:21 2025.
 Gaussian 16:  ES64L-G16RevC.01  3-Jul-2019

 ----------------------------------------------------------------------
 #t hf aug-cc-pvdz iop(5/13=1,5/36=2,99/5=2) pseudo=read geom=check gue
 ss=(read,tcheck) scf=(maxcycle=1)
 ----------------------------------------------------------------------
 -----
 title
 -----
 Structure from the checkpoint file:  "BDE49_nonexpt_1965_mol2.chk"
 Charge =  0 Multiplicity = 2

                         Standard orientation:
 ---------------------------------------------------------------------
 Center     Atomic      Atomic             Coordinates (Angstroms)
 Number     Number       Type             X           Y           Z
 ---------------------------------------------------------------------
      1          6           0       -1.027802   -1.153344   -0.162595
      2         16           0       -0.034867    0.166375    0.382784
      3          8           0       -0.467518    1.388294   -0.309728
      4          8           0        1.390184   -0.469408   -0.301983
      5          1           0        2.118137   -0.041322    0.170908
      6          1           0       -0.789160   -2.155273    0.169367
      7          1           0       -1.985628   -0.896421   -0.595566
 ---------------------------------------------------------------------

 SCF Done:  E(UHF) =  -587.814392069     A.U. after    2 cycles

 The electronic state is 2-A.
 Alpha  occ. eigenvalues --  -75.83985 -21.11627 -21.03574 -13.39690 -13.25724
 Alpha  occ. eigenvalues --  -13.21542 -11.43077  -8.18147  -1.79198  -1.67393
 Alpha  occ. eigenvalues --   -1.15728  -0.91414  -0.66551  -0.64070  -0.57438
 Alpha  occ. eigenvalues --   -0.49363  -0.46540  -0.42350  -0.38282  -0.35151
 Alpha  occ. eigenvalues --   -0.26675
 Alpha virt. eigenvalues --    0.03256   0.04407   0.05599   0.07559   0.11204
 Alpha virt. eigenvalues --    0.12396   0.12858   0.13412   0.14804   0.18609
 Alpha virt. eigenvalues --    0.20052   0.20291   0.21877   0.22341   0.23681

  Beta  occ. eigenvalues --  -75.84063 -21.11268 -21.03609 -13.39763 -13.26044
  Beta  occ. eigenvalues --  -13.21775 -11.40833  -8.18216  -1.78739  -1.66999
  Beta  occ. eigenvalues --   -1.10757  -0.87535  -0.65185  -0.62589  -0.55836
  Beta  occ. eigenvalues --   -0.48246  -0.45735  -0.37952  -0.35056  -0.27765
  Beta virt. eigenvalues --    0.02591   0.03728   0.05080   0.05932   0.07794
  Beta virt. eigenvalues --    0.11286   0.12696   0.13124   0.14994   0.16240
  Beta virt. eigenvalues --    0.18867   0.20797   0.20914   0.22006   0.22624

 Mulliken charges and spin densities:
               1          2
     1  C   -3.839361   1.265401
     2  S    4.521026  -0.048965
     3  O   -2.394704  -0.018266
     4  O   -2.140125  -0.007371
     5  H    0.983862  -0.021420
     6  H    1.464821  -0.082331
     7  H    1.404481  -0.087049
 Sum of Mulliken charges =   0.00000   1.00000

 Dipole moment (field-independent basis, Debye):
    X=              0.6706    Y=             -1.4124    Z=              1.1401  Tot=              1.9351
                          Isotropic Fermi Contact Couplings
        Atom                 a.u.       MegaHertz       Gauss      10(-4) cm-1
     1  C(13)              0.11580     130.17579      46.44996      43.42197
     2  S(33)              0.13180      45.27073      16.15372      15.10069
     3  O(17)              0.00283      -1.71381      -0.61153      -0.57167
     4  O(17)              0.05575     -33.79451     -12.05872     -11.27264
     5  H(1)              -0.00004      -0.19224      -0.06860      -0.06412
     6  H(1)              -0.01704     -76.17651     -27.18167     -25.40975
     7  H(1)              -0.01826     -81.61962     -29.12391     -27.22537
 --------------------------------------------------------

 Normal termination of Gaussian 16 at Tue Apr  8 23:55:23 2025.
