 Gaussian 16, Revision C.01,

 ----------------------------------------------------------------------
 #t hf aug-cc-pvdz symm=none int=(grid=ultrafine) guess=(read,tcheck) s
 table=(opt,rrhf)
 ----------------------------------------------------------------------
 -----
 title
 -----
 Symbolic Z-matrix:
 Charge =  0 Multiplicity = 1

 SCF Done:  E(RHF) =  -879.656754918     A.U. after   14 cycles
 Normal termination of Gaussian 16 at Wed Apr  9 00:15:54 2025.
 Gaussian 16:  ES64L-G16RevC.01  3-Jul-2019

 ----------------------------------------------------------------------
 #t hf aug-cc-pvdz iop(5/13=1,5/36=2,99/5=2) pseudo=read geom=check gue
 ss=(read,tcheck) scf=(maxcycle=1)
 ----------------------------------------------------------------------
 -----
 title
 -----
 Structure from the checkpoint file:  "BDE49_nonexpt_2515_mol1.chk"
 Charge =  0 Multiplicity = 1

                         Standard orientation:
 ---------------------------------------------------------------------
 Center     Atomic      Atomic             Coordinates (Angstroms)
 Number     Number       Type             X           Y           Z
 ---------------------------------------------------------------------
      1         14           0       -1.592131   -0.356089   -0.415120
      2         16           0        0.351594   -1.132658    0.225477
      3          6           0        1.338325    0.360360   -0.090963
      4          6           0        2.812630    0.187761    0.198121
      5          6           0       -2.242867    1.001936    0.692996
      6          1           0       -2.325040    0.657129    1.726488
      7          1           0       -3.237461    1.309079    0.354178
      8          1           0       -1.581941    1.868991    0.659884
      9          8           0        0.847767    1.382153   -0.498676
     10          1           0        3.233757   -0.572779   -0.464279
     11          1           0        2.962119   -0.151294    1.225748
     12          1           0        3.319987    1.138780    0.038852
     13          1           0       -2.440863   -1.566746   -0.321930
     14          1           0       -1.496904    0.067042   -1.826402
 ---------------------------------------------------------------------

 SCF Done:  E(RHF) =  -880.934621800     A.U. after    2 cycles

 The electronic state is 1-A.
 Alpha  occ. eigenvalues --  -76.23600 -75.68446 -21.07089 -13.12438 -13.09342
 Alpha  occ. eigenvalues --  -13.03480 -11.51226 -11.40070 -11.35318  -8.02728
 Alpha  occ. eigenvalues --   -5.57091  -2.20490  -2.19058  -2.18956  -1.73114
 Alpha  occ. eigenvalues --   -1.17874  -1.07579  -1.03764  -0.77320  -0.70496
 Alpha  occ. eigenvalues --   -0.62390  -0.60818  -0.57244  -0.56430  -0.55918
 Alpha  occ. eigenvalues --   -0.49515  -0.47115  -0.45289  -0.42973  -0.34598
 Alpha  occ. eigenvalues --   -0.27252  -0.26958
 Alpha virt. eigenvalues --    0.03133   0.03966   0.04862   0.05479   0.06308
 Alpha virt. eigenvalues --    0.06711   0.07425   0.07902   0.08726   0.09146
 Alpha virt. eigenvalues --    0.10199   0.11480   0.12373   0.13050   0.13291

 Mulliken charges:
               1
     1  Si   6.401138
     2  S   -1.013996
     3  C    3.131523
     4  C   -4.536725
     5  C   -4.956260
     6  H    1.236609
     7  H    1.303704
     8  H    1.343687
     9  O   -2.930826
    10  H    1.325939
    11  H    1.340360
    12  H    1.301732
    13  H   -1.949446
    14  H   -1.997439
 Sum of Mulliken charges =   0.00000

 Dipole moment (field-independent basis, Debye):
    X=              0.8235    Y=             -0.6575    Z=              1.0880  Tot=              1.5146

 Test job not archived.
 1\1\GINC-SE455\SP\RHF\Aug-CC-pVDZ\C3H8O1S1Si1\OHZDE\09-Apr-2025\0\\#t
 hf aug-cc-pvdz iop(5/13=1,5/36=2,99/5=2) pseudo=read geom=check guess=
 (read,tcheck) scf=(maxcycle=1)\\title\\0,1\Si,0,-1.592131,-0.356089,-0
 .41512\S,0,0.351594,-1.132658,0.225477\C,0,1.338325,0.36036,-0.090963\
 C,0,2.81263,0.187761,0.198121\C,0,-2.242867,1.001936,0.692996\H,0,-2.3
 2504,0.657129,1.726488\H,0,-3.237461,1.309079,0.354178\H,0,-1.581941,1
 .868991,0.659884\O,0,0.847767,1.382153,-0.498676\H,0,3.233757,-0.57277
 9,-0.464279\H,0,2.962119,-0.151294,1.225748\H,0,3.319987,1.13878,0.038

 Normal termination of Gaussian 16 at Wed Apr  9 00:15:58 2025.
