 Gaussian 16, Revision C.01,

 ----------------------------------------------------------------------
 #t hf aug-cc-pvdz symm=none int=(grid=ultrafine) guess=(read,tcheck) s
 table=(opt,rrhf)
 ----------------------------------------------------------------------
 -----
 title
 -----
 Symbolic Z-matrix:
 Charge =  0 Multiplicity = 1

 SCF Done:  E(RHF) =  -755.093498627     A.U. after   16 cycles
 Normal termination of Gaussian 16 at Wed Apr  9 00:54:32 2025.
 Gaussian 16:  ES64L-G16RevC.01  3-Jul-2019

 ----------------------------------------------------------------------
 #t hf aug-cc-pvdz iop(5/13=1,5/36=2,99/5=2) pseudo=read geom=check gue
 ss=(read,tcheck) scf=(maxcycle=1)
 ----------------------------------------------------------------------
 -----
 title
 -----
 Structure from the checkpoint file:  "BDE49_nonexpt_987_mol1.chk"
 Charge =  0 Multiplicity = 1

                         Standard orientation:
 ---------------------------------------------------------------------
 Center     Atomic      Atomic             Coordinates (Angstroms)
 Number     Number       Type             X           Y           Z
 ---------------------------------------------------------------------
      1         16           0        0.516793   -1.100170   -0.044589
      2          7           0        1.578880    0.413034   -0.012092
      3          8           0        1.062443    1.482421   -0.230464
      4          8           0        2.737728    0.167140    0.245554
      5          8           0       -0.922131   -0.485274   -0.486687
      6          6           0       -1.767921    0.072078    0.572988
      7          6           0       -3.065736    0.490429   -0.082088
      8          1           0       -1.244183    0.921844    1.013525
      9          1           0       -1.918733   -0.696852    1.335350
     10          1           0       -2.881017    1.239939   -0.853631
     11          1           0       -3.732614    0.922897    0.668584
     12          1           0       -3.566678   -0.365683   -0.538377
 ---------------------------------------------------------------------

 SCF Done:  E(RHF) =  -756.885447147     A.U. after    2 cycles

 The electronic state is 1-A.
 Alpha  occ. eigenvalues --  -75.80141 -21.11746 -21.11540 -21.11365 -16.01520
 Alpha  occ. eigenvalues --  -13.29157 -13.21899 -13.14597 -11.46302 -11.38663
 Alpha  occ. eigenvalues --   -8.13728  -2.01113  -1.81156  -1.71695  -1.20106
 Alpha  occ. eigenvalues --   -1.11343  -0.92010  -0.86775  -0.72119  -0.68414
 Alpha  occ. eigenvalues --   -0.66845  -0.63446  -0.60848  -0.57340  -0.53506
 Alpha  occ. eigenvalues --   -0.51401  -0.44485  -0.41141  -0.33555  -0.33158
 Alpha  occ. eigenvalues --   -0.31677  -0.27831
 Alpha virt. eigenvalues --    0.03152   0.04785   0.05400   0.06452   0.06601
 Alpha virt. eigenvalues --    0.07032   0.09032   0.09931   0.12071   0.12502
 Alpha virt. eigenvalues --    0.13626   0.14477   0.14651   0.16170   0.17010

 Mulliken charges:
               1
     1  S    1.852037
     2  N    4.301103
     3  O   -2.575963
     4  O   -2.600075
     5  O   -2.294430
     6  C   -1.943096
     7  C   -3.544310
     8  H    1.597844
     9  H    1.550138
    10  H    1.276429
    11  H    1.153368
    12  H    1.226956
 Sum of Mulliken charges =  -0.00000

 Dipole moment (field-independent basis, Debye):
    X=             -2.7877    Y=             -1.7376    Z=              0.3585  Tot=              3.3044

 Test job not archived.
 1\1\GINC-SE340\SP\RHF\Aug-CC-pVDZ\C2H5N1O3S1\OHZDE\09-Apr-2025\0\\#t h
 f aug-cc-pvdz iop(5/13=1,5/36=2,99/5=2) pseudo=read geom=check guess=(
 read,tcheck) scf=(maxcycle=1)\\title\\0,1\S,0,0.516793,-1.10017,-0.044
 589\N,0,1.57888,0.413034,-0.012092\O,0,1.062443,1.482421,-0.230464\O,0
 ,2.737728,0.16714,0.245554\O,0,-0.922131,-0.485274,-0.486687\C,0,-1.76
 7921,0.072078,0.572988\C,0,-3.065736,0.490429,-0.082088\H,0,-1.244183,
 0.921844,1.013525\H,0,-1.918733,-0.696852,1.33535\H,0,-2.881017,1.2399
 39,-0.853631\H,0,-3.732614,0.922897,0.668584\H,0,-3.566678,-0.365683,-

 Normal termination of Gaussian 16 at Wed Apr  9 00:54:36 2025.
