 Gaussian 16, Revision C.01,

 ----------------------------------------------------------------------
 #t hf aug-cc-pvdz symm=none int=(grid=ultrafine) guess=(read,tcheck) s
 table=(opt,rrhf)
 ----------------------------------------------------------------------
 -----
 title
 -----
 Symbolic Z-matrix:
 Charge =  0 Multiplicity = 1

 SCF Done:  E(RHF) =  -537.167728774     A.U. after   12 cycles
 Normal termination of Gaussian 16 at Wed Apr  9 00:00:45 2025.
 Gaussian 16:  ES64L-G16RevC.01  3-Jul-2019

 ----------------------------------------------------------------------
 #t hf aug-cc-pvdz iop(5/13=1,5/36=2,99/5=2) pseudo=read geom=check gue
 ss=(read,tcheck) scf=(maxcycle=1)
 ----------------------------------------------------------------------
 -----
 title
 -----
 Structure from the checkpoint file:  "BDE49_nonexpt_2091_mol1.chk"
 Charge =  0 Multiplicity = 1

                         Standard orientation:
 ---------------------------------------------------------------------
 Center     Atomic      Atomic             Coordinates (Angstroms)
 Number     Number       Type             X           Y           Z
 ---------------------------------------------------------------------
      1          8           0        0.443039   -1.319919   -0.190846
      2          7           0        0.373111    1.346475   -0.166345
      3          6           0       -1.660878   -0.056826   -0.283923
      4          6           0       -1.041773    1.252622    0.222558
      5          6           0       -0.926160   -1.298505    0.224627
      6         14           0        1.416740   -0.008373    0.036604
      7          1           0       -0.980012   -1.346521    1.322177
      8          1           0       -1.390120   -2.206070   -0.168354
      9          1           0       -1.646438   -0.060167   -1.378305
     10          1           0       -2.707028   -0.109434    0.037676
     11          1           0        0.742047    2.285801   -0.128923
     12          1           0       -1.180324    1.315789    1.314876
     13          1           0       -1.586958    2.095427   -0.213169
     14          1           0        2.493079   -0.011811   -0.974888
     15          1           0        2.038167   -0.095518    1.388063
 ---------------------------------------------------------------------

 SCF Done:  E(RHF) =  -538.482937511     A.U. after    2 cycles

 The electronic state is 1-A.
 Alpha  occ. eigenvalues --  -76.22486 -21.03020 -15.70623 -11.44227 -11.42691
 Alpha  occ. eigenvalues --  -11.36722  -5.56643  -2.23800  -2.21261  -2.17731
 Alpha  occ. eigenvalues --   -1.69185  -1.33194  -1.13730  -0.94468  -0.85102
 Alpha  occ. eigenvalues --   -0.72825  -0.67804  -0.63269  -0.60054  -0.55571
 Alpha  occ. eigenvalues --   -0.52057  -0.51555  -0.47984  -0.47066  -0.44713
 Alpha  occ. eigenvalues --   -0.34962  -0.34463  -0.33054
 Alpha virt. eigenvalues --    0.03675   0.05288   0.05342   0.05716   0.06025
 Alpha virt. eigenvalues --    0.06224   0.06564   0.06967   0.07389   0.08921
 Alpha virt. eigenvalues --    0.09958   0.11569   0.13281   0.13362   0.13878

 Mulliken charges:
               1
     1  O   -3.012338
     2  N   -2.361314
     3  C   -2.392513
     4  C   -2.098632
     5  C   -1.030712
     6  Si   5.622615
     7  H    1.465767
     8  H    1.248373
     9  H    1.390888
    10  H    1.331463
    11  H    0.639014
    12  H    1.444314
    13  H    1.312454
    14  H   -1.760323
    15  H   -1.799056
 Sum of Mulliken charges =   0.00000

 Dipole moment (field-independent basis, Debye):
    X=             -1.2870    Y=              0.8877    Z=              0.1131  Tot=              1.5676

 Test job not archived.
 1\1\GINC-SE331\SP\RHF\Aug-CC-pVDZ\C3H9N1O1Si1\OHZDE\09-Apr-2025\0\\#t
 hf aug-cc-pvdz iop(5/13=1,5/36=2,99/5=2) pseudo=read geom=check guess=
 (read,tcheck) scf=(maxcycle=1)\\title\\0,1\O,0,0.443039,-1.319919,-0.1
 90846\N,0,0.373111,1.346475,-0.166345\C,0,-1.660878,-0.056826,-0.28392
 3\C,0,-1.041773,1.252622,0.222558\C,0,-0.92616,-1.298505,0.224627\Si,0
 ,1.41674,-0.008373,0.036604\H,0,-0.980012,-1.346521,1.322177\H,0,-1.39
 0121,-2.20607,-0.168354\H,0,-1.646438,-0.060167,-1.378305\H,0,-2.70702
 8,-0.109434,0.037676\H,0,0.742047,2.285801,-0.128923\H,0,-1.180324,1.3

 Normal termination of Gaussian 16 at Wed Apr  9 00:00:49 2025.
