 Gaussian 16, Revision C.01,

 ----------------------------------------------------------------------
 #t hf aug-cc-pvdz symm=none int=(grid=ultrafine) guess=(read,tcheck) s
 table=(opt,rrhf)
 ----------------------------------------------------------------------
 -----
 title
 -----
 Symbolic Z-matrix:
 Charge =  0 Multiplicity = 1

 SCF Done:  E(RHF) =  -842.588298183     A.U. after   16 cycles
 Normal termination of Gaussian 16 at Tue Apr  8 22:52:17 2025.
 Gaussian 16:  ES64L-G16RevC.01  3-Jul-2019

 ----------------------------------------------------------------------
 #t hf aug-cc-pvdz iop(5/13=1,5/36=2,99/5=2) pseudo=read geom=check gue
 ss=(read,tcheck) scf=(maxcycle=1)
 ----------------------------------------------------------------------
 -----
 title
 -----
 Structure from the checkpoint file:  "BDE49_expt_1693_mol1.chk"
 Charge =  0 Multiplicity = 1

                         Standard orientation:
 ---------------------------------------------------------------------
 Center     Atomic      Atomic             Coordinates (Angstroms)
 Number     Number       Type             X           Y           Z
 ---------------------------------------------------------------------
      1          6           0        0.598745    1.789345    0.169737
      2          6           0       -0.641097    2.306442   -0.209868
      3          6           0       -1.747207    1.478985   -0.318299
      4          6           0       -1.625974    0.109101   -0.045592
      5          6           0       -0.390781   -0.412685    0.338380
      6          6           0        0.724641    0.429505    0.444968
      7          1           0        1.461953    2.440393    0.247847
      8          1           0       -0.743145    3.364588   -0.422175
      9          6           0        2.045170   -0.138058    0.862424
     10          1           0       -0.274041   -1.467868    0.548350
     11          1           0        2.708955    0.624772    1.261536
     12         17           0        2.964209   -0.881836   -0.548740
     13          1           0        1.940267   -0.946920    1.582206
     14          1           0       -2.717129    1.861513   -0.611532
     15          8           0       -2.767250   -0.621895   -0.178709
     16          6           0       -2.709820   -2.021978    0.059067
     17          1           0       -2.014784   -2.517511   -0.627548
     18          1           0       -3.717413   -2.394042   -0.118002
     19          1           0       -2.420270   -2.242490    1.092664
 ---------------------------------------------------------------------

 SCF Done:  E(RHF) =  -844.639390705     A.U. after    2 cycles

 The electronic state is 1-A.
 Alpha  occ. eigenvalues --  -99.87407 -21.07893 -11.53695 -11.47367 -11.45683
 Alpha  occ. eigenvalues --  -11.43912 -11.42387 -11.41711 -11.41310 -11.37110
 Alpha  occ. eigenvalues --  -10.44576  -9.64539  -9.63845  -9.63780  -1.79310
 Alpha  occ. eigenvalues --   -1.36662  -1.28480  -1.13423  -1.09376  -1.01068
 Alpha  occ. eigenvalues --   -0.98002  -0.86138  -0.83246  -0.71274  -0.66446
 Alpha  occ. eigenvalues --   -0.65646  -0.63216  -0.62895  -0.60760  -0.58789
 Alpha  occ. eigenvalues --   -0.57938  -0.53516  -0.52036  -0.50074  -0.47637
 Alpha  occ. eigenvalues --   -0.46374  -0.44758  -0.41245  -0.39419  -0.33764
 Alpha  occ. eigenvalues --   -0.26830
 Alpha virt. eigenvalues --    0.03020   0.04512   0.04902   0.05860   0.05915
 Alpha virt. eigenvalues --    0.06379   0.06602   0.07199   0.07919   0.08750
 Alpha virt. eigenvalues --    0.09453   0.10133   0.11269   0.12039   0.13222

 Mulliken charges:
               1
     1  C   -2.429173
     2  C   -0.028793
     3  C   -4.665557
     4  C    5.771567
     5  C   -3.481682
     6  C    4.475052
     7  H    1.812768
     8  H    1.454136
     9  C   -5.179178
    10  H    2.028486
    11  H    1.288981
    12  Cl   0.145458
    13  H    1.236438
    14  H    1.846449
    15  O   -4.821833
    16  C   -3.634712
    17  H    1.380745
    18  H    1.420807
    19  H    1.380041
 Sum of Mulliken charges =  -0.00000

 Dipole moment (field-independent basis, Debye):
    X=             -2.3198    Y=              0.2912    Z=              1.5300  Tot=              2.7941

 Test job not archived.
 1\1\GINC-SE106\SP\RHF\Aug-CC-pVDZ\C8H9Cl1O1\OHZDE\08-Apr-2025\0\\#t hf
  aug-cc-pvdz iop(5/13=1,5/36=2,99/5=2) pseudo=read geom=check guess=(r
 ead,tcheck) scf=(maxcycle=1)\\title\\0,1\C,0,0.598745,1.789345,0.16973
 7\C,0,-0.641097,2.306442,-0.209868\C,0,-1.747207,1.478985,-0.318299\C,
 0,-1.625974,0.109101,-0.045592\C,0,-0.390781,-0.412685,0.33838\C,0,0.7
 24641,0.429505,0.444968\H,0,1.461953,2.440393,0.247847\H,0,-0.743145,3
 .364588,-0.422175\C,0,2.04517,-0.138058,0.862424\H,0,-0.274041,-1.4678
 68,0.54835\H,0,2.708955,0.624772,1.261536\Cl,0,2.964209,-0.881836,-0.5

 Normal termination of Gaussian 16 at Tue Apr  8 22:52:29 2025.
