 Gaussian 16, Revision C.01,

 ----------------------------------------------------------------------
 #t hf aug-cc-pvdz symm=none int=(grid=ultrafine) guess=(read,tcheck) s
 table=(opt,rrhf)
 ----------------------------------------------------------------------
 -----
 title
 -----
 Symbolic Z-matrix:
 Charge =  0 Multiplicity = 1

 SCF Done:  E(RHF) =  -1690.51930373     A.U. after   15 cycles
 Normal termination of Gaussian 16 at Wed Apr  9 00:18:35 2025.
 Gaussian 16:  ES64L-G16RevC.01  3-Jul-2019

 ----------------------------------------------------------------------
 #t hf aug-cc-pvdz iop(5/13=1,5/36=2,99/5=2) pseudo=read geom=check gue
 ss=(read,tcheck) scf=(maxcycle=1)
 ----------------------------------------------------------------------
 -----
 title
 -----
 Structure from the checkpoint file:  "BDE49_nonexpt_2575_mol1.chk"
 Charge =  0 Multiplicity = 1

                         Standard orientation:
 ---------------------------------------------------------------------
 Center     Atomic      Atomic             Coordinates (Angstroms)
 Number     Number       Type             X           Y           Z
 ---------------------------------------------------------------------
      1         17           0       -2.377830   -0.035929   -0.000067
      2         16           0       -0.529542   -1.093975    0.000052
      3          6           0        0.769745    0.051003    0.000098
      4         16           0        2.189819   -0.780550   -0.000040
      5         16           0        0.622862    1.778646    0.000020
      6          1           0       -0.725578    1.838836    0.000045
 ---------------------------------------------------------------------

 SCF Done:  E(RHF) =  -1691.60968982     A.U. after    2 cycles

 The electronic state is 1-A.
 Alpha  occ. eigenvalues --  -99.93149 -75.79280 -75.75495 -75.69076 -13.21340
 Alpha  occ. eigenvalues --  -13.19742 -13.16899 -13.15201 -13.13443 -13.10235
 Alpha  occ. eigenvalues --  -13.07118 -13.02540 -13.00100 -11.52655 -10.50175
 Alpha  occ. eigenvalues --   -9.69945  -9.69551  -9.69230  -8.13029  -8.09586
 Alpha  occ. eigenvalues --   -8.03234  -1.39016  -1.29680  -1.15001  -1.07867
 Alpha  occ. eigenvalues --   -0.78667  -0.65459  -0.59866  -0.57370  -0.50986
 Alpha  occ. eigenvalues --   -0.48838  -0.48566  -0.42633  -0.28789  -0.25416
 Alpha  occ. eigenvalues --   -0.23915
 Alpha virt. eigenvalues --    0.01852   0.03243   0.04428   0.06109   0.07222
 Alpha virt. eigenvalues --    0.07874   0.10718   0.11246   0.12883   0.13467
 Alpha virt. eigenvalues --    0.15202   0.15307   0.15453   0.16998   0.17039

 Mulliken charges:
               1
     1  Cl  -0.553451
     2  S    1.231046
     3  C   -2.535922
     4  S    1.089118
     5  S   -0.304852
     6  H    1.074060
 Sum of Mulliken charges =  -0.00000

 Dipole moment (field-independent basis, Debye):
    X=              5.1302    Y=             -0.6844    Z=             -0.0005  Tot=              5.1757

 Test job not archived.
 1\1\GINC-SE457\SP\RHF\Aug-CC-pVDZ\C1H1Cl1S3\OHZDE\09-Apr-2025\0\\#t hf
  aug-cc-pvdz iop(5/13=1,5/36=2,99/5=2) pseudo=read geom=check guess=(r
 ead,tcheck) scf=(maxcycle=1)\\title\\0,1\Cl,0,-2.37783,-0.035929,-0.00
 0067\S,0,-0.529542,-1.093975,0.000052\C,0,0.769745,0.051003,0.000098\S
 ,0,2.189819,-0.780549,-0.00004\S,0,0.622862,1.778646,0.00002\H,0,-0.72
 5578,1.838836,0.000045\\Version=ES64L-G16RevC.01\State=1-A\HF=-1691.60
 96898\RMSD=1.379e-01\Dipole=2.0183933,-0.2692447,-0.0002084\Quadrupole
 =0.9536545,5.3040128,-6.2576674,-0.5093045,-0.0007942,-0.0000723\PG=C0

 Normal termination of Gaussian 16 at Wed Apr  9 00:18:37 2025.
