 Gaussian 16, Revision C.01,

 ----------------------------------------------------------------------
 #t hf aug-cc-pvdz symm=none int=(grid=ultrafine) guess=(read,tcheck) s
 table=opt
 ----------------------------------------------------------------------
 -----
 title
 -----
 Symbolic Z-matrix:
 Charge =  0 Multiplicity = 2

 SCF Done:  E(UHF) =  -369.655977040     A.U. after   17 cycles
 Normal termination of Gaussian 16 at Wed Apr  9 00:42:35 2025.
 Gaussian 16:  ES64L-G16RevC.01  3-Jul-2019

 ----------------------------------------------------------------------
 #t hf aug-cc-pvdz iop(5/13=1,5/36=2,99/5=2) pseudo=read geom=check gue
 ss=(read,tcheck) scf=(maxcycle=1)
 ----------------------------------------------------------------------
 -----
 title
 -----
 Structure from the checkpoint file:  "BDE49_nonexpt_667_mol2.chk"
 Charge =  0 Multiplicity = 2

                         Standard orientation:
 ---------------------------------------------------------------------
 Center     Atomic      Atomic             Coordinates (Angstroms)
 Number     Number       Type             X           Y           Z
 ---------------------------------------------------------------------
      1          8           0        2.058508    0.406900   -0.000380
      2          8           0       -0.180493    1.288387    0.049610
      3          6           0        1.569116   -0.954232   -0.040833
      4          6           0        0.177338   -1.022322   -0.659873
      5          6           0       -0.810485   -0.038496   -0.005332
      6          6           0       -2.063238    0.131841   -0.859474
      7          6           0       -1.173112   -0.432101    1.428217
      8          5           0        1.162036    1.415645    0.047255
      9          1           0        1.579782   -1.348226    0.979550
     10          1           0        2.285655   -1.528571   -0.630055
     11          1           0       -0.210623   -2.043502   -0.582057
     12          1           0        0.251410   -0.784312   -1.726109
     13          1           0       -2.605494   -0.814097   -0.945787
     14          1           0       -1.797161    0.474538   -1.861628
     15          1           0       -2.725941    0.873986   -0.409555
     16          1           0       -0.284891   -0.535069    2.055278
     17          1           0       -1.807351    0.337522    1.872244
     18          1           0       -1.717385   -1.380940    1.441776
 ---------------------------------------------------------------------

 SCF Done:  E(UHF) =  -371.340450151     A.U. after    2 cycles

 The electronic state is 2-A.
 Alpha  occ. eigenvalues --  -21.02855 -21.02134 -11.47595 -11.45838 -11.41394
 Alpha  occ. eigenvalues --  -11.40366 -11.36548  -7.65277  -1.84015  -1.69394
 Alpha  occ. eigenvalues --   -1.25070  -1.09037  -1.02251  -0.92753  -0.82473
 Alpha  occ. eigenvalues --   -0.69780  -0.66485  -0.63127  -0.61625  -0.59773
 Alpha  occ. eigenvalues --   -0.58125  -0.55945  -0.52271  -0.51462  -0.49044
 Alpha  occ. eigenvalues --   -0.47250  -0.44835  -0.42249  -0.34250  -0.32465
 Alpha  occ. eigenvalues --   -0.28890
 Alpha virt. eigenvalues --    0.03306   0.04942   0.04976   0.05186   0.05593
 Alpha virt. eigenvalues --    0.05670   0.05821   0.06027   0.06142   0.08232
 Alpha virt. eigenvalues --    0.08971   0.09237   0.09512   0.10968   0.13048

  Beta  occ. eigenvalues --  -21.02731 -21.02023 -11.47494 -11.45739 -11.41362
  Beta  occ. eigenvalues --  -11.40375 -11.36543  -7.63149  -1.83358  -1.69047
  Beta  occ. eigenvalues --   -1.24707  -1.08851  -1.02250  -0.92304  -0.81340
  Beta  occ. eigenvalues --   -0.69478  -0.65717  -0.62784  -0.61544  -0.58650
  Beta  occ. eigenvalues --   -0.57641  -0.55870  -0.52220  -0.50430  -0.48779
  Beta  occ. eigenvalues --   -0.46781  -0.42547  -0.40589  -0.33770  -0.32936
  Beta virt. eigenvalues --    0.03184   0.04370   0.04967   0.05152   0.05511
  Beta virt. eigenvalues --    0.05661   0.05731   0.05918   0.06148   0.08271
  Beta virt. eigenvalues --    0.08692   0.09011   0.09298   0.09588   0.11737

 Mulliken charges and spin densities:
               1          2
     1  O   -3.751199  -0.162317
     2  O   -3.655195  -0.212005
     3  C   -0.714102   0.039625
     4  C   -3.911736  -0.071187
     5  C    4.909108   0.086287
     6  C   -4.204691   0.044006
     7  C   -4.451883  -0.016431
     8  B    2.948595   1.301520
     9  H    1.521541  -0.004130
    10  H    1.189636  -0.002983
    11  H    1.398562   0.018716
    12  H    1.263139  -0.025759
    13  H    1.217436   0.004026
    14  H    1.304271   0.002209
    15  H    1.170743  -0.000940
    16  H    1.283860  -0.004723
    17  H    1.300531   0.001941
    18  H    1.181384   0.002144
 Sum of Mulliken charges =   0.00000   1.00000

 Dipole moment (field-independent basis, Debye):
    X=             -1.2106    Y=             -2.4482    Z=             -0.1589  Tot=              2.7358
                          Isotropic Fermi Contact Couplings
        Atom                 a.u.       MegaHertz       Gauss      10(-4) cm-1
     1  O(17)              0.17670    -107.11299     -38.22058     -35.72905
     2  O(17)              0.17452    -105.79522     -37.75036     -35.28949
     3  C(13)              0.03439      38.66535      13.79676      12.89737
     4  C(13)             -0.00183      -2.05719      -0.73406      -0.68620
     5  C(13)              0.02876      32.32965      11.53602      10.78401
     6  C(13)             -0.00099      -1.11282      -0.39708      -0.37120
     7  C(13)             -0.00132      -1.48855      -0.53115      -0.49653
     8  B(11)              0.38321     549.65826     196.13174     183.34626

 Normal termination of Gaussian 16 at Wed Apr  9 00:42:43 2025.
