 Gaussian 16, Revision C.01,

 ----------------------------------------------------------------------
 #t hf aug-cc-pvdz symm=none int=(grid=ultrafine) guess=(read,tcheck) s
 table=(opt,rrhf)
 ----------------------------------------------------------------------
 -----
 title
 -----
 Symbolic Z-matrix:
 Charge =  0 Multiplicity = 1

 SCF Done:  E(RHF) =  -262.720875782     A.U. after   13 cycles
 Normal termination of Gaussian 16 at Tue Apr  8 22:38:28 2025.
 Gaussian 16:  ES64L-G16RevC.01  3-Jul-2019

 ----------------------------------------------------------------------
 #t hf aug-cc-pvdz iop(5/13=1,5/36=2,99/5=2) pseudo=read geom=check gue
 ss=(read,tcheck) scf=(maxcycle=1)
 ----------------------------------------------------------------------
 -----
 title
 -----
 Structure from the checkpoint file:  "BDE49_expt_1175_mol1.chk"
 Charge =  0 Multiplicity = 1

                         Standard orientation:
 ---------------------------------------------------------------------
 Center     Atomic      Atomic             Coordinates (Angstroms)
 Number     Number       Type             X           Y           Z
 ---------------------------------------------------------------------
      1          6           0       -1.879204   -0.160136   -0.000543
      2          7           0       -2.970627    0.208442    0.000232
      3          6           0        1.879209    0.160150    0.000556
      4          7           0        2.970618   -0.208471   -0.000256
      5          6           0        0.487732    0.601568   -0.000120
      6          6           0       -0.487728   -0.601554    0.000131
      7          1           0        0.313630    1.226082   -0.879955
      8          1           0        0.313108    1.226893    0.879033
      9          1           0       -0.313625   -1.226068    0.879966
     10          1           0       -0.313103   -1.226879   -0.879022
 ---------------------------------------------------------------------

 SCF Done:  E(RHF) =  -263.917921162     A.U. after    2 cycles

 The electronic state is 1-A.
 Alpha  occ. eigenvalues --  -15.78139 -15.78138 -11.51156 -11.48077 -11.45294
 Alpha  occ. eigenvalues --  -11.44034  -1.37192  -1.32016  -1.22296  -1.03372
 Alpha  occ. eigenvalues --   -0.76243  -0.70976  -0.69025  -0.61483  -0.59649
 Alpha  occ. eigenvalues --   -0.54731  -0.52356  -0.47180  -0.45578  -0.45228
 Alpha  occ. eigenvalues --   -0.43740
 Alpha virt. eigenvalues --    0.02005   0.05135   0.05299   0.06112   0.08187
 Alpha virt. eigenvalues --    0.09167   0.09854   0.10521   0.11021   0.11088
 Alpha virt. eigenvalues --    0.11571   0.13859   0.15195   0.16029   0.16508

 Mulliken charges:
               1
     1  C    2.426190
     2  N   -2.417582
     3  C    2.426179
     4  N   -2.417571
     5  C   -3.060548
     6  C   -3.060581
     7  H    1.525691
     8  H    1.526268
     9  H    1.525699
    10  H    1.526255
 Sum of Mulliken charges =  -0.00000

 Dipole moment (field-independent basis, Debye):
    X=              0.0000    Y=              0.0000    Z=              0.0000  Tot=              0.0001

 Test job not archived.
 1\1\GINC-SE093\SP\RHF\Aug-CC-pVDZ\C4H4N2\OHZDE\08-Apr-2025\0\\#t hf au
 g-cc-pvdz iop(5/13=1,5/36=2,99/5=2) pseudo=read geom=check guess=(read
 ,tcheck) scf=(maxcycle=1)\\title\\0,1\C,0,-1.879204,-0.160136,-0.00054
 3\N,0,-2.970627,0.208442,0.000232\C,0,1.879209,0.16015,0.000556\N,0,2.
 970618,-0.208471,-0.000256\C,0,0.487732,0.601568,-0.00012\C,0,-0.48772
 8,-0.601554,0.000131\H,0,0.31363,1.226082,-0.879955\H,0,0.313108,1.226
 893,0.879033\H,0,-0.313625,-1.226068,0.879966\H,0,-0.313103,-1.226879,
 -0.879022\\Version=ES64L-G16RevC.01\State=1-A\HF=-263.9179212\RMSD=3.0

 Normal termination of Gaussian 16 at Tue Apr  8 22:38:31 2025.
