 Gaussian 16, Revision C.01,

 ----------------------------------------------------------------------
 #t hf aug-cc-pvdz symm=none int=(grid=ultrafine) guess=(read,tcheck) s
 table=(opt,rrhf)
 ----------------------------------------------------------------------
 -----
 title
 -----
 Symbolic Z-matrix:
 Charge =  0 Multiplicity = 1

 SCF Done:  E(RHF) =  -550.414989791     A.U. after   13 cycles
 Normal termination of Gaussian 16 at Tue Apr  8 23:37:04 2025.
 Gaussian 16:  ES64L-G16RevC.01  3-Jul-2019

 ----------------------------------------------------------------------
 #t hf aug-cc-pvdz iop(5/13=1,5/36=2,99/5=2) pseudo=read geom=check gue
 ss=(read,tcheck) scf=(maxcycle=1)
 ----------------------------------------------------------------------
 -----
 title
 -----
 Structure from the checkpoint file:  "BDE49_nonexpt_1507_mol1.chk"
 Charge =  0 Multiplicity = 1

                         Standard orientation:
 ---------------------------------------------------------------------
 Center     Atomic      Atomic             Coordinates (Angstroms)
 Number     Number       Type             X           Y           Z
 ---------------------------------------------------------------------
      1         15           0       -0.572437    0.000652   -0.661238
      2          7           0        1.158303   -0.116453   -0.648477
      3          8           0        1.789768    0.112173    0.637121
      4          6           0       -0.947170    1.414227    0.479781
      5          1           0       -0.706158    2.357734   -0.015612
      6          1           0       -0.378769    1.340376    1.408604
      7          6           0       -0.957848   -1.407706    0.468504
      8          1           0       -0.410620   -1.325452    1.410373
      9          1           0       -0.697120   -2.346409   -0.024196
     10          1           0       -2.030150   -1.416516    0.678307
     11          1           0       -2.017362    1.416686    0.704625
     12          1           0        2.253815   -0.718046    0.789039
     13          1           0        1.576758    0.560505   -1.279912
 ---------------------------------------------------------------------

 SCF Done:  E(RHF) =  -551.593339091     A.U. after    2 cycles

 The electronic state is 1-A.
 Alpha  occ. eigenvalues -- -105.17141 -21.09128 -15.76151 -11.36488 -11.36128
 Alpha  occ. eigenvalues --   -2.76304  -1.75747  -1.51849  -1.48054  -1.45376
 Alpha  occ. eigenvalues --   -1.11419  -1.00584  -0.96328  -0.67337  -0.61595
 Alpha  occ. eigenvalues --   -0.58419  -0.57283  -0.55924  -0.54487  -0.54058
 Alpha  occ. eigenvalues --   -0.39030  -0.35631  -0.23100  -0.20192  -0.01304
 Alpha virt. eigenvalues --    0.04656   0.05730   0.05883   0.06646   0.06995
 Alpha virt. eigenvalues --    0.07084   0.07525   0.07890   0.10163   0.11451
 Alpha virt. eigenvalues --    0.11701   0.14457   0.16490   0.17017   0.17288

 Mulliken charges:
               1
     1  P    7.365799
     2  N   -0.938351
     3  O   -2.291833
     4  C   -6.074638
     5  H    1.067341
     6  H    1.147343
     7  C   -6.080549
     8  H    1.142501
     9  H    1.017786
    10  H    1.121567
    11  H    1.049208
    12  H    0.862037
    13  H    0.611790
 Sum of Mulliken charges =  -0.00000

 Dipole moment (field-independent basis, Debye):
    X=              1.9082    Y=             -0.1157    Z=             -0.6057  Tot=              2.0054

 Test job not archived.
 1\1\GINC-SE094\SP\RHF\Aug-CC-pVDZ\C2H8N1O1P1\OHZDE\08-Apr-2025\0\\#t h
 f aug-cc-pvdz iop(5/13=1,5/36=2,99/5=2) pseudo=read geom=check guess=(
 read,tcheck) scf=(maxcycle=1)\\title\\0,1\P,0,-0.572437,0.000652,-0.66
 1238\N,0,1.158303,-0.116453,-0.648477\O,0,1.789768,0.112173,0.637121\C
 ,0,-0.947169,1.414228,0.479781\H,0,-0.706157,2.357734,-0.015612\H,0,-0
 .378769,1.340376,1.408604\C,0,-0.957848,-1.407705,0.468504\H,0,-0.4106
 2,-1.325452,1.410373\H,0,-0.697121,-2.346409,-0.024196\H,0,-2.03015,-1
 .416515,0.678307\H,0,-2.017361,1.416687,0.704625\H,0,2.253815,-0.71804

 Normal termination of Gaussian 16 at Tue Apr  8 23:37:08 2025.
