 Gaussian 16, Revision C.01,

 ----------------------------------------------------------------------
 #t hf aug-cc-pvdz symm=none int=(grid=ultrafine) guess=(read,tcheck) s
 table=(opt,rrhf)
 ----------------------------------------------------------------------
 -----
 title
 -----
 Symbolic Z-matrix:
 Charge =  0 Multiplicity = 1

 SCF Done:  E(RHF) =  -866.165367489     A.U. after   12 cycles
 Normal termination of Gaussian 16 at Tue Apr  8 23:45:59 2025.
 Gaussian 16:  ES64L-G16RevC.01  3-Jul-2019

 ----------------------------------------------------------------------
 #t hf aug-cc-pvdz iop(5/13=1,5/36=2,99/5=2) pseudo=read geom=check gue
 ss=(read,tcheck) scf=(maxcycle=1)
 ----------------------------------------------------------------------
 -----
 title
 -----
 Structure from the checkpoint file:  "BDE49_nonexpt_1752_mol1.chk"
 Charge =  0 Multiplicity = 1

                         Standard orientation:
 ---------------------------------------------------------------------
 Center     Atomic      Atomic             Coordinates (Angstroms)
 Number     Number       Type             X           Y           Z
 ---------------------------------------------------------------------
      1         14           0       -0.388268   -0.695189    0.534183
      2          6           0        1.257979   -0.015737   -0.018051
      3          6           0        2.114747   -0.849772   -0.618628
      4         17           0       -1.955311    0.348739   -0.381554
      5          6           0        1.592828    1.433063    0.247856
      6          1           0        1.870201   -1.888095   -0.818886
      7          1           0        3.102268   -0.521619   -0.937235
      8          1           0        0.880167    2.097175   -0.251303
      9          1           0        2.596965    1.681404   -0.105609
     10          1           0        1.540928    1.662818    1.317634
     11          1           0       -0.594717   -0.519046    1.986612
     12          1           0       -0.513085   -2.113874    0.149589
 ---------------------------------------------------------------------

 SCF Done:  E(RHF) =  -867.159943881     A.U. after    2 cycles

 The electronic state is 1-A.
 Alpha  occ. eigenvalues --  -99.87664 -76.25646 -11.42403 -11.40085 -11.36976
 Alpha  occ. eigenvalues --  -10.45041  -9.64960  -9.64337  -9.64301  -5.59250
 Alpha  occ. eigenvalues --   -2.23388  -2.21778  -2.21069  -1.28185  -1.21044
 Alpha  occ. eigenvalues --   -1.00672  -0.82458  -0.73297  -0.62893  -0.59038
 Alpha  occ. eigenvalues --   -0.58028  -0.54552  -0.54135  -0.52403  -0.50258
 Alpha  occ. eigenvalues --   -0.46797  -0.40670  -0.37012
 Alpha virt. eigenvalues --    0.03219   0.05405   0.05515   0.05735   0.06093
 Alpha virt. eigenvalues --    0.06179   0.07211   0.07911   0.09100   0.09668
 Alpha virt. eigenvalues --    0.10490   0.11888   0.13172   0.14168   0.14339

 Mulliken charges:
               1
     1  Si   5.538807
     2  C   -0.150027
     3  C   -3.202092
     4  Cl  -0.947394
     5  C   -4.395828
     6  H    1.533971
     7  H    1.532554
     8  H    1.213188
     9  H    1.324762
    10  H    1.260825
    11  H   -1.954291
    12  H   -1.754474
 Sum of Mulliken charges =   0.00000

 Dipole moment (field-independent basis, Debye):
    X=              2.3620    Y=             -0.3935    Z=              0.2300  Tot=              2.4055

 Test job not archived.
 1\1\GINC-SE127\SP\RHF\Aug-CC-pVDZ\C3H7Cl1Si1\OHZDE\08-Apr-2025\0\\#t h
 f aug-cc-pvdz iop(5/13=1,5/36=2,99/5=2) pseudo=read geom=check guess=(
 read,tcheck) scf=(maxcycle=1)\\title\\0,1\Si,0,-0.388268,-0.695189,0.5
 34183\C,0,1.257979,-0.015737,-0.018051\C,0,2.114747,-0.849772,-0.61862
 8\Cl,0,-1.955311,0.348739,-0.381554\C,0,1.592828,1.433063,0.247856\H,0
 ,1.870201,-1.888095,-0.818886\H,0,3.102268,-0.521619,-0.937235\H,0,0.8
 80167,2.097175,-0.251303\H,0,2.596965,1.681404,-0.105609\H,0,1.540928,
 1.662818,1.317634\H,0,-0.594717,-0.519046,1.986612\H,0,-0.513085,-2.11

 Normal termination of Gaussian 16 at Tue Apr  8 23:46:03 2025.
