 Gaussian 16, Revision C.01,

 ----------------------------------------------------------------------
 #t hf aug-cc-pvdz symm=none int=(grid=ultrafine) guess=(read,tcheck) s
 table=(opt,rrhf)
 ----------------------------------------------------------------------
 -----
 title
 -----
 Symbolic Z-matrix:
 Charge =  0 Multiplicity = 1

 SCF Done:  E(RHF) =  -725.335162359     A.U. after   14 cycles
 Normal termination of Gaussian 16 at Wed Apr  9 00:23:45 2025.
 Gaussian 16:  ES64L-G16RevC.01  3-Jul-2019

 ----------------------------------------------------------------------
 #t hf aug-cc-pvdz iop(5/13=1,5/36=2,99/5=2) pseudo=read geom=check gue
 ss=(read,tcheck) scf=(maxcycle=1)
 ----------------------------------------------------------------------
 -----
 title
 -----
 Structure from the checkpoint file:  "BDE49_nonexpt_2682_mol1.chk"
 Charge =  0 Multiplicity = 1

                         Standard orientation:
 ---------------------------------------------------------------------
 Center     Atomic      Atomic             Coordinates (Angstroms)
 Number     Number       Type             X           Y           Z
 ---------------------------------------------------------------------
      1          9           0        2.347160    0.252163    0.345783
      2         16           0        1.132103   -0.762647   -0.191490
      3          6           0       -0.308384    0.286777    0.250423
      4          8           0       -1.321609   -0.477837   -0.336605
      5          8           0       -0.230096    1.585813   -0.212932
      6          6           0       -2.613533   -0.296239    0.251145
      7          1           0       -2.625059   -0.648844    1.288564
      8          1           0       -3.307640   -0.890567   -0.340448
      9          1           0       -2.908062    0.756312    0.214796
     10          1           0       -0.040097    1.550802   -1.160217
     11          1           0       -0.412082    0.358138    1.335977
 ---------------------------------------------------------------------

 SCF Done:  E(RHF) =  -726.894915184     A.U. after    2 cycles

 The electronic state is 1-A.
 Alpha  occ. eigenvalues --  -75.75607 -29.26634 -21.10448 -21.08253 -13.20818
 Alpha  occ. eigenvalues --  -13.16070 -13.07460 -11.48941 -11.42710  -8.09595
 Alpha  occ. eigenvalues --   -1.84060  -1.70480  -1.21584  -1.02988  -0.91086
 Alpha  occ. eigenvalues --   -0.72375  -0.66486  -0.65109  -0.60481  -0.58381
 Alpha  occ. eigenvalues --   -0.54906  -0.49972  -0.41017  -0.40779  -0.36304
 Alpha  occ. eigenvalues --   -0.33136  -0.31772  -0.26758  -0.17914
 Alpha virt. eigenvalues --    0.03250   0.05323   0.05607   0.06116   0.06560
 Alpha virt. eigenvalues --    0.07481   0.10255   0.12471   0.13032   0.14009
 Alpha virt. eigenvalues --    0.14797   0.16126   0.16544   0.16727   0.17535

 Mulliken charges:
               1
     1  F   -0.283359
     2  S    0.679824
     3  C    1.164410
     4  O   -2.630207
     5  O   -2.593885
     6  C   -2.773292
     7  H    1.308856
     8  H    1.269764
     9  H    1.297893
    10  H    0.728646
    11  H    1.831350
 Sum of Mulliken charges =  -0.00000

 Dipole moment (field-independent basis, Debye):
    X=              1.0230    Y=              0.7026    Z=              0.5942  Tot=              1.3760

 Test job not archived.
 1\1\GINC-SE363\SP\RHF\Aug-CC-pVDZ\C2H5F1O2S1\OHZDE\09-Apr-2025\0\\#t h
 f aug-cc-pvdz iop(5/13=1,5/36=2,99/5=2) pseudo=read geom=check guess=(
 read,tcheck) scf=(maxcycle=1)\\title\\0,1\F,0,2.34716,0.252163,0.34578
 3\S,0,1.132103,-0.762647,-0.19149\C,0,-0.308384,0.286777,0.250423\O,0,
 -1.321609,-0.477837,-0.336605\O,0,-0.230096,1.585813,-0.212932\C,0,-2.
 613533,-0.296239,0.251145\H,0,-2.625059,-0.648844,1.288564\H,0,-3.3076
 4,-0.890567,-0.340448\H,0,-2.908062,0.756312,0.214796\H,0,-0.040097,1.
 550802,-1.160217\H,0,-0.412082,0.358138,1.335977\\Version=ES64L-G16Rev

 Normal termination of Gaussian 16 at Wed Apr  9 00:23:48 2025.
