 Gaussian 16, Revision C.01,

 ----------------------------------------------------------------------
 #t hf aug-cc-pvdz symm=none int=(grid=ultrafine) guess=(read,tcheck) s
 table=(opt,rrhf)
 ----------------------------------------------------------------------
 -----
 title
 -----
 Symbolic Z-matrix:
 Charge =  0 Multiplicity = 1

 SCF Done:  E(RHF) =  -558.090888627     A.U. after   13 cycles
 Normal termination of Gaussian 16 at Tue Apr  8 23:59:47 2025.
 Gaussian 16:  ES64L-G16RevC.01  3-Jul-2019

 ----------------------------------------------------------------------
 #t hf aug-cc-pvdz iop(5/13=1,5/36=2,99/5=2) pseudo=read geom=check gue
 ss=(read,tcheck) scf=(maxcycle=1)
 ----------------------------------------------------------------------
 -----
 title
 -----
 Structure from the checkpoint file:  "BDE49_nonexpt_2071_mol1.chk"
 Charge =  0 Multiplicity = 1

                         Standard orientation:
 ---------------------------------------------------------------------
 Center     Atomic      Atomic             Coordinates (Angstroms)
 Number     Number       Type             X           Y           Z
 ---------------------------------------------------------------------
      1         14           0       -1.787562   -0.446302   -0.169318
      2          6           0       -0.012825    0.248201    0.073734
      3          8           0        0.816927   -0.864429   -0.245399
      4          8           0        0.172436    0.645830    1.435463
      5          6           0        2.230121   -0.659046   -0.173374
      6          1           0        2.599128   -0.079286   -1.026276
      7          1           0        2.681635   -1.650510   -0.200224
      8          1           0        2.510002   -0.157322    0.756935
      9          6           0        0.283059    1.490310   -0.760818
     10          1           0        0.254717    1.250242   -1.825898
     11          1           0        1.267130    1.895076   -0.511414
     12          1           0       -0.455572    2.266503   -0.553244
     13          1           0        0.000227   -0.125084    1.989185
     14          1           0       -1.996431   -1.492843    0.860490
     15          1           0       -1.977291   -1.024731   -1.518606
     16          1           0       -2.774706    0.638189    0.041746
 ---------------------------------------------------------------------

 SCF Done:  E(RHF) =  -559.483367686     A.U. after    2 cycles

 The electronic state is 1-A.
 Alpha  occ. eigenvalues --  -76.21177 -21.07459 -21.04838 -11.46475 -11.40303
 Alpha  occ. eigenvalues --  -11.36988  -5.54761  -2.19335  -2.17289  -2.17242
 Alpha  occ. eigenvalues --   -1.79594  -1.66545  -1.10670  -0.99976  -0.83653
 Alpha  occ. eigenvalues --   -0.75884  -0.64434  -0.63213  -0.61647  -0.56911
 Alpha  occ. eigenvalues --   -0.55737  -0.50976  -0.49393  -0.46904  -0.46337
 Alpha  occ. eigenvalues --   -0.45559  -0.35189  -0.31456  -0.29281
 Alpha virt. eigenvalues --    0.03655   0.04828   0.05456   0.05610   0.05864
 Alpha virt. eigenvalues --    0.06284   0.06438   0.06606   0.08744   0.09466
 Alpha virt. eigenvalues --    0.09740   0.10041   0.11151   0.13123   0.13902

 Mulliken charges:
               1
     1  Si   5.810864
     2  C    4.094455
     3  O   -3.394736
     4  O   -3.182616
     5  C   -3.118008
     6  H    1.491001
     7  H    1.326455
     8  H    1.299278
     9  C   -3.759801
    10  H    1.313733
    11  H    1.298080
    12  H    1.318108
    13  H    0.699652
    14  H   -1.733643
    15  H   -1.768080
    16  H   -1.694742
 Sum of Mulliken charges =  -0.00000

 Dipole moment (field-independent basis, Debye):
    X=              0.8482    Y=              0.1592    Z=             -0.0026  Tot=              0.8630

 Test job not archived.
 1\1\GINC-SE340\SP\RHF\Aug-CC-pVDZ\C3H10O2Si1\OHZDE\08-Apr-2025\0\\#t h
 f aug-cc-pvdz iop(5/13=1,5/36=2,99/5=2) pseudo=read geom=check guess=(
 read,tcheck) scf=(maxcycle=1)\\title\\0,1\Si,0,-1.787562,-0.446302,-0.
 169318\C,0,-0.012825,0.248201,0.073734\O,0,0.816927,-0.864429,-0.24539
 9\O,0,0.172436,0.64583,1.435463\C,0,2.230121,-0.659046,-0.173374\H,0,2
 .599128,-0.079286,-1.026276\H,0,2.681635,-1.65051,-0.200224\H,0,2.5100
 02,-0.157322,0.756935\C,0,0.283059,1.49031,-0.760818\H,0,0.254717,1.25
 0242,-1.825898\H,0,1.26713,1.895076,-0.511414\H,0,-0.455572,2.266503,-

 Normal termination of Gaussian 16 at Tue Apr  8 23:59:51 2025.
