 Gaussian 16, Revision C.01,

 ----------------------------------------------------------------------
 #t hf aug-cc-pvdz symm=none int=(grid=ultrafine) guess=(read,tcheck) s
 table=(opt,rrhf)
 ----------------------------------------------------------------------
 -----
 title
 -----
 Symbolic Z-matrix:
 Charge =  0 Multiplicity = 1

 SCF Done:  E(RHF) =  -1559.97167520     A.U. after   14 cycles
 Normal termination of Gaussian 16 at Wed Apr  9 00:13:21 2025.
 Gaussian 16:  ES64L-G16RevC.01  3-Jul-2019

 ----------------------------------------------------------------------
 #t hf aug-cc-pvdz iop(5/13=1,5/36=2,99/5=2) pseudo=read geom=check gue
 ss=(read,tcheck) scf=(maxcycle=1)
 ----------------------------------------------------------------------
 -----
 title
 -----
 Structure from the checkpoint file:  "BDE49_nonexpt_2428_mol1.chk"
 Charge =  0 Multiplicity = 1

                         Standard orientation:
 ---------------------------------------------------------------------
 Center     Atomic      Atomic             Coordinates (Angstroms)
 Number     Number       Type             X           Y           Z
 ---------------------------------------------------------------------
      1         14           0        0.946115    1.762175   -0.710059
      2         14           0       -0.946103    1.762171    0.710062
      3          7           0       -1.947557    0.408921    0.355988
      4          1           0       -1.737054    2.993145    0.484727
      5          1           0       -0.543185    1.682600    2.130418
      6          6           0       -2.599886   -0.547143    0.066697
      7         16           0       -3.468952   -1.807851   -0.311659
      8          7           0        1.947572    0.408925   -0.355989
      9          1           0        1.737064    2.993150   -0.484720
     10          1           0        0.543197    1.682608   -2.130415
     11          6           0        2.599900   -0.547139   -0.066701
     12         16           0        3.468928   -1.807873    0.311657
 ---------------------------------------------------------------------

 SCF Done:  E(RHF) =  -1561.53644818     A.U. after    2 cycles

 The electronic state is 1-A.
 Alpha  occ. eigenvalues --  -76.27586 -76.27585 -75.69711 -75.69708 -15.78647
 Alpha  occ. eigenvalues --  -15.78643 -13.23134 -13.23044 -13.01309 -13.01198
 Alpha  occ. eigenvalues --  -13.01075 -13.00957 -11.55516 -11.55375  -8.03998
 Alpha  occ. eigenvalues --   -8.03996  -5.61148  -5.61137  -2.26687  -2.26636
 Alpha  occ. eigenvalues --   -2.22949  -2.22850  -2.22338  -2.21529  -1.40043
 Alpha  occ. eigenvalues --   -1.39791  -1.15656  -1.15594  -0.89614  -0.84702
 Alpha  occ. eigenvalues --   -0.66527  -0.63113  -0.57650  -0.57598  -0.56988
 Alpha  occ. eigenvalues --   -0.55953  -0.54489  -0.54138  -0.49769  -0.49348
 Alpha  occ. eigenvalues --   -0.39658  -0.28155  -0.28015  -0.27736  -0.26909
 Alpha virt. eigenvalues --    0.02723   0.03905   0.04091   0.04759   0.06438
 Alpha virt. eigenvalues --    0.06732   0.06937   0.07163   0.07276   0.07729
 Alpha virt. eigenvalues --    0.07995   0.08073   0.09750   0.10463   0.11263

 Mulliken charges:
               1
     1  Si   4.072234
     2  Si   4.072241
     3  N   -3.585428
     4  H   -1.643580
     5  H   -1.549310
     6  C    1.012544
     7  S    1.693538
     8  N   -3.585428
     9  H   -1.643579
    10  H   -1.549310
    11  C    1.012548
    12  S    1.693531
 Sum of Mulliken charges =  -0.00000

 Dipole moment (field-independent basis, Debye):
    X=             -0.0001    Y=             -3.8245    Z=              0.0000  Tot=              3.8245

 Test job not archived.
 1\1\GINC-SE103\SP\RHF\Aug-CC-pVDZ\C2H4N2S2Si2\OHZDE\09-Apr-2025\0\\#t
 hf aug-cc-pvdz iop(5/13=1,5/36=2,99/5=2) pseudo=read geom=check guess=
 (read,tcheck) scf=(maxcycle=1)\\title\\0,1\Si,0,-0.946115,-1.762175,-0
 .710059\Si,0,0.946103,-1.762171,0.710062\N,0,1.947557,-0.408921,0.3559
 88\H,0,1.737054,-2.993145,0.484727\H,0,0.543185,-1.6826,2.130418\C,0,2
 .599886,0.547143,0.066697\S,0,3.468952,1.807851,-0.311659\N,0,-1.94757
 2,-0.408925,-0.355989\H,0,-1.737064,-2.99315,-0.48472\H,0,-0.543197,-1
 .682608,-2.130415\C,0,-2.5999,0.547139,-0.066701\S,0,-3.468928,1.80787

 Normal termination of Gaussian 16 at Wed Apr  9 00:13:28 2025.
