 Gaussian 16, Revision C.01,

 ----------------------------------------------------------------------
 #t hf aug-cc-pvdz symm=none int=(grid=ultrafine) guess=(read,tcheck) s
 table=(opt,rrhf)
 ----------------------------------------------------------------------
 -----
 title
 -----
 Symbolic Z-matrix:
 Charge =  0 Multiplicity = 1

 SCF Done:  E(RHF) =  -497.289441185     A.U. after   17 cycles
 Normal termination of Gaussian 16 at Tue Apr  8 22:47:11 2025.
 Gaussian 16:  ES64L-G16RevC.01  3-Jul-2019

 ----------------------------------------------------------------------
 #t hf aug-cc-pvdz iop(5/13=1,5/36=2,99/5=2) pseudo=read geom=check gue
 ss=(read,tcheck) scf=(maxcycle=1)
 ----------------------------------------------------------------------
 -----
 title
 -----
 Structure from the checkpoint file:  "BDE49_expt_1437_mol1.chk"
 Charge =  0 Multiplicity = 1

                         Standard orientation:
 ---------------------------------------------------------------------
 Center     Atomic      Atomic             Coordinates (Angstroms)
 Number     Number       Type             X           Y           Z
 ---------------------------------------------------------------------
      1          6           0       -1.708818    1.184748   -0.000000
      2          6           0       -0.843778    2.305111   -0.000000
      3          6           0        0.517373    2.151142   -0.000001
      4          6           0        1.088080    0.849479   -0.000001
      5          6           0        0.232603   -0.294211   -0.000000
      6          6           0       -1.185168   -0.090573   -0.000000
      7          6           0        2.491745    0.642939   -0.000001
      8          6           0        3.022110   -0.624744   -0.000001
      9          6           0        2.170624   -1.751485   -0.000000
     10          6           0        0.804923   -1.590088   -0.000000
     11          1           0        2.598182   -2.747819   -0.000000
     12          1           0        0.146176   -2.448216    0.000001
     13          1           0        3.143631    1.510306   -0.000002
     14          1           0        4.097545   -0.763827   -0.000001
     15          1           0       -1.279634    3.297979   -0.000001
     16          1           0        1.173339    3.014454   -0.000001
     17          1           0       -2.777886    1.346837    0.000001
     18          8           0       -1.929493   -1.231862    0.000001
     19          6           0       -3.344906   -1.119070    0.000002
     20          1           0       -3.704471   -0.597538   -0.893916
     21          1           0       -3.704469   -0.597537    0.893921
     22          1           0       -3.725207   -2.139238    0.000003
 ---------------------------------------------------------------------

 SCF Done:  E(RHF) =  -499.626296098     A.U. after    2 cycles

 The electronic state is 1-A.
 Alpha  occ. eigenvalues --  -21.07591 -11.53383 -11.49975 -11.46250 -11.43245
 Alpha  occ. eigenvalues --  -11.42843 -11.42113 -11.41313 -11.40892 -11.40807
 Alpha  occ. eigenvalues --  -11.38893 -11.36189  -1.79251  -1.37570  -1.22971
 Alpha  occ. eigenvalues --   -1.13158  -1.08084  -1.04269  -0.99115  -0.88525
 Alpha  occ. eigenvalues --   -0.87556  -0.81667  -0.72546  -0.69986  -0.67407
 Alpha  occ. eigenvalues --   -0.63585  -0.62656  -0.61114  -0.58066  -0.55160
 Alpha  occ. eigenvalues --   -0.54525  -0.54172  -0.52724  -0.49262  -0.45941
 Alpha  occ. eigenvalues --   -0.43985  -0.41943  -0.41487  -0.38593  -0.32889
 Alpha  occ. eigenvalues --   -0.31419  -0.24338
 Alpha virt. eigenvalues --    0.03345   0.04420   0.04975   0.05892   0.06143
 Alpha virt. eigenvalues --    0.06304   0.06367   0.06878   0.08016   0.09176
 Alpha virt. eigenvalues --    0.09917   0.10450   0.10692   0.10898   0.12187

 Mulliken charges:
               1
     1  C   -5.425190
     2  C   -2.141917
     3  C   -3.855395
     4  C    6.260410
     5  C    5.179006
     6  C    4.863391
     7  C   -2.747833
     8  C   -4.080318
     9  C   -2.456155
    10  C   -2.652821
    11  H    1.451801
    12  H    2.051208
    13  H    1.627107
    14  H    1.475845
    15  H    1.478492
    16  H    1.710812
    17  H    1.948990
    18  O   -5.172051
    19  C   -3.687036
    20  H    1.323456
    21  H    1.323456
    22  H    1.524742
 Sum of Mulliken charges =   0.00000

 Dipole moment (field-independent basis, Debye):
    X=             -1.0272    Y=             -0.6731    Z=              0.0000  Tot=              1.2281

 Test job not archived.
 1\1\GINC-SE342\SP\RHF\Aug-CC-pVDZ\C11H10O1\OHZDE\08-Apr-2025\0\\#t hf
 aug-cc-pvdz iop(5/13=1,5/36=2,99/5=2) pseudo=read geom=check guess=(re
 ad,tcheck) scf=(maxcycle=1)\\title\\0,1\C,0,-1.708818,1.184748,0.\C,0,
 -0.843778,2.305111,0.\C,0,0.517373,2.151142,-0.000001\C,0,1.08808,0.84
 9479,-0.000001\C,0,0.232603,-0.294211,0.\C,0,-1.185168,-0.090573,0.\C,
 0,2.491745,0.642939,-0.000001\C,0,3.02211,-0.624744,-0.000001\C,0,2.17
 0624,-1.751485,0.\C,0,0.804923,-1.590088,0.\H,0,2.598182,-2.747819,0.\
 H,0,0.146176,-2.448216,0.000001\H,0,3.143631,1.510306,-0.000002\H,0,4.

 Normal termination of Gaussian 16 at Tue Apr  8 22:47:27 2025.
