 Gaussian 16, Revision C.01,

 ----------------------------------------------------------------------
 #t hf aug-cc-pvdz symm=none int=(grid=ultrafine) guess=(read,tcheck) s
 table=(opt,rrhf)
 ----------------------------------------------------------------------
 -----
 title
 -----
 Symbolic Z-matrix:
 Charge =  0 Multiplicity = 1

 SCF Done:  E(RHF) =  -329.300283350     A.U. after   12 cycles
 Normal termination of Gaussian 16 at Wed Apr  9 00:40:35 2025.
 Gaussian 16:  ES64L-G16RevC.01  3-Jul-2019

 ----------------------------------------------------------------------
 #t hf aug-cc-pvdz iop(5/13=1,5/36=2,99/5=2) pseudo=read geom=check gue
 ss=(read,tcheck) scf=(maxcycle=1)
 ----------------------------------------------------------------------
 -----
 title
 -----
 Structure from the checkpoint file:  "BDE49_nonexpt_638_mol1.chk"
 Charge =  0 Multiplicity = 1

                         Standard orientation:
 ---------------------------------------------------------------------
 Center     Atomic      Atomic             Coordinates (Angstroms)
 Number     Number       Type             X           Y           Z
 ---------------------------------------------------------------------
      1          6           0       -1.393653   -0.202772   -0.614786
      2          8           0       -0.128294   -0.779435   -0.262600
      3          5           0        0.966763   -0.000952   -0.028724
      4          8           0        2.155058   -0.593821    0.315881
      5          8           0        0.899856    1.363087   -0.135098
      6          6           0       -2.216026    0.120399    0.623647
      7          1           0       -1.902571   -0.946297   -1.232728
      8          1           0       -1.234969    0.696024   -1.216664
      9          1           0       -2.342856   -0.770521    1.243550
     10          1           0       -3.206955    0.485701    0.337841
     11          1           0       -1.726221    0.893608    1.219958
     12          1           0        1.751461    1.772965    0.039604
     13          1           0        2.073414   -1.551131    0.353438
 ---------------------------------------------------------------------

 SCF Done:  E(RHF) =  -330.724067039     A.U. after    2 cycles

 The electronic state is 1-A.
 Alpha  occ. eigenvalues --  -21.05386 -21.05236 -21.01873 -11.43213 -11.36213
 Alpha  occ. eigenvalues --   -7.64892  -1.88332  -1.68540  -1.65793  -1.12041
 Alpha  occ. eigenvalues --   -0.89272  -0.74998  -0.67502  -0.62175  -0.60029
 Alpha  occ. eigenvalues --   -0.56007  -0.52511  -0.51106  -0.49171  -0.48827
 Alpha  occ. eigenvalues --   -0.38203  -0.36465  -0.35487  -0.33690
 Alpha virt. eigenvalues --    0.03550   0.04743   0.05057   0.05255   0.06394
 Alpha virt. eigenvalues --    0.06774   0.07071   0.07619   0.08053   0.08612
 Alpha virt. eigenvalues --    0.10234   0.12824   0.14448   0.15144   0.16213

 Mulliken charges:
               1
     1  C   -1.381947
     2  O   -4.945887
     3  B    8.984743
     4  O   -3.941019
     5  O   -4.002465
     6  C   -3.622201
     7  H    1.352621
     8  H    1.650330
     9  H    1.347638
    10  H    1.184065
    11  H    1.220898
    12  H    1.036325
    13  H    1.116899
 Sum of Mulliken charges =  -0.00000

 Dipole moment (field-independent basis, Debye):
    X=             -0.3985    Y=              0.0127    Z=             -0.1280  Tot=              0.4188

 Test job not archived.
 1\1\GINC-SE096\SP\RHF\Aug-CC-pVDZ\C2H7B1O3\OHZDE\09-Apr-2025\0\\#t hf
 aug-cc-pvdz iop(5/13=1,5/36=2,99/5=2) pseudo=read geom=check guess=(re
 ad,tcheck) scf=(maxcycle=1)\\title\\0,1\C,0,-1.393653,-0.202772,-0.614
 786\O,0,-0.128294,-0.779435,-0.2626\B,0,0.966763,-0.000952,-0.028724\O
 ,0,2.155058,-0.593821,0.315881\O,0,0.899856,1.363087,-0.135098\C,0,-2.
 216026,0.120399,0.623647\H,0,-1.902571,-0.946297,-1.232728\H,0,-1.2349
 69,0.696024,-1.216664\H,0,-2.342856,-0.770521,1.24355\H,0,-3.206955,0.
 485701,0.337841\H,0,-1.726221,0.893608,1.219958\H,0,1.751461,1.772965,

 Normal termination of Gaussian 16 at Wed Apr  9 00:40:39 2025.
