 Gaussian 16, Revision C.01,

 ----------------------------------------------------------------------
 #t hf aug-cc-pvdz symm=none int=(grid=ultrafine) guess=(read,tcheck) s
 table=(opt,rrhf)
 ----------------------------------------------------------------------
 -----
 title
 -----
 Symbolic Z-matrix:
 Charge =  0 Multiplicity = 1

 SCF Done:  E(RHF) =  -689.165888972     A.U. after   15 cycles

 1\1\GINC-SE128\Stability\RHF\Aug-CC-pVDZ\C9H13P1\OHZDE\08-Apr-2025\0\\
 #t hf aug-cc-pvdz symm=none int=(grid=ultrafine) guess=(read,tcheck) s
 table=(opt,rrhf)\\title\\0,1\P,0,1.956353,-0.361541,-0.495961\C,0,3.54
 3626,-0.373403,0.470672\C,0,-0.690324,-0.210267,0.508967\C,0,1.890731,
 1.433839,-0.960399\H,0,2.648532,1.63336,-1.722105\H,0,2.064985,2.09657
 5,-0.106605\H,0,0.91429,1.661667,-1.392657\H,0,3.576959,0.405547,1.239
 055\H,0,4.382397,-0.226688,-0.214351\H,0,3.673643,-1.347638,0.948498\C
 ,0,-1.376768,0.990024,0.723043\C,0,-1.366523,-1.253753,-0.136813\C,0,-

 Normal termination of Gaussian 16 at Tue Apr  8 23:30:23 2025.
 Gaussian 16:  ES64L-G16RevC.01  3-Jul-2019

 ----------------------------------------------------------------------
 #t hf aug-cc-pvdz iop(5/13=1,5/36=2,99/5=2) pseudo=read geom=check gue
 ss=(read,tcheck) scf=(maxcycle=1)
 ----------------------------------------------------------------------
 -----
 title
 -----
 Structure from the checkpoint file:  "BDE49_nonexpt_1296_mol1.chk"
 Charge =  0 Multiplicity = 1

                         Standard orientation:
 ---------------------------------------------------------------------
 Center     Atomic      Atomic             Coordinates (Angstroms)
 Number     Number       Type             X           Y           Z
 ---------------------------------------------------------------------
      1         15           0        1.956353   -0.361541   -0.495961
      2          6           0        3.543626   -0.373403    0.470672
      3          6           0       -0.690324   -0.210267    0.508967
      4          6           0        1.890731    1.433839   -0.960399
      5          1           0        2.648532    1.633360   -1.722105
      6          1           0        2.064985    2.096575   -0.106605
      7          1           0        0.914290    1.661667   -1.392657
      8          1           0        3.576959    0.405547    1.239055
      9          1           0        4.382397   -0.226688   -0.214351
     10          1           0        3.673643   -1.347638    0.948498
     11          6           0       -1.376768    0.990024    0.723043
     12          6           0       -1.366523   -1.253753   -0.136813
     13          6           0       -2.686805   -1.102746   -0.549922
     14          6           0       -3.359139    0.098377   -0.328831
     15          6           0       -2.698711    1.144813    0.309372
     16          1           0       -3.212468    2.082713    0.489987
     17          1           0       -0.872987    1.809195    1.226174
     18          1           0       -3.192526   -1.924767   -1.044565
     19          1           0       -4.388183    0.215600   -0.649220
     20          1           0       -0.850373   -2.191045   -0.316732
     21          6           0        0.745197   -0.371357    0.943610
     22          1           0        0.882634   -1.335108    1.444669
     23          1           0        1.020104    0.410536    1.659077
 ---------------------------------------------------------------------

 SCF Done:  E(RHF) =  -691.104723411     A.U. after    2 cycles

 The electronic state is 1-A.
 Alpha  occ. eigenvalues -- -105.16004 -11.51329 -11.43605 -11.42756 -11.40420
 Alpha  occ. eigenvalues --  -11.40025 -11.39074 -11.36748 -11.36533 -11.35663
 Alpha  occ. eigenvalues --   -2.74267  -1.47351  -1.46779  -1.44065  -1.33917
 Alpha  occ. eigenvalues --   -1.13255  -1.08615  -1.03468  -0.96331  -0.95878
 Alpha  occ. eigenvalues --   -0.85900  -0.82322  -0.70183  -0.64637  -0.63904
 Alpha  occ. eigenvalues --   -0.60876  -0.57495  -0.57157  -0.56702  -0.55870
 Alpha  occ. eigenvalues --   -0.54600  -0.53989  -0.51917  -0.49647  -0.43946
 Alpha  occ. eigenvalues --   -0.43563  -0.33932  -0.32609  -0.20228  -0.19151
 Alpha  occ. eigenvalues --   -0.01039
 Alpha virt. eigenvalues --    0.04317   0.04911   0.05060   0.05666   0.05894
 Alpha virt. eigenvalues --    0.06164   0.06564   0.06698   0.07275   0.07585
 Alpha virt. eigenvalues --    0.07982   0.08613   0.10002   0.10431   0.10819

 Mulliken charges:
               1
     1  P    8.486614
     2  C   -6.133735
     3  C    5.477637
     4  C   -6.668284
     5  H    1.008656
     6  H    0.996179
     7  H    1.409586
     8  H    0.937790
     9  H    1.135366
    10  H    1.042398
    11  C   -2.602462
    12  C   -3.332933
    13  C   -2.028625
    14  C   -3.175129
    15  C   -1.554042
    16  H    1.426330
    17  H    1.682648
    18  H    1.458782
    19  H    1.412335
    20  H    1.700179
    21  C   -5.219293
    22  H    0.901759
    23  H    1.638244
 Sum of Mulliken charges =  -0.00000

 Dipole moment (field-independent basis, Debye):
    X=              0.4019    Y=             -2.1145    Z=             -1.5317  Tot=              2.6417

 Test job not archived.
 1\1\GINC-SE128\SP\RHF\Aug-CC-pVDZ\C9H13P1\OHZDE\08-Apr-2025\0\\#t hf a
 ug-cc-pvdz iop(5/13=1,5/36=2,99/5=2) pseudo=read geom=check guess=(rea
 d,tcheck) scf=(maxcycle=1)\\title\\0,1\P,0,1.956353,-0.361541,-0.49596
 1\C,0,3.543626,-0.373403,0.470672\C,0,-0.690324,-0.210267,0.508967\C,0
 ,1.890731,1.433839,-0.960399\H,0,2.648532,1.63336,-1.722105\H,0,2.0649
 85,2.096575,-0.106605\H,0,0.91429,1.661667,-1.392657\H,0,3.576959,0.40
 5547,1.239055\H,0,4.382397,-0.226688,-0.214351\H,0,3.673643,-1.347638,
 0.948498\C,0,-1.376768,0.990024,0.723043\C,0,-1.366523,-1.253753,-0.13

 Normal termination of Gaussian 16 at Tue Apr  8 23:30:38 2025.
