 Gaussian 16, Revision C.01,

 ----------------------------------------------------------------------
 #t hf aug-cc-pvdz symm=none int=(grid=ultrafine) guess=(read,tcheck) s
 table=(opt,rrhf)
 ----------------------------------------------------------------------
 -----
 title
 -----
 Symbolic Z-matrix:
 Charge =  0 Multiplicity = 1

 SCF Done:  E(RHF) =  -498.012976479     A.U. after   13 cycles
 Normal termination of Gaussian 16 at Tue Apr  8 23:53:24 2025.
 Gaussian 16:  ES64L-G16RevC.01  3-Jul-2019

 ----------------------------------------------------------------------
 #t hf aug-cc-pvdz iop(5/13=1,5/36=2,99/5=2) pseudo=read geom=check gue
 ss=(read,tcheck) scf=(maxcycle=1)
 ----------------------------------------------------------------------
 -----
 title
 -----
 Structure from the checkpoint file:  "BDE49_nonexpt_1923_mol1.chk"
 Charge =  0 Multiplicity = 1

                         Standard orientation:
 ---------------------------------------------------------------------
 Center     Atomic      Atomic             Coordinates (Angstroms)
 Number     Number       Type             X           Y           Z
 ---------------------------------------------------------------------
      1         14           0       -1.788826   -0.308095   -0.186602
      2          6           0       -0.381317    0.586890    0.725877
      3          1           0       -2.363350    0.586394   -1.219621
      4          1           0       -2.854007   -0.652256    0.785366
      5          1           0       -1.296129   -1.540866   -0.836236
      6          6           0        0.739329    0.971312   -0.184237
      7          7           0        1.785114    0.292733   -0.456095
      8          1           0        0.693083    1.920462   -0.712431
      9          8           0        1.800902   -0.935378    0.235739
     10          1           0        2.634457   -1.319211   -0.052523
     11          1           0       -0.015774   -0.077264    1.512107
     12          1           0       -0.805813    1.480750    1.192686
 ---------------------------------------------------------------------

 SCF Done:  E(RHF) =  -499.112623431     A.U. after    2 cycles

 The electronic state is 1-A.
 Alpha  occ. eigenvalues --  -76.21993 -21.09338 -15.77654 -11.44441 -11.37342
 Alpha  occ. eigenvalues --   -5.55454  -2.19088  -2.17748  -2.17620  -1.78097
 Alpha  occ. eigenvalues --   -1.27382  -1.06786  -0.80412  -0.75290  -0.67188
 Alpha  occ. eigenvalues --   -0.59720  -0.55652  -0.52870  -0.52666  -0.47086
 Alpha  occ. eigenvalues --   -0.46769  -0.42997  -0.34918  -0.29200
 Alpha virt. eigenvalues --    0.03768   0.04824   0.05594   0.05830   0.06289
 Alpha virt. eigenvalues --    0.07144   0.07947   0.08864   0.09466   0.10787
 Alpha virt. eigenvalues --    0.12452   0.12966   0.14122   0.14570   0.15416

 Mulliken charges:
               1
     1  Si   6.127591
     2  C   -4.179887
     3  H   -1.761013
     4  H   -1.701860
     5  H   -1.649128
     6  C    0.909892
     7  N   -0.835853
     8  H    1.552235
     9  O   -2.283581
    10  H    0.933969
    11  H    1.568293
    12  H    1.319341
 Sum of Mulliken charges =  -0.00000

 Dipole moment (field-independent basis, Debye):
    X=             -0.4033    Y=             -0.0149    Z=              0.9963  Tot=              1.0749

 Test job not archived.
 1\1\GINC-SE284\SP\RHF\Aug-CC-pVDZ\C2H7N1O1Si1\OHZDE\08-Apr-2025\0\\#t
 hf aug-cc-pvdz iop(5/13=1,5/36=2,99/5=2) pseudo=read geom=check guess=
 (read,tcheck) scf=(maxcycle=1)\\title\\0,1\Si,0,-1.788826,-0.308095,-0
 .186602\C,0,-0.381317,0.58689,0.725877\H,0,-2.36335,0.586394,-1.219621
 \H,0,-2.854007,-0.652256,0.785366\H,0,-1.296129,-1.540866,-0.836236\C,
 0,0.739329,0.971312,-0.184237\N,0,1.785114,0.292733,-0.456095\H,0,0.69
 3083,1.920462,-0.712431\O,0,1.800902,-0.935378,0.235739\H,0,2.634457,-
 1.319211,-0.052523\H,0,-0.015774,-0.077264,1.512107\H,0,-0.805813,1.48

 Normal termination of Gaussian 16 at Tue Apr  8 23:53:27 2025.
