 Gaussian 16, Revision C.01,

 ----------------------------------------------------------------------
 #t hf aug-cc-pvdz symm=none int=(grid=ultrafine) guess=(read,tcheck) s
 table=(opt,rrhf)
 ----------------------------------------------------------------------
 -----
 title
 -----
 Symbolic Z-matrix:
 Charge =  0 Multiplicity = 1

 SCF Done:  E(RHF) =  -799.227291882     A.U. after   16 cycles
 Normal termination of Gaussian 16 at Wed Apr  9 00:07:03 2025.
 Gaussian 16:  ES64L-G16RevC.01  3-Jul-2019

 ----------------------------------------------------------------------
 #t hf aug-cc-pvdz iop(5/13=1,5/36=2,99/5=2) pseudo=read geom=check gue
 ss=(read,tcheck) scf=(maxcycle=1)
 ----------------------------------------------------------------------
 -----
 title
 -----
 Structure from the checkpoint file:  "BDE49_nonexpt_2206_mol1.chk"
 Charge =  0 Multiplicity = 1

                         Standard orientation:
 ---------------------------------------------------------------------
 Center     Atomic      Atomic             Coordinates (Angstroms)
 Number     Number       Type             X           Y           Z
 ---------------------------------------------------------------------
      1          6           0        1.701700    1.399896    0.000103
      2          6           0        1.290270    0.074860    0.000145
      3          6           0       -0.049155   -0.300209    0.000103
      4          6           0        0.717340    2.386126    0.000024
      5          6           0       -0.630048    2.046566   -0.000015
      6          6           0       -1.018815    0.701548    0.000024
      7          1           0        1.005570    3.430392   -0.000008
      8          1           0       -1.402629    2.805258   -0.000077
      9          8           0       -2.353013    0.436807   -0.000018
     10         14           0       -3.181493   -1.013013    0.000011
     11          1           0       -0.300106   -1.352305    0.000137
     12          1           0        2.755865    1.635023    0.000135
     13          7           0        2.315579   -0.995971    0.000233
     14          8           0        3.489833   -0.655461   -0.000261
     15          8           0        1.924422   -2.155706   -0.000263
     16          1           0       -4.601653   -0.626783   -0.000059
     17          1           0       -2.841489   -1.797681    1.206834
     18          1           0       -2.841398   -1.797782   -1.206720
 ---------------------------------------------------------------------

 SCF Done:  E(RHF) =  -801.622582666     A.U. after    2 cycles

 The electronic state is 1-A.
 Alpha  occ. eigenvalues --  -76.26127 -21.09691 -21.09566 -21.08888 -16.00231
 Alpha  occ. eigenvalues --  -11.56252 -11.50362 -11.47364 -11.45154 -11.44746
 Alpha  occ. eigenvalues --  -11.40704  -5.59604  -2.26158  -2.21652  -2.21159
 Alpha  occ. eigenvalues --   -2.00044  -1.76261  -1.69279  -1.36269  -1.17814
 Alpha  occ. eigenvalues --   -1.11375  -1.00906  -0.90597  -0.83590  -0.77591
 Alpha  occ. eigenvalues --   -0.74689  -0.69453  -0.67837  -0.65493  -0.63561
 Alpha  occ. eigenvalues --   -0.60209  -0.59141  -0.57594  -0.51804  -0.50997
 Alpha  occ. eigenvalues --   -0.50722  -0.48076  -0.44988  -0.40464  -0.36785
 Alpha  occ. eigenvalues --   -0.35759  -0.32171  -0.31294  -0.30577
 Alpha virt. eigenvalues --    0.02933   0.04378   0.04771   0.05597   0.05669
 Alpha virt. eigenvalues --    0.06476   0.07025   0.07336   0.09051   0.09138
 Alpha virt. eigenvalues --    0.09746   0.10790   0.11793   0.12416   0.12698

 Mulliken charges:
               1
     1  C   -3.395892
     2  C    3.236981
     3  C   -3.920336
     4  C    1.260237
     5  C   -5.037389
     6  C    7.156825
     7  H    1.498793
     8  H    1.817385
     9  O   -5.024697
    10  Si   6.423524
    11  H    2.112420
    12  H    1.818297
    13  N    3.459848
    14  O   -3.082190
    15  O   -2.989925
    16  H   -1.838879
    17  H   -1.747501
    18  H   -1.747499
 Sum of Mulliken charges =  -0.00000

 Dipole moment (field-independent basis, Debye):
    X=             -2.4185    Y=              2.3540    Z=             -0.0003  Tot=              3.3750

 Test job not archived.
 1\1\GINC-SE340\SP\RHF\Aug-CC-pVDZ\C6H7N1O3Si1\OHZDE\09-Apr-2025\0\\#t
 hf aug-cc-pvdz iop(5/13=1,5/36=2,99/5=2) pseudo=read geom=check guess=
 (read,tcheck) scf=(maxcycle=1)\\title\\0,1\C,0,-1.7017,1.399896,-0.000
 103\C,0,-1.29027,0.07486,-0.000145\C,0,0.049155,-0.300209,-0.000103\C,
 0,-0.71734,2.386126,-0.000024\C,0,0.630048,2.046566,0.000015\C,0,1.018
 815,0.701548,-0.000024\H,0,-1.00557,3.430392,0.000008\H,0,1.402629,2.8
 05258,0.000077\O,0,2.353013,0.436807,0.000018\Si,0,3.181493,-1.013013,
 -0.000011\H,0,0.300106,-1.352305,-0.000137\H,0,-2.755865,1.635023,-0.0

 Normal termination of Gaussian 16 at Wed Apr  9 00:07:12 2025.
