 Gaussian 16, Revision C.01,

 ----------------------------------------------------------------------
 #t hf aug-cc-pvdz symm=none int=(grid=ultrafine) guess=(read,tcheck) s
 table=(opt,rrhf)
 ----------------------------------------------------------------------
 -----
 title
 -----
 Symbolic Z-matrix:
 Charge =  0 Multiplicity = 1

 SCF Done:  E(RHF) =  -540.948221641     A.U. after   14 cycles
 Normal termination of Gaussian 16 at Tue Apr  8 23:20:53 2025.
 Gaussian 16:  ES64L-G16RevC.01  3-Jul-2019

 ----------------------------------------------------------------------
 #t hf aug-cc-pvdz iop(5/13=1,5/36=2,99/5=2) pseudo=read geom=check gue
 ss=(read,tcheck) scf=(maxcycle=1)
 ----------------------------------------------------------------------
 -----
 title
 -----
 Structure from the checkpoint file:  "BDE49_nonexpt_112_mol1.chk"
 Charge =  0 Multiplicity = 1

                         Standard orientation:
 ---------------------------------------------------------------------
 Center     Atomic      Atomic             Coordinates (Angstroms)
 Number     Number       Type             X           Y           Z
 ---------------------------------------------------------------------
      1          5           0       -1.747714    1.377519    0.000035
      2          5           0       -1.514006   -0.256447    0.000121
      3         16           0        0.087796   -1.085839    0.000024
      4          6           0        1.194621    0.221407   -0.000057
      5          7           0        1.976076    1.074665   -0.000102
      6          1           0       -2.391324   -1.063492   -0.000110
      7          1           0       -1.852617    1.990268    1.018126
      8          1           0       -1.852448    1.990191   -1.018120
 ---------------------------------------------------------------------

 SCF Done:  E(RHF) =  -541.800887287     A.U. after    2 cycles

 The electronic state is 1-A.
 Alpha  occ. eigenvalues --  -75.75480 -15.78088 -13.23533 -13.17287 -13.09638
 Alpha  occ. eigenvalues --  -11.45400  -8.09649  -7.64900  -7.62339  -1.34296
 Alpha  occ. eigenvalues --   -1.21295  -0.93380  -0.77092  -0.63240  -0.53598
 Alpha  occ. eigenvalues --   -0.51495  -0.51149  -0.49573  -0.44709  -0.35423
 Alpha  occ. eigenvalues --   -0.31900
 Alpha virt. eigenvalues --    0.00798   0.01531   0.02514   0.03708   0.06872
 Alpha virt. eigenvalues --    0.07245   0.07841   0.08897   0.09696   0.10870
 Alpha virt. eigenvalues --    0.11200   0.12487   0.12647   0.12819   0.13309

 Mulliken charges:
               1
     1  B    5.229232
     2  B    3.518153
     3  S   -0.304893
     4  C    0.580501
     5  N   -1.934101
     6  H   -2.232015
     7  H   -2.428491
     8  H   -2.428387
 Sum of Mulliken charges =  -0.00000

 Dipole moment (field-independent basis, Debye):
    X=             -1.9212    Y=             -3.4431    Z=              0.0001  Tot=              3.9429

 Test job not archived.
 1\1\GINC-SE173\SP\RHF\Aug-CC-pVDZ\C1H3B2N1S1\OHZDE\08-Apr-2025\0\\#t h
 f aug-cc-pvdz iop(5/13=1,5/36=2,99/5=2) pseudo=read geom=check guess=(
 read,tcheck) scf=(maxcycle=1)\\title\\0,1\B,0,-1.747714,1.377519,0.000
 035\B,0,-1.514006,-0.256447,0.000121\S,0,0.087796,-1.085839,0.000024\C
 ,0,1.194621,0.221407,-0.000057\N,0,1.976076,1.074665,-0.000102\H,0,-2.
 391324,-1.063491,-0.00011\H,0,-1.852616,1.990269,1.018126\H,0,-1.85244
 7,1.990192,-1.01812\\Version=ES64L-G16RevC.01\State=1-A\HF=-541.800887
 3\RMSD=1.671e-01\Dipole=-0.755848,-1.3546374,0.0000465\Quadrupole=-1.3

 Normal termination of Gaussian 16 at Tue Apr  8 23:20:56 2025.
