 Gaussian 16, Revision C.01,

 ----------------------------------------------------------------------
 #t hf aug-cc-pvdz symm=none int=(grid=ultrafine) guess=(read,tcheck) s
 table=(opt,rrhf)
 ----------------------------------------------------------------------
 -----
 title
 -----
 Symbolic Z-matrix:
 Charge =  0 Multiplicity = 1

 SCF Done:  E(RHF) =  -517.909034057     A.U. after   13 cycles
 Normal termination of Gaussian 16 at Tue Apr  8 23:51:21 2025.
 Gaussian 16:  ES64L-G16RevC.01  3-Jul-2019

 ----------------------------------------------------------------------
 #t hf aug-cc-pvdz iop(5/13=1,5/36=2,99/5=2) pseudo=read geom=check gue
 ss=(read,tcheck) scf=(maxcycle=1)
 ----------------------------------------------------------------------
 -----
 title
 -----
 Structure from the checkpoint file:  "BDE49_nonexpt_1887_mol1.chk"
 Charge =  0 Multiplicity = 1

                         Standard orientation:
 ---------------------------------------------------------------------
 Center     Atomic      Atomic             Coordinates (Angstroms)
 Number     Number       Type             X           Y           Z
 ---------------------------------------------------------------------
      1          6           0       -0.251564    0.533574   -0.000008
      2         14           0       -2.062955   -0.019073   -0.000002
      3          8           0        0.571897   -0.664557    0.000009
      4          6           0        1.902774   -0.465972    0.000008
      5          1           0       -2.906314    1.199136   -0.000022
      6          1           0       -2.350784   -0.820672    1.209372
      7          1           0       -2.350781   -0.820709   -1.209350
      8          8           0        2.453022    0.598131   -0.000005
      9          1           0        2.404036   -1.444270    0.000022
     10          1           0       -0.010701    1.139677    0.878098
     11          1           0       -0.010699    1.139653   -0.878130
 ---------------------------------------------------------------------

 SCF Done:  E(RHF) =  -519.046074887     A.U. after    2 cycles

 The electronic state is 1-A.
 Alpha  occ. eigenvalues --  -76.22402 -21.10475 -21.06519 -11.51016 -11.40628
 Alpha  occ. eigenvalues --   -5.55959  -2.19829  -2.18275  -2.18133  -1.84279
 Alpha  occ. eigenvalues --   -1.67057  -1.03666  -0.83892  -0.76594  -0.68210
 Alpha  occ. eigenvalues --   -0.64486  -0.57165  -0.51816  -0.48189  -0.47537
 Alpha  occ. eigenvalues --   -0.45885  -0.41797  -0.33173  -0.31506
 Alpha virt. eigenvalues --    0.03623   0.04549   0.05473   0.05621   0.06864
 Alpha virt. eigenvalues --    0.08213   0.08633   0.09238   0.09767   0.11241
 Alpha virt. eigenvalues --    0.11507   0.12718   0.14389   0.15036   0.16317

 Mulliken charges:
               1
     1  C   -2.849612
     2  Si   5.902680
     3  O   -2.566706
     4  C    2.390997
     5  H   -1.641420
     6  H   -1.659380
     7  H   -1.659382
     8  O   -2.434258
     9  H    1.619116
    10  H    1.448983
    11  H    1.448983
 Sum of Mulliken charges =   0.00000

 Dipole moment (field-independent basis, Debye):
    X=             -0.8438    Y=             -0.2763    Z=             -0.0000  Tot=              0.8879

 Test job not archived.
 1\1\GINC-SE363\SP\RHF\Aug-CC-pVDZ\C2H6O2Si1\OHZDE\08-Apr-2025\0\\#t hf
  aug-cc-pvdz iop(5/13=1,5/36=2,99/5=2) pseudo=read geom=check guess=(r
 ead,tcheck) scf=(maxcycle=1)\\title\\0,1\C,0,-0.251564,0.533574,-0.000
 008\Si,0,-2.062955,-0.019073,-0.000002\O,0,0.571897,-0.664557,0.000009
 \C,0,1.902774,-0.465972,0.000008\H,0,-2.906314,1.199136,-0.000022\H,0,
 -2.350784,-0.820672,1.209372\H,0,-2.350781,-0.820709,-1.20935\O,0,2.45
 3022,0.598131,-0.000005\H,0,2.404036,-1.44427,0.000022\H,0,-0.010701,1
 .139677,0.878098\H,0,-0.010699,1.139653,-0.87813\\Version=ES64L-G16Rev

 Normal termination of Gaussian 16 at Tue Apr  8 23:51:25 2025.
