 Gaussian 16, Revision C.01,

 ----------------------------------------------------------------------
 #t hf aug-cc-pvdz symm=none int=(grid=ultrafine) guess=(read,tcheck) s
 table=opt
 ----------------------------------------------------------------------
 -----
 title
 -----
 Symbolic Z-matrix:
 Charge =  0 Multiplicity = 2

 SCF Done:  E(UHF) =  -1600.44127615     A.U. after   16 cycles
 Normal termination of Gaussian 16 at Tue Apr  8 23:15:14 2025.
 Gaussian 16:  ES64L-G16RevC.01  3-Jul-2019

 ----------------------------------------------------------------------
 #t hf aug-cc-pvdz iop(5/13=1,5/36=2,99/5=2) pseudo=read geom=check gue
 ss=(read,tcheck) scf=(maxcycle=1)
 ----------------------------------------------------------------------
 -----
 title
 -----
 Structure from the checkpoint file:  "BDE49_expt_805_mol2.chk"
 Charge =  0 Multiplicity = 2

                         Standard orientation:
 ---------------------------------------------------------------------
 Center     Atomic      Atomic             Coordinates (Angstroms)
 Number     Number       Type             X           Y           Z
 ---------------------------------------------------------------------
      1         14           0       -0.625442    0.237054   -0.000000
      2         16           0       -0.632650   -1.118871    1.681011
      3         16           0       -0.632650   -1.118871   -1.681011
      4         16           0        1.050080    1.622206   -0.000000
      5          6           0       -0.632650    0.072858    3.085291
      6          1           0        0.146929    0.822439    2.957798
      7          1           0       -0.429556   -0.515214    3.979926
      8          1           0       -1.605765    0.551928    3.180725
      9          6           0       -0.632650    0.072858   -3.085291
     10          1           0       -0.429556   -0.515214   -3.979926
     11          1           0        0.146929    0.822439   -2.957798
     12          1           0       -1.605765    0.551928   -3.180725
     13          6           0        2.520222    0.503861    0.000000
     14          1           0        2.525415   -0.119589   -0.892290
     15          1           0        2.525415   -0.119589    0.892290
     16          1           0        3.396146    1.153221    0.000000
 ---------------------------------------------------------------------

 SCF Done:  E(UHF) =  -1601.87525301     A.U. after    2 cycles

 The electronic state is 2-A'.
 Alpha  occ. eigenvalues --  -76.28101 -75.68081 -75.68021 -75.67928 -13.11661
 Alpha  occ. eigenvalues --  -13.10314 -13.09777 -13.07335 -13.07112 -13.06412
 Alpha  occ. eigenvalues --  -13.05526 -13.03628 -13.02927 -11.40447 -11.40263
 Alpha  occ. eigenvalues --  -11.40179  -8.02140  -8.02033  -8.01957  -5.61376
 Alpha  occ. eigenvalues --   -2.23126  -2.23080  -2.21815  -1.20767  -1.17135
 Alpha  occ. eigenvalues --   -1.16648  -0.95925  -0.93496  -0.93058  -0.67080
 Alpha  occ. eigenvalues --   -0.59789  -0.59577  -0.59136  -0.59046  -0.58608
 Alpha  occ. eigenvalues --   -0.57251  -0.47537  -0.42100  -0.41286  -0.35010
 Alpha  occ. eigenvalues --   -0.34133  -0.28223  -0.26213  -0.23966  -0.21079
 Alpha virt. eigenvalues --    0.02503   0.02515   0.03371   0.04931   0.05715
 Alpha virt. eigenvalues --    0.07042   0.07442   0.07553   0.08049   0.08305
 Alpha virt. eigenvalues --    0.08403   0.09139   0.09357   0.11123   0.12506

  Beta  occ. eigenvalues --  -76.27578 -75.67979 -75.67928 -75.67831 -13.11507
  Beta  occ. eigenvalues --  -13.09921 -13.09568 -13.07211 -13.07016 -13.06345
  Beta  occ. eigenvalues --  -13.05412 -13.03172 -13.02601 -11.40434 -11.40261
  Beta  occ. eigenvalues --  -11.40099  -8.02026  -8.01916  -8.01837  -5.60516
  Beta  occ. eigenvalues --   -2.22614  -2.22559  -2.18675  -1.20056  -1.16742
  Beta  occ. eigenvalues --   -1.16062  -0.95296  -0.92965  -0.92701  -0.63720
  Beta  occ. eigenvalues --   -0.59740  -0.59388  -0.59055  -0.58978  -0.58569
  Beta  occ. eigenvalues --   -0.55622  -0.46207  -0.41390  -0.41175  -0.33378
  Beta  occ. eigenvalues --   -0.32222  -0.26745  -0.25367  -0.23806
  Beta virt. eigenvalues --    0.01253   0.02650   0.02866   0.04709   0.05603
  Beta virt. eigenvalues --    0.06150   0.07061   0.07480   0.07604   0.08360
  Beta virt. eigenvalues --    0.08472   0.08907   0.09485   0.09777   0.11320

 Mulliken charges and spin densities:
               1          2
     1  Si   4.241104   0.797526
     2  S   -0.936775   0.080382
     3  S   -0.936775   0.080382
     4  S   -1.016311  -0.009579
     5  C   -4.775363  -0.000749
     6  H    1.402456   0.002597
     7  H    1.390938   0.002386
     8  H    1.485015  -0.023589
     9  C   -4.775363  -0.000749
    10  H    1.390938   0.002386
    11  H    1.402456   0.002597
    12  H    1.485015  -0.023589
    13  C   -4.585935   0.089223
    14  H    1.393765  -0.002951
    15  H    1.393765  -0.002951
    16  H    1.441072   0.006678
 Sum of Mulliken charges =  -0.00000   1.00000

 Dipole moment (field-independent basis, Debye):
    X=              0.8997    Y=             -1.1056    Z=              0.0000  Tot=              1.4254
                          Isotropic Fermi Contact Couplings
        Atom                 a.u.       MegaHertz       Gauss      10(-4) cm-1
     1  Si(29)             0.41907    -372.43732    -132.89490    -124.23172
     2  S(33)              0.03332      11.44515       4.08391       3.81769
     3  S(33)              0.03332      11.44515       4.08391       3.81769
     4  S(33)              0.25822      88.69073      31.64706      29.58404
     5  C(13)              0.00482       5.42062       1.93421       1.80813
     6  H(1)               0.00003       0.12150       0.04336       0.04053
     7  H(1)              -0.00020      -0.90560      -0.32314      -0.30208
     8  H(1)               0.00021       0.93540       0.33377       0.31201

 Normal termination of Gaussian 16 at Tue Apr  8 23:15:24 2025.
