 Gaussian 16, Revision C.01,

 ----------------------------------------------------------------------
 #t hf aug-cc-pvdz symm=none int=(grid=ultrafine) guess=(read,tcheck) s
 table=(opt,rrhf)
 ----------------------------------------------------------------------
 -----
 title
 -----
 Symbolic Z-matrix:
 Charge =  0 Multiplicity = 1

 SCF Done:  E(RHF) =  -1138.42023109     A.U. after   15 cycles
 Normal termination of Gaussian 16 at Wed Apr  9 00:22:17 2025.
 Gaussian 16:  ES64L-G16RevC.01  3-Jul-2019

 ----------------------------------------------------------------------
 #t hf aug-cc-pvdz iop(5/13=1,5/36=2,99/5=2) pseudo=read geom=check gue
 ss=(read,tcheck) scf=(maxcycle=1)
 ----------------------------------------------------------------------
 -----
 title
 -----
 Structure from the checkpoint file:  "BDE49_nonexpt_2647_mol1.chk"
 Charge =  0 Multiplicity = 1

                         Standard orientation:
 ---------------------------------------------------------------------
 Center     Atomic      Atomic             Coordinates (Angstroms)
 Number     Number       Type             X           Y           Z
 ---------------------------------------------------------------------
      1          9           0       -2.409310    0.867313    0.117330
      2         16           0       -1.755735   -0.638668   -0.066558
      3         15           0        1.028503   -0.029140   -0.095229
      4          8           0        1.424716   -0.951649   -1.153966
      5          8           0        2.036412    0.165315    1.114914
      6          1           0        2.523724   -0.641146    1.322319
      7          8           0        0.705006    1.464152   -0.514696
      8          1           0        1.015674    1.668262   -1.404874
      9          8           0       -0.315057   -0.449961    0.743740
 ---------------------------------------------------------------------

 SCF Done:  E(RHF) =  -1140.41089862     A.U. after    2 cycles

 The electronic state is 1-A.
 Alpha  occ. eigenvalues -- -105.35087 -75.82393 -29.29579 -21.14102 -21.14032
 Alpha  occ. eigenvalues --  -21.13102 -21.04952 -13.29158 -13.22680 -13.15687
 Alpha  occ. eigenvalues --   -8.15953  -2.98458  -2.03698  -1.95360  -1.93636
 Alpha  occ. eigenvalues --   -1.78115  -1.48164  -1.42637  -1.28100  -1.14532
 Alpha  occ. eigenvalues --   -0.73817  -0.68715  -0.62318  -0.59100  -0.55718
 Alpha  occ. eigenvalues --   -0.49794  -0.46239  -0.45387  -0.42953  -0.37372
 Alpha  occ. eigenvalues --   -0.36700  -0.34208  -0.33667  -0.31533  -0.30467
 Alpha  occ. eigenvalues --   -0.20052  -0.15189
 Alpha virt. eigenvalues --    0.03521   0.05424   0.06801   0.09159   0.10641
 Alpha virt. eigenvalues --    0.11078   0.12508   0.13524   0.14050   0.17441
 Alpha virt. eigenvalues --    0.18859   0.19934   0.20697   0.20893   0.22116

 Mulliken charges:
               1
     1  F   -0.208861
     2  S    0.934094
     3  P    8.172943
     4  O   -2.710097
     5  O   -2.683734
     6  H    0.832286
     7  O   -2.661318
     8  H    0.859866
     9  O   -2.535179
 Sum of Mulliken charges =  -0.00000

 Dipole moment (field-independent basis, Debye):
    X=             -1.1413    Y=              3.6949    Z=              1.8449  Tot=              4.2847

 Test job not archived.
 1\1\GINC-SE044\SP\RHF\Aug-CC-pVDZ\F1H2O4P1S1\OHZDE\09-Apr-2025\0\\#t h
 f aug-cc-pvdz iop(5/13=1,5/36=2,99/5=2) pseudo=read geom=check guess=(
 read,tcheck) scf=(maxcycle=1)\\title\\0,1\F,0,-2.40931,0.867313,0.1173
 3\S,0,-1.755735,-0.638668,-0.066558\P,0,1.028503,-0.02914,-0.095229\O,
 0,1.424716,-0.951649,-1.153966\O,0,2.036412,0.165315,1.114914\H,0,2.52
 3724,-0.641146,1.322319\O,0,0.705006,1.464152,-0.514696\H,0,1.015674,1
 .668262,-1.404874\O,0,-0.315057,-0.449961,0.74374\\Version=ES64L-G16Re
 vC.01\State=1-A\HF=-1140.4108986\RMSD=8.394e-02\Dipole=-0.4490117,1.45

 Normal termination of Gaussian 16 at Wed Apr  9 00:22:21 2025.
