 Gaussian 16, Revision C.01,

 ----------------------------------------------------------------------
 #t hf aug-cc-pvdz symm=none int=(grid=ultrafine) guess=(read,tcheck) s
 table=(opt,rrhf)
 ----------------------------------------------------------------------
 -----
 title
 -----
 Symbolic Z-matrix:
 Charge =  0 Multiplicity = 1

 SCF Done:  E(RHF) =  -874.315836001     A.U. after   15 cycles
 Normal termination of Gaussian 16 at Tue Apr  8 23:19:04 2025.
 Gaussian 16:  ES64L-G16RevC.01  3-Jul-2019

 ----------------------------------------------------------------------
 #t hf aug-cc-pvdz iop(5/13=1,5/36=2,99/5=2) pseudo=read geom=check gue
 ss=(read,tcheck) scf=(maxcycle=1)
 ----------------------------------------------------------------------
 -----
 title
 -----
 Structure from the checkpoint file:  "BDE49_nonexpt_1070_mol1.chk"
 Charge =  0 Multiplicity = 1

                         Standard orientation:
 ---------------------------------------------------------------------
 Center     Atomic      Atomic             Coordinates (Angstroms)
 Number     Number       Type             X           Y           Z
 ---------------------------------------------------------------------
      1         17           0        2.879045   -0.128749   -0.133852
      2          8           0        1.259470   -0.724341   -0.247858
      3          6           0        0.323085    0.133800    0.264055
      4          8           0        0.489687    1.213348    0.716034
      5          8           0       -0.838174   -0.577214    0.181419
      6          6           0       -2.035471    0.092151   -0.168288
      7          8           0       -2.045309    1.157212   -0.689736
      8          6           0       -3.196358   -0.784568    0.192677
      9          1           0       -3.227087   -0.919109    1.276495
     10          1           0       -3.072288   -1.771450   -0.257158
     11          1           0       -4.117319   -0.321054   -0.153394
 ---------------------------------------------------------------------

 SCF Done:  E(RHF) =  -876.272472601     A.U. after    2 cycles

 The electronic state is 1-A.
 Alpha  occ. eigenvalues --  -99.96897 -21.16601 -21.13886 -21.09228 -21.09080
 Alpha  occ. eigenvalues --  -11.58024 -11.56305 -11.42106 -10.53578  -9.73476
 Alpha  occ. eigenvalues --   -9.72606  -9.72451  -1.95500  -1.81269  -1.72401
 Alpha  occ. eigenvalues --   -1.69626  -1.28216  -1.14223  -0.91092  -0.76654
 Alpha  occ. eigenvalues --   -0.68654  -0.68569  -0.66344  -0.63248  -0.62245
 Alpha  occ. eigenvalues --   -0.60389  -0.56009  -0.54568  -0.52815  -0.48914
 Alpha  occ. eigenvalues --   -0.46938  -0.38846  -0.36135  -0.33785  -0.31966
 Alpha virt. eigenvalues --    0.02011   0.03027   0.05544   0.05734   0.07564
 Alpha virt. eigenvalues --    0.08828   0.10918   0.11425   0.11998   0.12480
 Alpha virt. eigenvalues --    0.12651   0.13055   0.13757   0.14083   0.15296

 Mulliken charges:
               1
     1  Cl   0.519098
     2  O   -2.073551
     3  C    6.066619
     4  O   -2.433197
     5  O   -3.329929
     6  C    4.493430
     7  O   -2.893326
     8  C   -4.137081
     9  H    1.318325
    10  H    1.267183
    11  H    1.202428
 Sum of Mulliken charges =  -0.00000

 Dipole moment (field-independent basis, Debye):
    X=             -3.0612    Y=             -1.8115    Z=              0.1056  Tot=              3.5586

 Test job not archived.
 1\1\GINC-SE073\SP\RHF\Aug-CC-pVDZ\C3H3Cl1O4\OHZDE\08-Apr-2025\0\\#t hf
  aug-cc-pvdz iop(5/13=1,5/36=2,99/5=2) pseudo=read geom=check guess=(r
 ead,tcheck) scf=(maxcycle=1)\\title\\0,1\Cl,0,2.879045,-0.128749,-0.13
 3852\O,0,1.25947,-0.724341,-0.247858\C,0,0.323085,0.1338,0.264055\O,0,
 0.489687,1.213348,0.716034\O,0,-0.838174,-0.577214,0.181419\C,0,-2.035
 471,0.092151,-0.168288\O,0,-2.045309,1.157212,-0.689736\C,0,-3.196358,
 -0.784568,0.192677\H,0,-3.227087,-0.919109,1.276495\H,0,-3.072288,-1.7
 7145,-0.257158\H,0,-4.117319,-0.321054,-0.153394\\Version=ES64L-G16Rev

 Normal termination of Gaussian 16 at Tue Apr  8 23:19:09 2025.
