 Gaussian 16, Revision C.01,

 ----------------------------------------------------------------------
 #t hf aug-cc-pvdz symm=none int=(grid=ultrafine) guess=(read,tcheck) s
 table=(opt,rrhf)
 ----------------------------------------------------------------------
 -----
 title
 -----
 Symbolic Z-matrix:
 Charge =  0 Multiplicity = 1

 SCF Done:  E(RHF) =  -989.528237750     A.U. after   15 cycles
 Normal termination of Gaussian 16 at Wed Apr  9 00:20:39 2025.
 Gaussian 16:  ES64L-G16RevC.01  3-Jul-2019

 ----------------------------------------------------------------------
 #t hf aug-cc-pvdz iop(5/13=1,5/36=2,99/5=2) pseudo=read geom=check gue
 ss=(read,tcheck) scf=(maxcycle=1)
 ----------------------------------------------------------------------
 -----
 title
 -----
 Structure from the checkpoint file:  "BDE49_nonexpt_2610_mol1.chk"
 Charge =  0 Multiplicity = 1

                         Standard orientation:
 ---------------------------------------------------------------------
 Center     Atomic      Atomic             Coordinates (Angstroms)
 Number     Number       Type             X           Y           Z
 ---------------------------------------------------------------------
      1         16           0        0.745214    1.026608   -0.000001
      2         17           0        1.861656   -0.796989    0.000001
      3          7           0       -0.828630    0.687017   -0.000002
      4          6           0       -1.480856   -0.404796    0.000004
      5          6           0       -2.976585   -0.426533   -0.000001
      6          1           0       -3.379909    0.585921   -0.000012
      7          1           0       -3.349118   -0.962011    0.879823
      8          1           0       -3.349111   -0.962027   -0.879818
      9          1           0       -0.948382   -1.359930    0.000014
 ---------------------------------------------------------------------

 SCF Done:  E(RHF) =  -990.627417913     A.U. after    2 cycles

 The electronic state is 1-A.
 Alpha  occ. eigenvalues --  -99.89627 -75.76797 -15.78594 -13.27567 -13.12232
 Alpha  occ. eigenvalues --  -13.08062 -11.46746 -11.39767 -10.46680  -9.66446
 Alpha  occ. eigenvalues --   -9.65949  -9.65748  -8.10667  -1.45569  -1.29391
 Alpha  occ. eigenvalues --   -1.15468  -1.01007  -0.81099  -0.67157  -0.61231
 Alpha  occ. eigenvalues --   -0.60417  -0.55850  -0.54524  -0.52824  -0.48949
 Alpha  occ. eigenvalues --   -0.46569  -0.40630  -0.24507
 Alpha virt. eigenvalues --    0.02768   0.04842   0.05953   0.05992   0.06529
 Alpha virt. eigenvalues --    0.07933   0.09590   0.10488   0.12488   0.13432
 Alpha virt. eigenvalues --    0.13820   0.14195   0.15047   0.15989   0.16280

 Mulliken charges:
               1
     1  S    1.344659
     2  Cl  -0.484764
     3  N   -2.742787
     4  C    0.117914
     5  C   -3.601446
     6  H    1.327582
     7  H    1.227123
     8  H    1.227123
     9  H    1.584596
 Sum of Mulliken charges =  -0.00000

 Dipole moment (field-independent basis, Debye):
    X=             -2.1762    Y=              1.7654    Z=              0.0000  Tot=              2.8023

 Test job not archived.
 1\1\GINC-SE339\SP\RHF\Aug-CC-pVDZ\C2H4Cl1N1S1\OHZDE\09-Apr-2025\0\\#t
 hf aug-cc-pvdz iop(5/13=1,5/36=2,99/5=2) pseudo=read geom=check guess=
 (read,tcheck) scf=(maxcycle=1)\\title\\0,1\S,0,0.745214,1.026608,-0.00
 0001\Cl,0,1.861656,-0.796989,0.000001\N,0,-0.82863,0.687017,-0.000002\
 C,0,-1.480856,-0.404796,0.000004\C,0,-2.976585,-0.426533,-0.000001\H,0
 ,-3.379909,0.585921,-0.000012\H,0,-3.349118,-0.962011,0.879823\H,0,-3.
 349111,-0.962027,-0.879818\H,0,-0.948382,-1.35993,0.000014\\Version=ES
 64L-G16RevC.01\State=1-A\HF=-990.6274179\RMSD=1.675e-01\Dipole=-0.8561

 Normal termination of Gaussian 16 at Wed Apr  9 00:20:42 2025.
