 Gaussian 16, Revision C.01,

 ----------------------------------------------------------------------
 #t hf aug-cc-pvdz symm=none int=(grid=ultrafine) guess=(read,tcheck) s
 table=(opt,rrhf)
 ----------------------------------------------------------------------
 -----
 title
 -----
 Symbolic Z-matrix:
 Charge =  0 Multiplicity = 1

 SCF Done:  E(RHF) =  -1428.90024362     A.U. after   16 cycles
 Normal termination of Gaussian 16 at Tue Apr  8 23:56:03 2025.
 Gaussian 16:  ES64L-G16RevC.01  3-Jul-2019

 ----------------------------------------------------------------------
 #t hf aug-cc-pvdz iop(5/13=1,5/36=2,99/5=2) pseudo=read geom=check gue
 ss=(read,tcheck) scf=(maxcycle=1)
 ----------------------------------------------------------------------
 -----
 title
 -----
 Structure from the checkpoint file:  "BDE49_nonexpt_1946_mol1.chk"
 Charge =  0 Multiplicity = 1

                         Standard orientation:
 ---------------------------------------------------------------------
 Center     Atomic      Atomic             Coordinates (Angstroms)
 Number     Number       Type             X           Y           Z
 ---------------------------------------------------------------------
      1          6           0       -1.001383   -0.458308   -1.462719
      2         14           0        0.436088   -1.493011   -0.760283
      3          6           0        1.751185   -0.354767    0.014516
      4          1           0        1.068212   -2.207456   -1.894182
      5          1           0       -0.037582   -2.443364    0.259408
      6         16           0        2.438833   -0.637675    1.476412
      7          8           0        2.036001    0.657244   -0.806894
      8          6           0        3.001547    1.654374   -0.411343
      9          1           0        3.033622    2.357974   -1.239524
     10          1           0        3.975493    1.190614   -0.248852
     11          1           0        2.673772    2.144352    0.506171
     12          6           0       -1.836680    0.182102   -0.400254
     13         16           0       -1.637331    1.718000    0.157243
     14          8           0       -2.741674   -0.688786    0.055827
     15          6           0       -3.626660   -0.302003    1.121420
     16          1           0       -4.252530   -1.174465    1.296009
     17          1           0       -4.227611    0.557118    0.820529
     18          1           0       -3.054607   -0.046044    2.014094
     19          1           0       -1.619451   -1.140362   -2.055788
     20          1           0       -0.571269    0.302543   -2.113546
 ---------------------------------------------------------------------

 SCF Done:  E(RHF) =  -1431.06880070     A.U. after    2 cycles

 The electronic state is 1-A.
 Alpha  occ. eigenvalues --  -76.23987 -75.66199 -75.65357 -21.11440 -21.11417
 Alpha  occ. eigenvalues --  -13.14649 -13.13855 -13.03756 -13.03135 -12.99042
 Alpha  occ. eigenvalues --  -12.98142 -11.52649 -11.47714 -11.42447 -11.42170
 Alpha  occ. eigenvalues --  -11.39526  -8.00381  -7.99584  -5.57641  -2.22027
 Alpha  occ. eigenvalues --   -2.20833  -2.20093  -1.82751  -1.81711  -1.20441
 Alpha  occ. eigenvalues --   -1.15297  -1.06294  -1.02682  -1.01215  -0.83095
 Alpha  occ. eigenvalues --   -0.76207  -0.71665  -0.66190  -0.64506  -0.63800
 Alpha  occ. eigenvalues --   -0.62933  -0.62157  -0.56067  -0.55042  -0.52846
 Alpha  occ. eigenvalues --   -0.51364  -0.50318  -0.48598  -0.46590  -0.41203
 Alpha  occ. eigenvalues --   -0.38402  -0.36443  -0.27414  -0.26854  -0.22676
 Alpha  occ. eigenvalues --   -0.22080
 Alpha virt. eigenvalues --    0.02946   0.04081   0.04847   0.05479   0.05795
 Alpha virt. eigenvalues --    0.05869   0.06309   0.06491   0.06675   0.07480
 Alpha virt. eigenvalues --    0.08150   0.08548   0.08932   0.09455   0.09941

 Mulliken charges:
               1
     1  C   -5.112473
     2  Si   6.037477
     3  C    0.393454
     4  H   -2.069444
     5  H   -1.834233
     6  S    0.728043
     7  O   -3.368916
     8  C   -2.992192
     9  H    1.431195
    10  H    1.421099
    11  H    1.413406
    12  C    2.774311
    13  S    0.587159
    14  O   -3.617071
    15  C   -3.057911
    16  H    1.386499
    17  H    1.445573
    18  H    1.402702
    19  H    1.518751
    20  H    1.512572
 Sum of Mulliken charges =   0.00000

 Dipole moment (field-independent basis, Debye):
    X=             -0.1123    Y=              1.1299    Z=              0.9146  Tot=              1.4581

 Test job not archived.
 1\1\GINC-SE419\SP\RHF\Aug-CC-pVDZ\C5H10O2S2Si1\OHZDE\08-Apr-2025\0\\#t
  hf aug-cc-pvdz iop(5/13=1,5/36=2,99/5=2) pseudo=read geom=check guess
 =(read,tcheck) scf=(maxcycle=1)\\title\\0,1\C,0,1.001383,0.458308,-1.4
 62719\Si,0,-0.436088,1.493011,-0.760283\C,0,-1.751185,0.354767,0.01451
 6\H,0,-1.068212,2.207456,-1.894182\H,0,0.037582,2.443364,0.259408\S,0,
 -2.438833,0.637675,1.476412\O,0,-2.036001,-0.657244,-0.806894\C,0,-3.0
 01547,-1.654374,-0.411343\H,0,-3.033622,-2.357974,-1.239524\H,0,-3.975
 493,-1.190615,-0.248852\H,0,-2.673772,-2.144352,0.506171\C,0,1.83668,-

 Normal termination of Gaussian 16 at Tue Apr  8 23:56:14 2025.
