 Gaussian 16, Revision C.01,

 ----------------------------------------------------------------------
 #t hf aug-cc-pvdz symm=none int=(grid=ultrafine) guess=(read,tcheck) s
 table=opt
 ----------------------------------------------------------------------
 -----
 title
 -----
 Symbolic Z-matrix:
 Charge =  0 Multiplicity = 2

 SCF Done:  E(UHF) =  -622.672000520     A.U. after   16 cycles
 Normal termination of Gaussian 16 at Wed Apr  9 00:32:14 2025.
 Gaussian 16:  ES64L-G16RevC.01  3-Jul-2019

 ----------------------------------------------------------------------
 #t hf aug-cc-pvdz iop(5/13=1,5/36=2,99/5=2) pseudo=read geom=check gue
 ss=(read,tcheck) scf=(maxcycle=1)
 ----------------------------------------------------------------------
 -----
 title
 -----
 Structure from the checkpoint file:  "BDE49_nonexpt_363_mol2.chk"
 Charge =  0 Multiplicity = 2

                         Standard orientation:
 ---------------------------------------------------------------------
 Center     Atomic      Atomic             Coordinates (Angstroms)
 Number     Number       Type             X           Y           Z
 ---------------------------------------------------------------------
      1          9           0       -1.859234   -0.639843   -0.000010
      2          5           0       -1.386943    0.575082    0.000001
      3          6           0        0.107407    1.005809    0.000008
      4         17           0        1.316435   -0.375729    0.000001
      5          1           0        0.321992    1.617851    0.878622
      6          1           0        0.321997    1.617865   -0.878595
 ---------------------------------------------------------------------

 SCF Done:  E(UHF) =  -623.530498809     A.U. after    2 cycles

 The electronic state is 2-A.
 Alpha  occ. eigenvalues --  -99.88703 -29.27633 -11.42264 -10.45843  -9.65784
 Alpha  occ. eigenvalues --   -9.64986  -9.64957  -7.69873  -1.33377  -1.10339
 Alpha  occ. eigenvalues --   -0.92282  -0.65365  -0.62856  -0.61824  -0.49798
 Alpha  occ. eigenvalues --   -0.49133  -0.48312  -0.43750  -0.39445  -0.24850
 Alpha virt. eigenvalues --    0.02950   0.03520   0.04382   0.06354   0.08367
 Alpha virt. eigenvalues --    0.08462   0.12553   0.13448   0.13970   0.15504
 Alpha virt. eigenvalues --    0.16304   0.16497   0.17749   0.18026   0.18812

  Beta  occ. eigenvalues --  -99.88613 -29.27349 -11.41992 -10.45747  -9.65405
  Beta  occ. eigenvalues --   -9.64929  -9.64906  -7.68025  -1.32543  -1.08082
  Beta  occ. eigenvalues --   -0.90432  -0.65150  -0.60984  -0.60261  -0.48896
  Beta  occ. eigenvalues --   -0.48759  -0.43352  -0.42067  -0.37479
  Beta virt. eigenvalues --    0.01107   0.03645   0.04185   0.05484   0.07512
  Beta virt. eigenvalues --    0.08605   0.09757   0.13600   0.14509   0.15749
  Beta virt. eigenvalues --    0.16201   0.16649   0.17333   0.18093   0.19338

 Mulliken charges and spin densities:
               1          2
     1  F   -0.244213  -0.117692
     2  B    1.266291   1.031971
     3  C   -4.428137  -0.027329
     4  Cl  -0.050206   0.109833
     5  H    1.728133   0.001608
     6  H    1.728132   0.001608
 Sum of Mulliken charges =  -0.00000   1.00000

 Dipole moment (field-independent basis, Debye):
    X=             -2.5943    Y=             -1.5782    Z=             -0.0000  Tot=              3.0366
                          Isotropic Fermi Contact Couplings
        Atom                 a.u.       MegaHertz       Gauss      10(-4) cm-1
     1  F(19)              0.05519     232.18918      82.85087      77.44997
     2  B(11)              0.18039     258.74260      92.32579      86.30724
     3  C(13)              0.13314     149.67965      53.40942      49.92776
     4  Cl(35)             0.03222      14.12560       5.04036       4.71179
     5  H(1)              -0.00050      -2.25613      -0.80504      -0.75256
     6  H(1)              -0.00050      -2.25615      -0.80505      -0.75257
 --------------------------------------------------------
       Center         ----  Spin Dipole Couplings  ----

 1\1\GINC-SE141\SP\UHF\Aug-CC-pVDZ\C1H2B1Cl1F1(2)\OHZDE\09-Apr-2025\0\\
 #t hf aug-cc-pvdz iop(5/13=1,5/36=2,99/5=2) pseudo=read geom=check gue
 ss=(read,tcheck) scf=(maxcycle=1)\\title\\0,2\F,0,-1.859234,-0.639843,
 -0.00001\B,0,-1.386943,0.575082,0.000001\C,0,0.107407,1.005809,0.00000
 8\Cl,0,1.316435,-0.375729,0.000001\H,0,0.321992,1.617851,0.878622\H,0,
 0.321997,1.617865,-0.878595\\Version=ES64L-G16RevC.01\State=2-A\HF=-62
 3.5304988\S2=0.760826\S2-1=0.\S2A=0.750052\RMSD=6.589e-02\Dipole=-1.02
 06609,-0.6208931,-0.0000081\Quadrupole=-0.4872809,0.5396988,-0.0524179

 Normal termination of Gaussian 16 at Wed Apr  9 00:32:16 2025.
