 Gaussian 16, Revision C.01,

 ----------------------------------------------------------------------
 #t hf aug-cc-pvdz symm=none int=(grid=ultrafine) guess=(read,tcheck) s
 table=(opt,rrhf)
 ----------------------------------------------------------------------
 -----
 title
 -----
 Symbolic Z-matrix:
 Charge =  0 Multiplicity = 1

 SCF Done:  E(RHF) =  -614.646376089     A.U. after   14 cycles
 Normal termination of Gaussian 16 at Wed Apr  9 00:21:43 2025.
 Gaussian 16:  ES64L-G16RevC.01  3-Jul-2019

 ----------------------------------------------------------------------
 #t hf aug-cc-pvdz iop(5/13=1,5/36=2,99/5=2) pseudo=read geom=check gue
 ss=(read,tcheck) scf=(maxcycle=1)
 ----------------------------------------------------------------------
 -----
 title
 -----
 Structure from the checkpoint file:  "BDE49_nonexpt_2635_mol1.chk"
 Charge =  0 Multiplicity = 1

                         Standard orientation:
 ---------------------------------------------------------------------
 Center     Atomic      Atomic             Coordinates (Angstroms)
 Number     Number       Type             X           Y           Z
 ---------------------------------------------------------------------
      1          9           0       -1.941850    0.420893    0.232073
      2         16           0       -0.798002   -0.718388   -0.228097
      3          6           0        0.695488    0.129887    0.383812
      4          6           0        1.862216   -0.812927    0.061037
      5          1           0        1.738099   -1.792698    0.528703
      6          1           0        2.791180   -0.377339    0.437536
      7          1           0        1.972535   -0.952720   -1.017918
      8          6           0        0.853937    1.518776   -0.230256
      9          1           0        0.584844    0.209280    1.468766
     10          1           0        1.017881    1.450805   -1.308717
     11          1           0        1.708623    2.032863    0.221404
     12          1           0       -0.038334    2.121563   -0.056428
 ---------------------------------------------------------------------

 SCF Done:  E(RHF) =  -615.826472365     A.U. after    2 cycles

 The electronic state is 1-A.
 Alpha  occ. eigenvalues --  -75.74482 -29.25801 -13.19496 -13.15127 -13.07515
 Alpha  occ. eigenvalues --  -11.44231 -11.40086 -11.37332  -8.08414  -1.30114
 Alpha  occ. eigenvalues --   -1.11519  -1.02441  -0.84962  -0.68867  -0.63182
 Alpha  occ. eigenvalues --   -0.60440  -0.56307  -0.55388  -0.50188  -0.48379
 Alpha  occ. eigenvalues --   -0.43252  -0.38791  -0.32529  -0.26563  -0.16944
 Alpha virt. eigenvalues --    0.03240   0.05097   0.05356   0.06034   0.06512
 Alpha virt. eigenvalues --    0.07195   0.07403   0.08460   0.11839   0.12981
 Alpha virt. eigenvalues --    0.14237   0.14896   0.15161   0.15839   0.17017

 Mulliken charges:
               1
     1  F   -0.356930
     2  S    1.029874
     3  C   -3.291267
     4  C   -3.151550
     5  H    1.263921
     6  H    1.213573
     7  H    1.346920
     8  C   -3.381582
     9  H    1.628714
    10  H    1.296231
    11  H    1.230127
    12  H    1.171969
 Sum of Mulliken charges =  -0.00000

 Dipole moment (field-independent basis, Debye):
    X=             -1.2191    Y=              1.1702    Z=              0.6266  Tot=              1.8023

 Test job not archived.
 1\1\GINC-SE367\SP\RHF\Aug-CC-pVDZ\C3H7F1S1\OHZDE\09-Apr-2025\0\\#t hf
 aug-cc-pvdz iop(5/13=1,5/36=2,99/5=2) pseudo=read geom=check guess=(re
 ad,tcheck) scf=(maxcycle=1)\\title\\0,1\F,0,-1.94185,0.420894,0.232073
 \S,0,-0.798002,-0.718388,-0.228097\C,0,0.695488,0.129887,0.383812\C,0,
 1.862216,-0.812927,0.061037\H,0,1.738098,-1.792698,0.528703\H,0,2.7911
 8,-0.37734,0.437536\H,0,1.972535,-0.952721,-1.017918\C,0,0.853937,1.51
 8776,-0.230256\H,0,0.584844,0.20928,1.468766\H,0,1.017881,1.450805,-1.
 308717\H,0,1.708624,2.032863,0.221404\H,0,-0.038333,2.121563,-0.056428

 Normal termination of Gaussian 16 at Wed Apr  9 00:21:46 2025.
