 Gaussian 16, Revision C.01,

 ----------------------------------------------------------------------
 #t hf aug-cc-pvdz symm=none int=(grid=ultrafine) guess=(read,tcheck) s
 table=opt
 ----------------------------------------------------------------------
 -----
 title
 -----
 Symbolic Z-matrix:
 Charge =  0 Multiplicity = 2

 SCF Done:  E(UHF) =  -597.351105290     A.U. after   15 cycles
 Normal termination of Gaussian 16 at Tue Apr  8 22:30:17 2025.
 Gaussian 16:  ES64L-G16RevC.01  3-Jul-2019

 ----------------------------------------------------------------------
 #t hf aug-cc-pvdz iop(5/13=1,5/36=2,99/5=2) pseudo=read geom=check gue
 ss=(read,tcheck) scf=(maxcycle=1)
 ----------------------------------------------------------------------
 -----
 title
 -----
 Structure from the checkpoint file:  "BDE49_expt_1003_mol2.chk"
 Charge =  0 Multiplicity = 2

                         Standard orientation:
 ---------------------------------------------------------------------
 Center     Atomic      Atomic             Coordinates (Angstroms)
 Number     Number       Type             X           Y           Z
 ---------------------------------------------------------------------
      1          6           0        0.547417    0.548918   -0.132031
      2         17           0       -1.044769   -0.101588    0.011154
      3          9           0        1.528446   -0.340873    0.027174
      4          1           0        0.720566    1.501342    0.357996
 ---------------------------------------------------------------------

 SCF Done:  E(UHF) =  -598.091456518     A.U. after    2 cycles

 The electronic state is 2-A.
 Alpha  occ. eigenvalues --  -99.91731 -29.31602 -11.49933 -10.49199  -9.68842
 Alpha  occ. eigenvalues --   -9.68217  -9.68113  -1.39282  -1.11718  -0.75547
 Alpha  occ. eigenvalues --   -0.70019  -0.63677  -0.52324  -0.48683  -0.42090
 Alpha  occ. eigenvalues --   -0.31091  -0.23285
 Alpha virt. eigenvalues --    0.03895   0.06735   0.09796   0.10937   0.12797
 Alpha virt. eigenvalues --    0.15439   0.15550   0.15754   0.19162   0.23709
 Alpha virt. eigenvalues --    0.25089   0.25948   0.29286   0.30471   0.31615

  Beta  occ. eigenvalues --  -99.91672 -29.31197 -11.47230 -10.49133  -9.68963
  Beta  occ. eigenvalues --   -9.68082  -9.67826  -1.37216  -1.06282  -0.73505
  Beta  occ. eigenvalues --   -0.68159  -0.56247  -0.51943  -0.41809  -0.37086
  Beta  occ. eigenvalues --   -0.31050
  Beta virt. eigenvalues --    0.03982   0.06946   0.08984   0.10308   0.12004
  Beta virt. eigenvalues --    0.13027   0.15582   0.15804   0.17049   0.20409
  Beta virt. eigenvalues --    0.24045   0.25390   0.26847   0.29844   0.31101

 Mulliken charges and spin densities:
               1          2
     1  C   -2.275706   0.972186
     2  Cl  -0.074356  -0.042878
     3  F    0.693637   0.136427
     4  H    1.656425  -0.065735
 Sum of Mulliken charges =  -0.00000   1.00000

 Dipole moment (field-independent basis, Debye):
    X=              3.2773    Y=             -0.6065    Z=              0.5325  Tot=              3.3752
                          Isotropic Fermi Contact Couplings
        Atom                 a.u.       MegaHertz       Gauss      10(-4) cm-1
     1  C(13)              0.21021     236.31269      84.32225      78.82543
     2  Cl(35)             0.06705      29.39704      10.48960       9.80580
     3  F(19)              0.03143     132.25213      47.19085      44.11456
     4  H(1)              -0.00539     -24.07651      -8.59110      -8.03106
 --------------------------------------------------------
       Center         ----  Spin Dipole Couplings  ----
                      3XX-RR        3YY-RR        3ZZ-RR
 --------------------------------------------------------

 Normal termination of Gaussian 16 at Tue Apr  8 22:30:18 2025.
