 Gaussian 16, Revision C.01,

 ----------------------------------------------------------------------
 #t hf aug-cc-pvdz symm=none int=(grid=ultrafine) guess=(read,tcheck) s
 table=(opt,rrhf)
 ----------------------------------------------------------------------
 -----
 title
 -----
 Symbolic Z-matrix:
 Charge =  0 Multiplicity = 1

 SCF Done:  E(RHF) =  -723.453906492     A.U. after   16 cycles
 Normal termination of Gaussian 16 at Tue Apr  8 23:18:52 2025.
 Gaussian 16:  ES64L-G16RevC.01  3-Jul-2019

 ----------------------------------------------------------------------
 #t hf aug-cc-pvdz iop(5/13=1,5/36=2,99/5=2) pseudo=read geom=check gue
 ss=(read,tcheck) scf=(maxcycle=1)
 ----------------------------------------------------------------------
 -----
 title
 -----
 Structure from the checkpoint file:  "BDE49_nonexpt_1049_mol1.chk"
 Charge =  0 Multiplicity = 1

                         Standard orientation:
 ---------------------------------------------------------------------
 Center     Atomic      Atomic             Coordinates (Angstroms)
 Number     Number       Type             X           Y           Z
 ---------------------------------------------------------------------
      1         17           0        1.855321   -0.327648   -0.044003
      2          8           0        0.426508    0.560414    0.615487
      3          8           0       -0.463644    0.886437   -0.371979
      4          8           0       -1.293846   -0.248541   -0.673389
      5          6           0       -2.240720   -0.423286    0.385309
      6          1           0       -2.839198   -1.275253    0.059214
      7          1           0       -2.871360    0.462508    0.492145
      8          1           0       -1.737730   -0.664009    1.323886
 ---------------------------------------------------------------------

 SCF Done:  E(RHF) =  -724.811413152     A.U. after    2 cycles

 The electronic state is 1-A.
 Alpha  occ. eigenvalues --  -99.95143 -21.18148 -21.17368 -21.12551 -11.42503
 Alpha  occ. eigenvalues --  -10.51730  -9.71491  -9.70805  -9.70747  -2.11355
 Alpha  occ. eigenvalues --   -1.74633  -1.37616  -1.20501  -0.98057  -0.67895
 Alpha  occ. eigenvalues --   -0.66320  -0.65169  -0.60036  -0.59236  -0.53918
 Alpha  occ. eigenvalues --   -0.50955  -0.49417  -0.36254  -0.35145  -0.33012
 Alpha virt. eigenvalues --    0.02885   0.03873   0.05925   0.06424   0.09273
 Alpha virt. eigenvalues --    0.11832   0.12494   0.13383   0.14380   0.14980
 Alpha virt. eigenvalues --    0.16151   0.17396   0.19197   0.20883   0.22989

 Mulliken charges:
               1
     1  Cl   0.282570
     2  O   -0.455821
     3  O    0.248650
     4  O   -1.400895
     5  C   -2.575784
     6  H    1.256527
     7  H    1.322308
     8  H    1.322446
 Sum of Mulliken charges =   0.00000

 Dipole moment (field-independent basis, Debye):
    X=             -3.4890    Y=              0.6442    Z=              0.7054  Tot=              3.6174

 Test job not archived.
 1\1\GINC-SE120\SP\RHF\Aug-CC-pVDZ\C1H3Cl1O3\OHZDE\08-Apr-2025\0\\#t hf
  aug-cc-pvdz iop(5/13=1,5/36=2,99/5=2) pseudo=read geom=check guess=(r
 ead,tcheck) scf=(maxcycle=1)\\title\\0,1\Cl,0,1.855321,-0.327648,-0.04
 4003\O,0,0.426508,0.560414,0.615487\O,0,-0.463644,0.886437,-0.371979\O
 ,0,-1.293846,-0.248541,-0.673389\C,0,-2.24072,-0.423286,0.385309\H,0,-
 2.839198,-1.275253,0.059214\H,0,-2.87136,0.462508,0.492145\H,0,-1.7377
 3,-0.664009,1.323886\\Version=ES64L-G16RevC.01\State=1-A\HF=-724.81141
 32\RMSD=4.672e-02\Dipole=-1.3726592,0.2534665,0.2775279\Quadrupole=0.2

 Normal termination of Gaussian 16 at Tue Apr  8 23:18:55 2025.
