 Gaussian 16, Revision C.01,

 ----------------------------------------------------------------------
 #t hf aug-cc-pvdz symm=none int=(grid=ultrafine) guess=(read,tcheck) s
 table=(opt,rrhf)
 ----------------------------------------------------------------------
 -----
 title
 -----
 Symbolic Z-matrix:
 Charge =  0 Multiplicity = 1

 SCF Done:  E(RHF) =  -501.318698459     A.U. after   12 cycles
 Normal termination of Gaussian 16 at Wed Apr  9 00:01:55 2025.
 Gaussian 16:  ES64L-G16RevC.01  3-Jul-2019

 ----------------------------------------------------------------------
 #t hf aug-cc-pvdz iop(5/13=1,5/36=2,99/5=2) pseudo=read geom=check gue
 ss=(read,tcheck) scf=(maxcycle=1)
 ----------------------------------------------------------------------
 -----
 title
 -----
 Structure from the checkpoint file:  "BDE49_nonexpt_2127_mol1.chk"
 Charge =  0 Multiplicity = 1

                         Standard orientation:
 ---------------------------------------------------------------------
 Center     Atomic      Atomic             Coordinates (Angstroms)
 Number     Number       Type             X           Y           Z
 ---------------------------------------------------------------------
      1          7           0        2.252915   -0.055308    0.566063
      2         14           0        0.856038   -0.007699   -0.448956
      3          6           0       -0.410920    1.398157   -0.244364
      4          6           0       -0.359163   -1.391979   -0.007693
      5          1           0        2.166229   -0.143578    1.568394
      6          1           0        3.081550    0.466265    0.319882
      7          6           0       -1.748995   -0.711215   -0.016304
      8          1           0       -0.122075   -1.760750    0.998279
      9          1           0       -0.307920   -2.255872   -0.674469
     10          6           0       -1.593468    0.734293    0.503096
     11          1           0       -2.483624   -1.268272    0.573656
     12          1           0       -2.132481   -0.678129   -1.043338
     13          1           0       -2.524761    1.298520    0.390687
     14          1           0       -1.376339    0.703486    1.578517
     15          1           0       -0.737929    1.731646   -1.236984
     16          1           0       -0.027520    2.280332    0.275112
     17          1           0        1.385210   -0.054242   -1.835202
 ---------------------------------------------------------------------

 SCF Done:  E(RHF) =  -502.557342662     A.U. after    2 cycles

 The electronic state is 1-A.
 Alpha  occ. eigenvalues --  -76.19314 -15.72051 -11.41071 -11.38828 -11.33947
 Alpha  occ. eigenvalues --  -11.32949  -5.53458  -2.19353  -2.16514  -2.16014
 Alpha  occ. eigenvalues --   -1.26041  -1.22510  -1.03903  -0.92263  -0.80283
 Alpha  occ. eigenvalues --   -0.70283  -0.64307  -0.62774  -0.62201  -0.57416
 Alpha  occ. eigenvalues --   -0.51890  -0.47283  -0.45815  -0.44673  -0.43439
 Alpha  occ. eigenvalues --   -0.42007  -0.38930  -0.32976
 Alpha virt. eigenvalues --    0.03733   0.05226   0.05608   0.06024   0.06118
 Alpha virt. eigenvalues --    0.06172   0.06246   0.06473   0.06579   0.08691
 Alpha virt. eigenvalues --    0.08798   0.09245   0.09686   0.11597   0.13067

 Mulliken charges:
               1
     1  N   -2.397871
     2  Si   5.529113
     3  C   -3.782874
     4  C   -3.844784
     5  H    0.637969
     6  H    0.702032
     7  C   -2.736450
     8  H    1.414025
     9  H    1.264429
    10  C   -2.623287
    11  H    1.248751
    12  H    1.357946
    13  H    1.262001
    14  H    1.402436
    15  H    1.331953
    16  H    1.260741
    17  H   -2.026130
 Sum of Mulliken charges =   0.00000

 Dipole moment (field-independent basis, Debye):
    X=              0.1961    Y=              0.4674    Z=              0.9906  Tot=              1.1127

 Test job not archived.
 1\1\GINC-SE334\SP\RHF\Aug-CC-pVDZ\C4H11N1Si1\OHZDE\09-Apr-2025\0\\#t h
 f aug-cc-pvdz iop(5/13=1,5/36=2,99/5=2) pseudo=read geom=check guess=(
 read,tcheck) scf=(maxcycle=1)\\title\\0,1\N,0,2.252915,-0.055308,0.566
 063\Si,0,0.856038,-0.007699,-0.448956\C,0,-0.41092,1.398157,-0.244364\
 C,0,-0.359163,-1.391979,-0.007693\H,0,2.166229,-0.143578,1.568394\H,0,
 3.08155,0.466265,0.319882\C,0,-1.748995,-0.711215,-0.016304\H,0,-0.122
 075,-1.76075,0.998279\H,0,-0.30792,-2.255872,-0.674469\C,0,-1.593468,0
 .734293,0.503096\H,0,-2.483624,-1.268272,0.573656\H,0,-2.132481,-0.678

 Normal termination of Gaussian 16 at Wed Apr  9 00:02:00 2025.
