 Gaussian 16, Revision C.01,

 ----------------------------------------------------------------------
 #t hf aug-cc-pvdz symm=none int=(grid=ultrafine) guess=(read,tcheck) s
 table=(opt,rrhf)
 ----------------------------------------------------------------------
 -----
 title
 -----
 Symbolic Z-matrix:
 Charge =  0 Multiplicity = 1

 SCF Done:  E(RHF) =  -597.621501557     A.U. after   15 cycles
 Normal termination of Gaussian 16 at Wed Apr  9 00:42:31 2025.
 Gaussian 16:  ES64L-G16RevC.01  3-Jul-2019

 ----------------------------------------------------------------------
 #t hf aug-cc-pvdz iop(5/13=1,5/36=2,99/5=2) pseudo=read geom=check gue
 ss=(read,tcheck) scf=(maxcycle=1)
 ----------------------------------------------------------------------
 -----
 title
 -----
 Structure from the checkpoint file:  "BDE49_nonexpt_687_mol1.chk"
 Charge =  0 Multiplicity = 1

                         Standard orientation:
 ---------------------------------------------------------------------
 Center     Atomic      Atomic             Coordinates (Angstroms)
 Number     Number       Type             X           Y           Z
 ---------------------------------------------------------------------
      1          6           0        1.523103    0.198368   -0.002211
      2          5           0       -1.504023    0.042535    0.034697
      3          6           0       -2.671112   -0.918510    0.466406
      4          1           0       -3.653057   -0.519055    0.188924
      5          1           0       -2.666145   -0.955197    1.566364
      6          1           0       -2.596832   -1.950112    0.114161
      7          8           0        1.580572    1.401654   -0.101398
      8          6           0        2.635473   -0.620044    0.628420
      9          6           0       -1.656145    1.598649    0.094350
     10          1           0       -0.714043    2.138143    0.211005
     11          1           0       -2.371190    1.919217    0.859129
     12          1           0       -2.075457    1.922691   -0.870746
     13          1           0        2.933694   -1.441439   -0.028536
     14          1           0        2.285335   -1.061004    1.566374
     15          1           0        3.488108    0.030410    0.826216
     16         15           0        0.072524   -0.739174   -0.724951
     17          1           0        0.169356   -1.972735   -0.042718
 ---------------------------------------------------------------------

 SCF Done:  E(RHF) =  -599.028915668     A.U. after    2 cycles

 The electronic state is 1-A.
 Alpha  occ. eigenvalues -- -105.16541 -21.05786 -11.49123 -11.39246 -11.34292
 Alpha  occ. eigenvalues --  -11.33005  -7.61413  -2.74700  -1.71587  -1.51281
 Alpha  occ. eigenvalues --   -1.46415  -1.42542  -1.12345  -1.10255  -1.01065
 Alpha  occ. eigenvalues --   -0.81774  -0.69282  -0.63019  -0.59725  -0.58259
 Alpha  occ. eigenvalues --   -0.56218  -0.55052  -0.54307  -0.52919  -0.51824
 Alpha  occ. eigenvalues --   -0.43290  -0.42339  -0.39333  -0.21130  -0.12226
 Alpha  occ. eigenvalues --   -0.03278
 Alpha virt. eigenvalues --    0.03114   0.04223   0.04946   0.05066   0.06499
 Alpha virt. eigenvalues --    0.06636   0.07403   0.07649   0.08003   0.08825
 Alpha virt. eigenvalues --    0.09169   0.09275   0.09670   0.10057   0.11041

 Mulliken charges:
               1
     1  C    1.284658
     2  B    4.604896
     3  C   -5.745749
     4  H    1.148116
     5  H    1.151504
     6  H    1.400267
     7  O   -3.004626
     8  C   -3.978659
     9  C   -5.665733
    10  H    1.376243
    11  H    1.156889
    12  H    0.966250
    13  H    1.439587
    14  H    1.366610
    15  H    1.236286
    16  P    2.357585
    17  H   -1.094123
 Sum of Mulliken charges =  -0.00000

 Dipole moment (field-independent basis, Debye):
    X=              1.4950    Y=             -1.5282    Z=             -5.0626  Tot=              5.4954

 Test job not archived.
 1\1\GINC-SE457\SP\RHF\Aug-CC-pVDZ\C4H10B1O1P1\OHZDE\09-Apr-2025\0\\#t
 hf aug-cc-pvdz iop(5/13=1,5/36=2,99/5=2) pseudo=read geom=check guess=
 (read,tcheck) scf=(maxcycle=1)\\title\\0,1\C,0,1.523103,0.198368,-0.00
 2211\B,0,-1.504023,0.042535,0.034697\C,0,-2.671112,-0.91851,0.466406\H
 ,0,-3.653057,-0.519055,0.188924\H,0,-2.666145,-0.955197,1.566364\H,0,-
 2.596832,-1.950112,0.114161\O,0,1.580572,1.401654,-0.101398\C,0,2.6354
 73,-0.620044,0.62842\C,0,-1.656145,1.598649,0.09435\H,0,-0.714043,2.13
 8143,0.211005\H,0,-2.37119,1.919217,0.859129\H,0,-2.075457,1.922691,-0

 Normal termination of Gaussian 16 at Wed Apr  9 00:42:38 2025.
