 Gaussian 16, Revision C.01,

 ----------------------------------------------------------------------
 #t hf aug-cc-pvdz symm=none int=(grid=ultrafine) guess=(read,tcheck) s
 table=opt
 ----------------------------------------------------------------------
 -----
 title
 -----
 Symbolic Z-matrix:
 Charge =  0 Multiplicity = 2

 SCF Done:  E(UHF) =  -510.828158725     A.U. after   19 cycles
 Normal termination of Gaussian 16 at Tue Apr  8 23:18:49 2025.
 Gaussian 16:  ES64L-G16RevC.01  3-Jul-2019

 ----------------------------------------------------------------------
 #t hf aug-cc-pvdz iop(5/13=1,5/36=2,99/5=2) pseudo=read geom=check gue
 ss=(read,tcheck) scf=(maxcycle=1)
 ----------------------------------------------------------------------
 -----
 title
 -----
 Structure from the checkpoint file:  "BDE49_nonexpt_1058_mol2.chk"
 Charge =  0 Multiplicity = 2

                         Standard orientation:
 ---------------------------------------------------------------------
 Center     Atomic      Atomic             Coordinates (Angstroms)
 Number     Number       Type             X           Y           Z
 ---------------------------------------------------------------------
      1          8           0       -1.516948   -0.364107   -0.000000
      2          6           0       -0.636897    0.456783   -0.000000
      3         16           0        1.047044   -0.086015   -0.000000
      4          1           0       -0.795737    1.548401    0.000001
 ---------------------------------------------------------------------

 SCF Done:  E(UHF) =  -511.482312539     A.U. after    2 cycles

 The electronic state is 2-A.
 Alpha  occ. eigenvalues --  -75.74560 -21.08909 -13.14493 -13.08237 -13.05233
 Alpha  occ. eigenvalues --  -11.51403  -8.08393  -1.73778  -1.18093  -0.85665
 Alpha  occ. eigenvalues --   -0.62690  -0.52637  -0.50553  -0.34003  -0.28641
 Alpha  occ. eigenvalues --   -0.27774
 Alpha virt. eigenvalues --    0.02932   0.05830   0.10691   0.10754   0.11550
 Alpha virt. eigenvalues --    0.12044   0.13315   0.14977   0.17383   0.20419
 Alpha virt. eigenvalues --    0.22738   0.24433   0.27880   0.30239   0.30914

  Beta  occ. eigenvalues --  -75.73541 -21.08850 -13.13926 -13.04577 -13.02158
  Beta  occ. eigenvalues --  -11.51492  -8.07249  -1.73587  -1.10579  -0.83483
  Beta  occ. eigenvalues --   -0.61088  -0.52056  -0.50512  -0.29246  -0.26253
  Beta virt. eigenvalues --    0.02048   0.03264   0.06144   0.10696   0.11360
  Beta virt. eigenvalues --    0.12021   0.12112   0.15044   0.16211   0.17595
  Beta virt. eigenvalues --    0.21277   0.23256   0.26391   0.28516   0.30622

 Mulliken charges and spin densities:
               1          2
     1  O   -2.064008  -0.049514
     2  C   -0.290377  -0.074468
     3  S    0.855779   1.119547
     4  H    1.498605   0.004435
 Sum of Mulliken charges =   0.00000   1.00000

 Dipole moment (field-independent basis, Debye):
    X=              1.7230    Y=              0.3023    Z=              0.0000  Tot=              1.7493
                          Isotropic Fermi Contact Couplings
        Atom                 a.u.       MegaHertz       Gauss      10(-4) cm-1
     1  O(17)              0.01766     -10.70827      -3.82098      -3.57189
     2  C(13)             -0.01079     -12.12947      -4.32810      -4.04595
     3  S(33)              0.31553     108.37496      38.67088      36.15000
     4  H(1)               0.00232      10.36091       3.69703       3.45603
 --------------------------------------------------------
       Center         ----  Spin Dipole Couplings  ----
                      3XX-RR        3YY-RR        3ZZ-RR
 --------------------------------------------------------

 Normal termination of Gaussian 16 at Tue Apr  8 23:18:51 2025.
