 Gaussian 16, Revision C.01,

 ----------------------------------------------------------------------
 #t hf aug-cc-pvdz symm=none int=(grid=ultrafine) guess=(read,tcheck) s
 table=(opt,rrhf)
 ----------------------------------------------------------------------
 -----
 title
 -----
 Symbolic Z-matrix:
 Charge =  0 Multiplicity = 1

 SCF Done:  E(RHF) =  -1768.44764336     A.U. after   14 cycles
 Normal termination of Gaussian 16 at Wed Apr  9 00:51:43 2025.
 Gaussian 16:  ES64L-G16RevC.01  3-Jul-2019

 ----------------------------------------------------------------------
 #t hf aug-cc-pvdz iop(5/13=1,5/36=2,99/5=2) pseudo=read geom=check gue
 ss=(read,tcheck) scf=(maxcycle=1)
 ----------------------------------------------------------------------
 -----
 title
 -----
 Structure from the checkpoint file:  "BDE49_nonexpt_908_mol1.chk"
 Charge =  0 Multiplicity = 1

                         Standard orientation:
 ---------------------------------------------------------------------
 Center     Atomic      Atomic             Coordinates (Angstroms)
 Number     Number       Type             X           Y           Z
 ---------------------------------------------------------------------
      1         16           0        0.336958   -1.264187   -0.449737
      2          5           0        1.502609    0.083315   -0.062623
      3         16           0        1.047840    1.827708   -0.232306
      4         16           0        3.169538   -0.390024    0.489877
      5         16           0       -1.430574   -0.316286   -1.041812
      6          6           0       -2.315242   -0.110836    0.559178
      7          6           0       -3.663245    0.546819    0.358711
      8          1           0       -3.591732    1.581254    0.705864
      9          1           0       -4.399283    0.029741    0.976730
     10          1           0       -3.984989    0.545751   -0.683485
     11          8           0       -1.858932   -0.439297    1.611749
     12          1           0        3.000430   -1.725421    0.477283
     13          1           0        2.224717    2.335211    0.179040
 ---------------------------------------------------------------------

 SCF Done:  E(RHF) =  -1770.13493271     A.U. after    2 cycles

 The electronic state is 1-A.
 Alpha  occ. eigenvalues --  -75.73104 -75.71940 -75.70562 -75.70403 -21.08088
 Alpha  occ. eigenvalues --  -13.17846 -13.17613 -13.16852 -13.15018 -13.12603
 Alpha  occ. eigenvalues --  -13.11969 -13.11255 -13.08265 -13.07549 -13.06667
 Alpha  occ. eigenvalues --  -13.05585 -13.04103 -11.52158 -11.41141  -8.07068
 Alpha  occ. eigenvalues --   -8.05948  -8.04602  -8.04144  -7.68871  -1.73850
 Alpha  occ. eigenvalues --   -1.28224  -1.20021  -1.12649  -1.10738  -1.01865
 Alpha  occ. eigenvalues --   -0.76419  -0.66720  -0.63153  -0.61830  -0.57979
 Alpha  occ. eigenvalues --   -0.56455  -0.51442  -0.48685  -0.47027  -0.40109
 Alpha  occ. eigenvalues --   -0.38528  -0.38266  -0.32465  -0.28599  -0.26149
 Alpha  occ. eigenvalues --   -0.25995  -0.25342
 Alpha virt. eigenvalues --    0.01053   0.02004   0.03028   0.03047   0.06183
 Alpha virt. eigenvalues --    0.06644   0.07072   0.08674   0.09361   0.10021
 Alpha virt. eigenvalues --    0.10450   0.11289   0.11389   0.12069   0.12925

 Mulliken charges:
               1
     1  S   -1.411180
     2  B    4.580801
     3  S   -2.310158
     4  S   -2.554298
     5  S   -0.169449
     6  C    3.199506
     7  C   -4.378353
     8  H    1.276093
     9  H    1.195911
    10  H    1.540087
    11  O   -2.948109
    12  H    1.023216
    13  H    0.955935
 Sum of Mulliken charges =   0.00000

 Dipole moment (field-independent basis, Debye):
    X=             -1.2112    Y=              0.9981    Z=             -1.1316  Tot=              1.9349

 Test job not archived.
 1\1\GINC-SE054\SP\RHF\Aug-CC-pVDZ\C2H5B1O1S4\OHZDE\09-Apr-2025\0\\#t h
 f aug-cc-pvdz iop(5/13=1,5/36=2,99/5=2) pseudo=read geom=check guess=(
 read,tcheck) scf=(maxcycle=1)\\title\\0,1\S,0,0.336958,-1.264187,-0.44
 9737\B,0,1.502609,0.083315,-0.062623\S,0,1.04784,1.827708,-0.232306\S,
 0,3.169538,-0.390024,0.489877\S,0,-1.430574,-0.316286,-1.041812\C,0,-2
 .315242,-0.110836,0.559178\C,0,-3.663245,0.546819,0.358711\H,0,-3.5917
 32,1.581254,0.705864\H,0,-4.399283,0.029741,0.97673\H,0,-3.984989,0.54
 5751,-0.683485\O,0,-1.858932,-0.439297,1.611749\H,0,3.00043,-1.725421,

 Normal termination of Gaussian 16 at Wed Apr  9 00:51:49 2025.
