 Gaussian 16, Revision C.01,

 ----------------------------------------------------------------------
 #t hf aug-cc-pvdz symm=none int=(grid=ultrafine) guess=(read,tcheck) s
 table=(opt,rrhf)
 ----------------------------------------------------------------------
 -----
 title
 -----
 Symbolic Z-matrix:
 Charge =  0 Multiplicity = 1

 SCF Done:  E(RHF) =  -411.704584253     A.U. after   11 cycles
 Normal termination of Gaussian 16 at Tue Apr  8 22:41:26 2025.
 Gaussian 16:  ES64L-G16RevC.01  3-Jul-2019

 ----------------------------------------------------------------------
 #t hf aug-cc-pvdz iop(5/13=1,5/36=2,99/5=2) pseudo=read geom=check gue
 ss=(read,tcheck) scf=(maxcycle=1)
 ----------------------------------------------------------------------
 -----
 title
 -----
 Structure from the checkpoint file:  "BDE49_expt_1325_mol1.chk"
 Charge =  0 Multiplicity = 1

                         Standard orientation:
 ---------------------------------------------------------------------
 Center     Atomic      Atomic             Coordinates (Angstroms)
 Number     Number       Type             X           Y           Z
 ---------------------------------------------------------------------
      1          6           0        0.007286    0.023707    0.000000
      2          8           0        1.280118    0.460371    0.000014
      3          9           0       -0.274463   -0.734720    1.082021
      4          9           0       -0.274427   -0.734755   -1.082007
      5          9           0       -0.801741    1.078077   -0.000031
      6          1           0        1.871029   -0.302635    0.000040
 ---------------------------------------------------------------------

 SCF Done:  E(RHF) =  -413.180457749     A.U. after    2 cycles

 The electronic state is 1-A.
 Alpha  occ. eigenvalues --  -29.32435 -29.31977 -29.31930 -21.14669 -11.61626
 Alpha  occ. eigenvalues --   -1.86254  -1.32955  -0.94021  -0.92025  -0.76782
 Alpha  occ. eigenvalues --   -0.55756  -0.48980  -0.46732  -0.44429  -0.44118
 Alpha  occ. eigenvalues --   -0.37613  -0.33927  -0.32826  -0.26676  -0.25207
 Alpha  occ. eigenvalues --   -0.22516
 Alpha virt. eigenvalues --    0.04213   0.11093   0.11814   0.12140   0.16777
 Alpha virt. eigenvalues --    0.18474   0.19559   0.21392   0.21774   0.22653
 Alpha virt. eigenvalues --    0.22745   0.29183   0.29381   0.31403   0.33804

 Mulliken charges:
               1
     1  C    0.074301
     2  O   -2.734531
     3  F    0.653019
     4  F    0.653018
     5  F    0.658480
     6  H    0.695714
 Sum of Mulliken charges =  -0.00000

 Dipole moment (field-independent basis, Debye):
    X=             -1.4128    Y=             -1.0286    Z=             -0.0000  Tot=              1.7476

 Test job not archived.
 1\1\GINC-SE159\SP\RHF\Aug-CC-pVDZ\C1H1F3O1\OHZDE\08-Apr-2025\0\\#t hf
 aug-cc-pvdz iop(5/13=1,5/36=2,99/5=2) pseudo=read geom=check guess=(re
 ad,tcheck) scf=(maxcycle=1)\\title\\0,1\C,0,0.007286,0.023707,0.\O,0,1
 .280117,0.460375,0.000014\F,0,-0.274461,-0.734721,1.082021\F,0,-0.2744
 25,-0.734756,-1.082007\F,0,-0.801744,1.078075,-0.000031\H,0,1.87103,-0
 .30263,0.00004\\Version=ES64L-G16RevC.01\State=1-A\HF=-413.1804577\RMS
 D=3.236e-02\Dipole=-0.5558336,-0.4046731,-0.0000011\Quadrupole=0.40080
 99,0.030534,-0.4313439,-1.9718334,0.0000527,-0.0000475\PG=C01 [X(C1H1F

 Normal termination of Gaussian 16 at Tue Apr  8 22:41:29 2025.
