 Gaussian 16, Revision C.01,

 ----------------------------------------------------------------------
 #t hf aug-cc-pvdz symm=none int=(grid=ultrafine) guess=(read,tcheck) s
 table=(opt,rrhf)
 ----------------------------------------------------------------------
 -----
 title
 -----
 Symbolic Z-matrix:
 Charge =  0 Multiplicity = 1

 SCF Done:  E(RHF) =  -442.670013558     A.U. after   12 cycles
 Normal termination of Gaussian 16 at Wed Apr  9 00:44:21 2025.
 Gaussian 16:  ES64L-G16RevC.01  3-Jul-2019

 ----------------------------------------------------------------------
 #t hf aug-cc-pvdz iop(5/13=1,5/36=2,99/5=2) pseudo=read geom=check gue
 ss=(read,tcheck) scf=(maxcycle=1)
 ----------------------------------------------------------------------
 -----
 title
 -----
 Structure from the checkpoint file:  "BDE49_nonexpt_752_mol1.chk"
 Charge =  0 Multiplicity = 1

                         Standard orientation:
 ---------------------------------------------------------------------
 Center     Atomic      Atomic             Coordinates (Angstroms)
 Number     Number       Type             X           Y           Z
 ---------------------------------------------------------------------
      1         15           0        1.148616   -0.080163   -0.117186
      2          5           0       -0.668831    0.572949    0.018852
      3          8           0       -1.768522   -0.214082    0.006674
      4          1           0       -0.859515    1.750540    0.009703
      5          1           0       -1.587787   -1.159662    0.023699
      6          1           0        1.019952   -1.260777    0.660582
      7          1           0        1.690445    0.720253    0.916151
 ---------------------------------------------------------------------

 SCF Done:  E(RHF) =  -443.295146820     A.U. after    2 cycles

 The electronic state is 1-A.
 Alpha  occ. eigenvalues -- -105.16828 -21.07772  -7.64187  -2.74139  -1.75478
 Alpha  occ. eigenvalues --   -1.46889  -1.43619  -1.41542  -0.80865  -0.71459
 Alpha  occ. eigenvalues --   -0.52523  -0.49414  -0.44296  -0.26140  -0.16367
 Alpha  occ. eigenvalues --   -0.03383
 Alpha virt. eigenvalues --    0.03614   0.04430   0.05117   0.06444   0.08553
 Alpha virt. eigenvalues --    0.09594   0.10782   0.10958   0.11731   0.12379
 Alpha virt. eigenvalues --    0.14487   0.17317   0.18637   0.20389   0.22715

 Mulliken charges:
               1
     1  P    1.087417
     2  B    4.472982
     3  O   -2.950493
     4  H   -2.457802
     5  H    1.367561
     6  H   -0.788572
     7  H   -0.731093
 Sum of Mulliken charges =   0.00000

 Dipole moment (field-independent basis, Debye):
    X=              2.5637    Y=             -1.8504    Z=             -3.8123  Tot=              4.9528

 Test job not archived.
 1\1\GINC-SE015\SP\RHF\Aug-CC-pVDZ\B1H4O1P1\OHZDE\09-Apr-2025\0\\#t hf
 aug-cc-pvdz iop(5/13=1,5/36=2,99/5=2) pseudo=read geom=check guess=(re
 ad,tcheck) scf=(maxcycle=1)\\title\\0,1\P,0,1.148616,-0.080163,-0.1171
 86\B,0,-0.668831,0.572949,0.018852\O,0,-1.768522,-0.214082,0.006674\H,
 0,-0.859514,1.75054,0.009703\H,0,-1.587787,-1.159662,0.023699\H,0,1.01
 9952,-1.260777,0.660582\H,0,1.690445,0.720253,0.916151\\Version=ES64L-
 G16RevC.01\State=1-A\HF=-443.2951468\RMSD=2.862e-01\Dipole=1.0086374,-
 0.7279881,-1.4998672\Quadrupole=0.9592471,2.4068741,-3.3661212,1.27620

 Normal termination of Gaussian 16 at Wed Apr  9 00:44:23 2025.
