 Gaussian 16, Revision C.01,

 ----------------------------------------------------------------------
 #t hf aug-cc-pvdz symm=none int=(grid=ultrafine) guess=(read,tcheck) s
 table=(opt,rrhf)
 ----------------------------------------------------------------------
 -----
 title
 -----
 Symbolic Z-matrix:
 Charge =  0 Multiplicity = 1

 SCF Done:  E(RHF) =  -954.372143492     A.U. after   14 cycles
 Normal termination of Gaussian 16 at Wed Apr  9 00:15:09 2025.
 Gaussian 16:  ES64L-G16RevC.01  3-Jul-2019

 ----------------------------------------------------------------------
 #t hf aug-cc-pvdz iop(5/13=1,5/36=2,99/5=2) pseudo=read geom=check gue
 ss=(read,tcheck) scf=(maxcycle=1)
 ----------------------------------------------------------------------
 -----
 title
 -----
 Structure from the checkpoint file:  "BDE49_nonexpt_2476_mol1.chk"
 Charge =  0 Multiplicity = 1

                         Standard orientation:
 ---------------------------------------------------------------------
 Center     Atomic      Atomic             Coordinates (Angstroms)
 Number     Number       Type             X           Y           Z
 ---------------------------------------------------------------------
      1         16           0       -0.701244   -0.530139    0.025805
      2          6           0        0.984370   -0.927460   -0.579024
      3         14           0       -0.932435    1.712187    0.007374
      4          8           0       -0.774759   -0.966078    1.417327
      5          8           0       -1.632651   -1.060858   -0.964437
      6          6           0        2.054331   -0.341543    0.281344
      7          1           0        1.029438   -0.590286   -1.616095
      8          6           0        2.936395    0.561989   -0.140763
      9          1           0        2.077214   -0.689170    1.309768
     10          1           0        2.940580    0.923801   -1.164547
     11          1           0        3.696349    0.960454    0.521051
     12          1           0        0.977489   -2.022633   -0.558562
     13          1           0       -0.100908    2.320183    1.060963
     14          1           0       -2.373027    1.866332    0.275716
     15          1           0       -0.564442    2.200492   -1.336879
 ---------------------------------------------------------------------

 SCF Done:  E(RHF) =  -956.002433237     A.U. after    2 cycles

 The electronic state is 1-A.
 Alpha  occ. eigenvalues --  -76.26965 -75.86533 -21.03681 -21.03634 -13.48305
 Alpha  occ. eigenvalues --  -13.36310 -13.29846 -11.45858 -11.42984 -11.40100
 Alpha  occ. eigenvalues --   -8.21528  -5.60307  -2.22757  -2.22476  -2.22388
 Alpha  occ. eigenvalues --   -1.81068  -1.63618  -1.25008  -1.07445  -0.93243
 Alpha  occ. eigenvalues --   -0.82975  -0.78903  -0.68679  -0.62452  -0.59892
 Alpha  occ. eigenvalues --   -0.58007  -0.52573  -0.51897  -0.51366  -0.50454
 Alpha  occ. eigenvalues --   -0.43527  -0.40833  -0.38865  -0.34843  -0.34253
 Alpha  occ. eigenvalues --   -0.30645
 Alpha virt. eigenvalues --    0.02633   0.03840   0.04978   0.05339   0.06126
 Alpha virt. eigenvalues --    0.06311   0.06758   0.07157   0.08099   0.09111
 Alpha virt. eigenvalues --    0.09812   0.10548   0.11758   0.12056   0.12821

 Mulliken charges:
               1
     1  S    4.781468
     2  C   -4.473356
     3  Si   5.765593
     4  O   -2.441546
     5  O   -2.429929
     6  C   -0.462120
     7  H    1.465720
     8  C   -3.077135
     9  H    1.527543
    10  H    1.430649
    11  H    1.377929
    12  H    1.484933
    13  H   -1.646860
    14  H   -1.687317
    15  H   -1.615573
 Sum of Mulliken charges =   0.00000

 Dipole moment (field-independent basis, Debye):
    X=              1.5842    Y=              1.3847    Z=             -0.3436  Tot=              2.1319

 Test job not archived.
 1\1\GINC-SE364\SP\RHF\Aug-CC-pVDZ\C3H8O2S1Si1\OHZDE\09-Apr-2025\0\\#t
 hf aug-cc-pvdz iop(5/13=1,5/36=2,99/5=2) pseudo=read geom=check guess=
 (read,tcheck) scf=(maxcycle=1)\\title\\0,1\S,0,-0.701244,-0.530139,0.0
 25805\C,0,0.98437,-0.92746,-0.579024\Si,0,-0.932435,1.712187,0.007374\
 O,0,-0.774759,-0.966078,1.417327\O,0,-1.632651,-1.060858,-0.964437\C,0
 ,2.054331,-0.341543,0.281344\H,0,1.029438,-0.590286,-1.616095\C,0,2.93
 6395,0.561989,-0.140763\H,0,2.077214,-0.68917,1.309768\H,0,2.94058,0.9
 23801,-1.164547\H,0,3.696349,0.960454,0.521051\H,0,0.977489,-2.022633,

 Normal termination of Gaussian 16 at Wed Apr  9 00:15:15 2025.
