 Gaussian 16, Revision C.01,

 ----------------------------------------------------------------------
 #t hf aug-cc-pvdz symm=none int=(grid=ultrafine) guess=(read,tcheck) s
 table=(opt,rrhf)
 ----------------------------------------------------------------------
 -----
 title
 -----
 Symbolic Z-matrix:
 Charge =  0 Multiplicity = 1

 SCF Done:  E(RHF) =  -534.885568734     A.U. after   13 cycles

 1\1\GINC-SE072\Stability\RHF\Aug-CC-pVDZ\Cl1H1O1\OHZDE\08-Apr-2025\0\\
 #t hf aug-cc-pvdz symm=none int=(grid=ultrafine) guess=(read,tcheck) s
 table=(opt,rrhf)\\title\\0,1\O,0,0.036419,1.125126,0.\Cl,0,0.036419,-0
 .607388,0.\H,0,-0.910486,1.324584,0.\\Version=ES64L-G16RevC.01\HF=-534
 .8855687\RMSD=3.066e-09\Dipole=-0.6366216,0.1041109,0.\Quadrupole=0.50
 27157,0.7656043,-1.2683201,-2.0011262,0.,0.\PG=Unknown\\@
 The archive entry for this job was punched.

 Normal termination of Gaussian 16 at Tue Apr  8 22:58:34 2025.
 Gaussian 16:  ES64L-G16RevC.01  3-Jul-2019

 ----------------------------------------------------------------------
 #t hf aug-cc-pvdz iop(5/13=1,5/36=2,99/5=2) pseudo=read geom=check gue
 ss=(read,tcheck) scf=(maxcycle=1)
 ----------------------------------------------------------------------
 -----
 title
 -----
 Structure from the checkpoint file:  "BDE49_expt_1921_mol1.chk"
 Charge =  0 Multiplicity = 1

                         Standard orientation:
 ---------------------------------------------------------------------
 Center     Atomic      Atomic             Coordinates (Angstroms)
 Number     Number       Type             X           Y           Z
 ---------------------------------------------------------------------
      1          8           0        0.036419    1.125126    0.000000
      2         17           0        0.036419   -0.607388    0.000000
      3          1           0       -0.910486    1.324584    0.000000
 ---------------------------------------------------------------------

 SCF Done:  E(RHF) =  -535.434211811     A.U. after    2 cycles

 The electronic state is 1-A'.
 Alpha  occ. eigenvalues --  -99.94409 -21.14851 -10.51162  -9.70937  -9.70128
 Alpha  occ. eigenvalues --   -9.70039  -1.75363  -1.24269  -0.67616  -0.59006
 Alpha  occ. eigenvalues --   -0.58546  -0.47859  -0.37926
 Alpha virt. eigenvalues --    0.02322   0.04771   0.12575   0.12892   0.14672
 Alpha virt. eigenvalues --    0.17515   0.20937   0.22758   0.25235   0.25258
 Alpha virt. eigenvalues --    0.28737   0.29432   0.34430   0.35049   0.41514

 Mulliken charges:
               1
     1  O   -1.457869
     2  Cl   0.557753
     3  H    0.900116
 Sum of Mulliken charges =  -0.00000

 Dipole moment (field-independent basis, Debye):
    X=             -0.8314    Y=              2.0214    Z=              0.0000  Tot=              2.1857

 Test job not archived.
 1\1\GINC-SE072\SP\RHF\Aug-CC-pVDZ\Cl1H1O1\OHZDE\08-Apr-2025\0\\#t hf a
 ug-cc-pvdz iop(5/13=1,5/36=2,99/5=2) pseudo=read geom=check guess=(rea
 d,tcheck) scf=(maxcycle=1)\\title\\0,1\O,0,0.036419,1.125126,0.\Cl,0,0
 .036419,-0.607388,0.\H,0,-0.910486,1.324584,0.\\Version=ES64L-G16RevC.
 01\State=1-A'\HF=-535.4342118\RMSD=2.730e-02\Dipole=-0.3270965,0.79529
 28,0.\Quadrupole=-0.0917196,2.0007882,-1.9090686,-1.403135,0.,0.\PG=CS
  [SG(Cl1H1O1)]\\@

 Normal termination of Gaussian 16 at Tue Apr  8 22:58:35 2025.
