 Gaussian 16, Revision C.01,

 ----------------------------------------------------------------------
 #t hf aug-cc-pvdz symm=none int=(grid=ultrafine) guess=(read,tcheck) s
 table=(opt,rrhf)
 ----------------------------------------------------------------------
 -----
 title
 -----
 Symbolic Z-matrix:
 Charge =  0 Multiplicity = 1

 SCF Done:  E(RHF) =  -1331.64977756     A.U. after   15 cycles
 Normal termination of Gaussian 16 at Tue Apr  8 23:28:52 2025.
 Gaussian 16:  ES64L-G16RevC.01  3-Jul-2019

 ----------------------------------------------------------------------
 #t hf aug-cc-pvdz iop(5/13=1,5/36=2,99/5=2) pseudo=read geom=check gue
 ss=(read,tcheck) scf=(maxcycle=1)
 ----------------------------------------------------------------------
 -----
 title
 -----
 Structure from the checkpoint file:  "BDE49_nonexpt_1247_mol1.chk"
 Charge =  0 Multiplicity = 1

                         Standard orientation:
 ---------------------------------------------------------------------
 Center     Atomic      Atomic             Coordinates (Angstroms)
 Number     Number       Type             X           Y           Z
 ---------------------------------------------------------------------
      1         17           0        2.851882   -0.421813   -0.501455
      2         15           0        1.073415   -1.561153   -0.473642
      3          6           0        0.549375   -1.386395    1.283346
      4          6           0       -0.148677   -0.386794    0.399235
      5          6           0        0.228381    1.064279    0.564631
      6          8           0        0.693316    1.526598    1.575239
      7          8           0        0.006372    1.759260   -0.557941
      8          6           0        0.307524    3.165906   -0.488072
      9          6           0       -1.552702   -0.759284    0.032331
     10          8           0       -1.894280   -1.909161   -0.133673
     11          8           0       -2.375430    0.291036   -0.056777
     12          6           0       -3.741608   -0.012230   -0.407513
     13          1           0        1.266717   -0.965585    1.977594
     14          1           0       -0.052163   -2.206247    1.659408
     15          1           0        1.360604    3.315764   -0.247973
     16          1           0       -0.307967    3.648003    0.272831
     17          1           0        0.076937    3.559301   -1.475105
     18          1           0       -4.189385   -0.666008    0.341578
     19          1           0       -4.249815    0.948322   -0.435691
     20          1           0       -3.781740   -0.500197   -1.381819
 ---------------------------------------------------------------------

 SCF Done:  E(RHF) =  -1334.38357776     A.U. after    2 cycles

 The electronic state is 1-A.
 Alpha  occ. eigenvalues -- -105.25421 -99.89372 -21.11048 -21.09946 -21.06360
 Alpha  occ. eigenvalues --  -21.06151 -11.56930 -11.54967 -11.46895 -11.43070
 Alpha  occ. eigenvalues --  -11.42730 -11.42152 -10.46631  -9.66558  -9.66023
 Alpha  occ. eigenvalues --   -9.65807  -2.82661  -1.87186  -1.84382  -1.68437
 Alpha  occ. eigenvalues --   -1.67440  -1.59274  -1.51678  -1.47943  -1.24392
 Alpha  occ. eigenvalues --   -1.18452  -1.04796  -1.03636  -0.93312  -0.83899
 Alpha  occ. eigenvalues --   -0.74805  -0.71338  -0.71195  -0.65386  -0.63705
 Alpha  occ. eigenvalues --   -0.62599  -0.61938  -0.58753  -0.57658  -0.55314
 Alpha  occ. eigenvalues --   -0.54392  -0.53689  -0.52587  -0.51717  -0.49701
 Alpha  occ. eigenvalues --   -0.45366  -0.42015  -0.39689  -0.34449  -0.33933
 Alpha  occ. eigenvalues --   -0.32496  -0.29606  -0.18304  -0.10666
 Alpha virt. eigenvalues --    0.03489   0.04501   0.05021   0.05556   0.05978
 Alpha virt. eigenvalues --    0.06577   0.07073   0.07795   0.08172   0.08556
 Alpha virt. eigenvalues --    0.10087   0.10572   0.11373   0.11731   0.12582

 Mulliken charges:
               1
     1  Cl  -1.307995
     2  P    4.458631
     3  C   -4.626502
     4  C   -2.178159
     5  C    7.424794
     6  O   -3.494293
     7  O   -3.662088
     8  C   -3.128767
     9  C    5.916781
    10  O   -3.296704
    11  O   -3.246968
    12  C   -3.206081
    13  H    1.088361
    14  H    0.969099
    15  H    1.330244
    16  H    1.352523
    17  H    1.469732
    18  H    1.391818
    19  H    1.390356
    20  H    1.355219
 Sum of Mulliken charges =   0.00000

 Dipole moment (field-independent basis, Debye):
    X=             -0.8949    Y=             -4.3314    Z=             -6.1674  Tot=              7.5894

 Test job not archived.
 1\1\GINC-SE461\SP\RHF\Aug-CC-pVDZ\C6H8Cl1O4P1\OHZDE\08-Apr-2025\0\\#t
 hf aug-cc-pvdz iop(5/13=1,5/36=2,99/5=2) pseudo=read geom=check guess=
 (read,tcheck) scf=(maxcycle=1)\\title\\0,1\Cl,0,2.851882,-0.421814,-0.
 501455\P,0,1.073415,-1.561153,-0.473642\C,0,0.549375,-1.386395,1.28334
 6\C,0,-0.148677,-0.386794,0.399235\C,0,0.228381,1.064279,0.564631\O,0,
 0.693316,1.526598,1.575239\O,0,0.006372,1.75926,-0.557941\C,0,0.307525
 ,3.165906,-0.488072\C,0,-1.552702,-0.759284,0.032331\O,0,-1.89428,-1.9
 09161,-0.133673\O,0,-2.37543,0.291036,-0.056777\C,0,-3.741608,-0.01222

 Normal termination of Gaussian 16 at Tue Apr  8 23:29:06 2025.
