 Gaussian 16, Revision C.01,

 ----------------------------------------------------------------------
 #t hf aug-cc-pvdz symm=none int=(grid=ultrafine) guess=(read,tcheck) s
 table=opt
 ----------------------------------------------------------------------
 -----
 title
 -----
 Symbolic Z-matrix:
 Charge =  0 Multiplicity = 2

 SCF Done:  E(UHF) =  -631.164385572     A.U. after   15 cycles

 1\1\GINC-SE367\Stability\UHF\Aug-CC-pVDZ\C6H11S1\OHZDE\08-Apr-2025\0\\
 #t hf aug-cc-pvdz symm=none int=(grid=ultrafine) guess=(read,tcheck) s
 table=opt\\title\\0,2\S,0,2.455327,-0.000001,-0.052446\C,0,0.672786,-0
 .000006,0.3173\C,0,-0.038556,-1.275023,-0.170336\C,0,-1.528917,-1.2663
 24,0.208231\H,0,0.461271,-2.154952,0.241564\H,0,0.061156,-1.337398,-1.
 260597\C,0,-2.236469,0.000005,-0.291871\H,0,-1.623807,-1.3265,1.300239
 \H,0,-2.014717,-2.160504,-0.194786\C,0,-1.528908,1.266329,0.20823\H,0,
 -3.283017,0.000009,0.028552\H,0,-2.245624,0.000004,-1.389392\C,0,-0.03

 Normal termination of Gaussian 16 at Tue Apr  8 22:56:31 2025.
 Gaussian 16:  ES64L-G16RevC.01  3-Jul-2019

 ----------------------------------------------------------------------
 #t hf aug-cc-pvdz iop(5/13=1,5/36=2,99/5=2) pseudo=read geom=check gue
 ss=(read,tcheck) scf=(maxcycle=1)
 ----------------------------------------------------------------------
 -----
 title
 -----
 Structure from the checkpoint file:  "BDE49_expt_1822_mol2.chk"
 Charge =  0 Multiplicity = 2

                         Standard orientation:
 ---------------------------------------------------------------------
 Center     Atomic      Atomic             Coordinates (Angstroms)
 Number     Number       Type             X           Y           Z
 ---------------------------------------------------------------------
      1         16           0        2.455327   -0.000001   -0.052446
      2          6           0        0.672786   -0.000006    0.317300
      3          6           0       -0.038556   -1.275023   -0.170336
      4          6           0       -1.528917   -1.266324    0.208231
      5          1           0        0.461271   -2.154952    0.241564
      6          1           0        0.061156   -1.337398   -1.260597
      7          6           0       -2.236469    0.000005   -0.291871
      8          1           0       -1.623807   -1.326500    1.300239
      9          1           0       -2.014717   -2.160504   -0.194786
     10          6           0       -1.528908    1.266329    0.208230
     11          1           0       -3.283017    0.000008    0.028552
     12          1           0       -2.245624    0.000004   -1.389392
     13          6           0       -0.038547    1.275019   -0.170334
     14          1           0       -1.623798    1.326507    1.300238
     15          1           0       -2.014702    2.160512   -0.194789
     16          1           0        0.061165    1.337396   -1.260596
     17          1           0        0.461286    2.154944    0.241569
     18          1           0        0.667222   -0.000001    1.419816
 ---------------------------------------------------------------------

 SCF Done:  E(UHF) =  -632.557671802     A.U. after    2 cycles

 The electronic state is 2-A.
 Alpha  occ. eigenvalues --  -75.69632 -13.13874 -13.05559 -13.04995 -11.44748
 Alpha  occ. eigenvalues --  -11.43816 -11.42543 -11.38394 -11.37754 -11.34609
 Alpha  occ. eigenvalues --   -8.03211  -1.33833  -1.16368  -1.10719  -1.02518
 Alpha  occ. eigenvalues --   -0.89049  -0.85818  -0.78739  -0.66193  -0.62090
 Alpha  occ. eigenvalues --   -0.61458  -0.60171  -0.53150  -0.50232  -0.49357
 Alpha  occ. eigenvalues --   -0.48099  -0.47526  -0.44734  -0.40307  -0.35363
 Alpha  occ. eigenvalues --   -0.28647  -0.23545
 Alpha virt. eigenvalues --    0.03921   0.05230   0.05435   0.05566   0.05576
 Alpha virt. eigenvalues --    0.05676   0.05886   0.06184   0.06347   0.08716
 Alpha virt. eigenvalues --    0.08866   0.08974   0.12623   0.12897   0.13853

  Beta  occ. eigenvalues --  -75.68656 -13.13269 -13.04981 -12.99123 -11.44825
  Beta  occ. eigenvalues --  -11.43800 -11.42543 -11.38406 -11.37741 -11.34608
  Beta  occ. eigenvalues --   -8.02119  -1.33293  -1.14167  -1.10698  -0.97515
  Beta  occ. eigenvalues --   -0.89011  -0.84055  -0.78152  -0.65903  -0.61885
  Beta  occ. eigenvalues --   -0.61466  -0.59765  -0.53140  -0.50133  -0.48848
  Beta  occ. eigenvalues --   -0.47517  -0.47494  -0.44546  -0.40266  -0.34840
  Beta  occ. eigenvalues --   -0.22009
  Beta virt. eigenvalues --    0.03570   0.04008   0.05296   0.05471   0.05581
  Beta virt. eigenvalues --    0.05687   0.05907   0.06205   0.06343   0.07533
  Beta virt. eigenvalues --    0.08775   0.08873   0.09164   0.12706   0.12931

 Mulliken charges and spin densities:
               1          2
     1  S    0.411466   1.107096
     2  C   -1.858537  -0.153160
     3  C   -3.059524   0.021351
     4  C   -2.540530   0.010520
     5  H    1.428617  -0.017406
     6  H    1.420563   0.016667
     7  C   -2.677139  -0.001377
     8  H    1.346609  -0.000839
     9  H    1.306394  -0.000282
    10  C   -2.540518   0.010521
    11  H    1.292253   0.000519
    12  H    1.399063  -0.003688
    13  C   -3.059480   0.021353
    14  H    1.346608  -0.000839
    15  H    1.306392  -0.000282
    16  H    1.420563   0.016667
    17  H    1.428621  -0.017407
    18  H    1.628580  -0.009414
 Sum of Mulliken charges =  -0.00000   1.00000

 Dipole moment (field-independent basis, Debye):
    X=             -0.6261    Y=              0.0000    Z=              0.1441  Tot=              0.6425
                          Isotropic Fermi Contact Couplings
        Atom                 a.u.       MegaHertz       Gauss      10(-4) cm-1
     1  S(33)              0.24656      84.68744      30.21858      28.24869
     2  C(13)             -0.01708     -19.20099      -6.85139      -6.40476
     3  C(13)              0.00700       7.86385       2.80602       2.62310
     4  C(13)             -0.00075      -0.84415      -0.30121      -0.28158
     5  H(1)              -0.00023      -1.04707      -0.37362      -0.34927
     6  H(1)              -0.00034      -1.51091      -0.53913      -0.50399
     7  C(13)              0.00019       0.21700       0.07743       0.07238
     8  H(1)               0.00010       0.45118       0.16099       0.15050

 Normal termination of Gaussian 16 at Tue Apr  8 22:56:38 2025.
