 Gaussian 16, Revision C.01,

 ----------------------------------------------------------------------
 #t hf aug-cc-pvdz symm=none int=(grid=ultrafine) guess=(read,tcheck) s
 table=(opt,rrhf)
 ----------------------------------------------------------------------
 -----
 title
 -----
 Symbolic Z-matrix:
 Charge =  0 Multiplicity = 1

 SCF Done:  E(RHF) =  -1265.16620599     A.U. after   13 cycles
 Normal termination of Gaussian 16 at Wed Apr  9 00:11:38 2025.
 Gaussian 16:  ES64L-G16RevC.01  3-Jul-2019

 ----------------------------------------------------------------------
 #t hf aug-cc-pvdz iop(5/13=1,5/36=2,99/5=2) pseudo=read geom=check gue
 ss=(read,tcheck) scf=(maxcycle=1)
 ----------------------------------------------------------------------
 -----
 title
 -----
 Structure from the checkpoint file:  "BDE49_nonexpt_235_mol1.chk"
 Charge =  0 Multiplicity = 1

                         Standard orientation:
 ---------------------------------------------------------------------
 Center     Atomic      Atomic             Coordinates (Angstroms)
 Number     Number       Type             X           Y           Z
 ---------------------------------------------------------------------
      1         17           0       -1.735935    1.521137    0.620428
      2          5           0       -1.331392   -0.062770   -0.030961
      3         17           0       -2.624754   -1.240955   -0.294981
      4          8           0       -0.074317   -0.480366   -0.290475
      5          6           0        1.072465    0.321802   -0.427579
      6          8           0        1.030945    1.394149   -0.969002
      7          7           0        2.165347   -0.305775    0.066737
      8          6           0        2.164557   -1.607286    0.724448
      9          1           0        2.399460   -1.500463    1.789269
     10          1           0        2.925379   -2.246547    0.266525
     11          1           0        1.196460   -2.085189    0.619211
     12          6           0        3.450657    0.378634   -0.017966
     13          1           0        4.167363   -0.234778   -0.572853
     14          1           0        3.849790    0.561776    0.984912
     15          1           0        3.313698    1.327208   -0.529597
 ---------------------------------------------------------------------

 SCF Done:  E(RHF) =  -1267.17499818     A.U. after    2 cycles

 The electronic state is 1-A.
 Alpha  occ. eigenvalues --  -99.89931 -99.89898 -21.08517 -21.04786 -15.77151
 Alpha  occ. eigenvalues --  -11.54757 -11.42041 -11.40967 -10.47342 -10.47103
 Alpha  occ. eigenvalues --   -9.67304  -9.67088  -9.66751  -9.66730  -9.66604
 Alpha  occ. eigenvalues --   -9.66468  -7.74828  -1.88180  -1.69640  -1.45293
 Alpha  occ. eigenvalues --   -1.36920  -1.29929  -1.06975  -1.02335  -0.84619
 Alpha  occ. eigenvalues --   -0.74626  -0.71703  -0.68675  -0.65944  -0.64102
 Alpha  occ. eigenvalues --   -0.59544  -0.58997  -0.57292  -0.55160  -0.54638
 Alpha  occ. eigenvalues --   -0.54141  -0.52667  -0.51112  -0.50759  -0.44866
 Alpha  occ. eigenvalues --   -0.41448  -0.31768  -0.31604
 Alpha virt. eigenvalues --    0.02645   0.04281   0.04607   0.04831   0.05236
 Alpha virt. eigenvalues --    0.05766   0.06491   0.07050   0.07608   0.08349
 Alpha virt. eigenvalues --    0.09639   0.10826   0.11752   0.12950   0.13257

 Mulliken charges:
               1
     1  Cl  -1.156773
     2  B    3.348335
     3  Cl  -1.204330
     4  O   -3.468752
     5  C    6.759541
     6  O   -2.829075
     7  N   -3.151324
     8  C   -3.561868
     9  H    1.413019
    10  H    1.454342
    11  H    1.664254
    12  C   -3.483212
    13  H    1.420174
    14  H    1.444531
    15  H    1.351138
 Sum of Mulliken charges =   0.00000

 Dipole moment (field-independent basis, Debye):
    X=              3.4105    Y=             -1.5305    Z=              0.8194  Tot=              3.8270

 Test job not archived.
 1\1\GINC-SE435\SP\RHF\Aug-CC-pVDZ\C3H6B1Cl2N1O2\OHZDE\09-Apr-2025\0\\#
 t hf aug-cc-pvdz iop(5/13=1,5/36=2,99/5=2) pseudo=read geom=check gues
 s=(read,tcheck) scf=(maxcycle=1)\\title\\0,1\Cl,0,-1.735935,1.521137,0
 .620428\B,0,-1.331392,-0.06277,-0.030961\Cl,0,-2.624754,-1.240955,-0.2
 94981\O,0,-0.074317,-0.480366,-0.290475\C,0,1.072465,0.321802,-0.42757
 9\O,0,1.030945,1.394149,-0.969002\N,0,2.165347,-0.305775,0.066737\C,0,
 2.164557,-1.607286,0.724448\H,0,2.39946,-1.500463,1.789269\H,0,2.92537
 9,-2.246547,0.266525\H,0,1.19646,-2.085189,0.619211\C,0,3.450657,0.378

 Normal termination of Gaussian 16 at Wed Apr  9 00:11:45 2025.
