 Gaussian 16, Revision C.01,

 ----------------------------------------------------------------------
 #t hf aug-cc-pvdz symm=none int=(grid=ultrafine) guess=(read,tcheck) s
 table=(opt,rrhf)
 ----------------------------------------------------------------------
 -----
 title
 -----
 Symbolic Z-matrix:
 Charge =  0 Multiplicity = 1

 SCF Done:  E(RHF) =  -1283.78588652     A.U. after   15 cycles
 Normal termination of Gaussian 16 at Wed Apr  9 00:06:49 2025.
 Gaussian 16:  ES64L-G16RevC.01  3-Jul-2019

 ----------------------------------------------------------------------
 #t hf aug-cc-pvdz iop(5/13=1,5/36=2,99/5=2) pseudo=read geom=check gue
 ss=(read,tcheck) scf=(maxcycle=1)
 ----------------------------------------------------------------------
 -----
 title
 -----
 Structure from the checkpoint file:  "BDE49_nonexpt_222_mol1.chk"
 Charge =  0 Multiplicity = 1

                         Standard orientation:
 ---------------------------------------------------------------------
 Center     Atomic      Atomic             Coordinates (Angstroms)
 Number     Number       Type             X           Y           Z
 ---------------------------------------------------------------------
      1         17           0       -1.957172    1.561105   -0.498704
      2          5           0       -1.340574    0.010025    0.014866
      3         17           0       -2.328515   -1.427898   -0.064090
      4          6           0        0.122865   -0.078535    0.628722
      5          8           0        0.341452   -0.075171    1.804094
      6          8           0        1.083525   -0.206233   -0.359037
      7          6           0        2.450678    0.082054   -0.130881
      8          8           0        2.814806    0.878625    0.670582
      9          6           0        3.290280   -0.721874   -1.080255
     10          1           0        3.186750   -1.784305   -0.845312
     11          1           0        4.331358   -0.420014   -0.987806
     12          1           0        2.940221   -0.577965   -2.104324
 ---------------------------------------------------------------------

 SCF Done:  E(RHF) =  -1285.79157483     A.U. after    2 cycles

 The electronic state is 1-A.
 Alpha  occ. eigenvalues --  -99.92697 -99.92653 -21.12635 -21.08976 -21.08416
 Alpha  occ. eigenvalues --  -11.55470 -11.52104 -11.41541 -10.50057 -10.49856
 Alpha  occ. eigenvalues --   -9.70019  -9.69836  -9.69476  -9.69412  -9.69328
 Alpha  occ. eigenvalues --   -9.69213  -7.75032  -1.88702  -1.74121  -1.67721
 Alpha  occ. eigenvalues --   -1.42635  -1.32461  -1.13857  -0.97484  -0.83945
 Alpha  occ. eigenvalues --   -0.73086  -0.67743  -0.67339  -0.64763  -0.63112
 Alpha  occ. eigenvalues --   -0.60330  -0.60059  -0.56229  -0.55083  -0.54810
 Alpha  occ. eigenvalues --   -0.53166  -0.51832  -0.48232  -0.44936  -0.35073
 Alpha  occ. eigenvalues --   -0.33794  -0.29057
 Alpha virt. eigenvalues --    0.02824   0.03612   0.03937   0.04283   0.04399
 Alpha virt. eigenvalues --    0.05858   0.06349   0.07286   0.09923   0.10265
 Alpha virt. eigenvalues --    0.10623   0.12063   0.13268   0.13285   0.13705

 Mulliken charges:
               1
     1  Cl  -1.235374
     2  B    3.467456
     3  Cl  -1.343003
     4  C    2.975270
     5  O   -2.611183
     6  O   -3.030119
     7  C    5.129851
     8  O   -2.952022
     9  C   -4.280736
    10  H    1.333462
    11  H    1.220354
    12  H    1.326044
 Sum of Mulliken charges =  -0.00000

 Dipole moment (field-independent basis, Debye):
    X=              0.9676    Y=             -0.7842    Z=             -1.2189  Tot=              1.7427

 Test job not archived.
 1\1\GINC-SE412\SP\RHF\Aug-CC-pVDZ\C3H3B1Cl2O3\OHZDE\09-Apr-2025\0\\#t
 hf aug-cc-pvdz iop(5/13=1,5/36=2,99/5=2) pseudo=read geom=check guess=
 (read,tcheck) scf=(maxcycle=1)\\title\\0,1\Cl,0,-1.957172,1.561105,-0.
 498704\B,0,-1.340574,0.010025,0.014866\Cl,0,-2.328515,-1.427898,-0.064
 09\C,0,0.122865,-0.078535,0.628722\O,0,0.341452,-0.075171,1.804094\O,0
 ,1.083525,-0.206233,-0.359037\C,0,2.450678,0.082054,-0.130881\O,0,2.81
 4806,0.878625,0.670582\C,0,3.29028,-0.721874,-1.080255\H,0,3.18675,-1.
 784305,-0.845312\H,0,4.331358,-0.420014,-0.987806\H,0,2.940221,-0.5779

 Normal termination of Gaussian 16 at Wed Apr  9 00:06:54 2025.
