 Gaussian 16, Revision C.01,

 ----------------------------------------------------------------------
 #t hf aug-cc-pvdz symm=none int=(grid=ultrafine) guess=(read,tcheck) s
 table=opt
 ----------------------------------------------------------------------
 -----
 title
 -----
 Symbolic Z-matrix:
 Charge =  0 Multiplicity = 2

 SCF Done:  E(UHF) =  -365.544937132     A.U. after   14 cycles

 1\1\GINC-SE341\Stability\UHF\Aug-CC-pVDZ\H3O1Si1\OHZDE\08-Apr-2025\0\\
 #t hf aug-cc-pvdz symm=none int=(grid=ultrafine) guess=(read,tcheck) s
 table=opt\\title\\0,2\Si,0,-0.570755,0.018785,-0.107593\O,0,1.074688,-
 0.111703,0.067357\H,0,-1.122097,-1.230864,0.472851\H,0,-1.101996,1.206
 635,0.628171\H,0,1.617155,0.65487,-0.13357\\Version=ES64L-G16RevC.01\H
 F=-365.5449371\S2=0.75409\S2-1=0.\S2A=0.750008\RMSD=6.225e-09\Dipole=0
 .0503233,0.5168824,-0.1596554\Quadrupole=0.6525436,0.1752806,-0.827824
 2,2.1202261,-0.6117594,-0.1706734\PG=Unknown\\@

 Normal termination of Gaussian 16 at Tue Apr  8 23:50:15 2025.
 Gaussian 16:  ES64L-G16RevC.01  3-Jul-2019

 ----------------------------------------------------------------------
 #t hf aug-cc-pvdz iop(5/13=1,5/36=2,99/5=2) pseudo=read geom=check gue
 ss=(read,tcheck) scf=(maxcycle=1)
 ----------------------------------------------------------------------
 -----
 title
 -----
 Structure from the checkpoint file:  "BDE49_nonexpt_1866_mol3.chk"
 Charge =  0 Multiplicity = 2

                         Standard orientation:
 ---------------------------------------------------------------------
 Center     Atomic      Atomic             Coordinates (Angstroms)
 Number     Number       Type             X           Y           Z
 ---------------------------------------------------------------------
      1         14           0       -0.570755    0.018785   -0.107593
      2          8           0        1.074688   -0.111703    0.067357
      3          1           0       -1.122097   -1.230864    0.472851
      4          1           0       -1.101996    1.206635    0.628171
      5          1           0        1.617155    0.654870   -0.133570
 ---------------------------------------------------------------------

 SCF Done:  E(UHF) =  -365.999764319     A.U. after    2 cycles

 The electronic state is 2-A.
 Alpha  occ. eigenvalues --  -76.25011 -21.08587  -5.58444  -2.24148  -2.19865
 Alpha  occ. eigenvalues --   -2.18633  -1.66585  -0.75774  -0.58644  -0.48782
 Alpha  occ. eigenvalues --   -0.44851  -0.40040  -0.26289
 Alpha virt. eigenvalues --    0.03849   0.05403   0.06561   0.07327   0.08050
 Alpha virt. eigenvalues --    0.09499   0.13512   0.16635   0.17077   0.18392
 Alpha virt. eigenvalues --    0.21948   0.23257   0.24545   0.24701   0.26998

  Beta  occ. eigenvalues --  -76.24493 -21.08181  -5.57609  -2.23557  -2.19305
  Beta  occ. eigenvalues --   -2.15371  -1.65667  -0.72046  -0.57526  -0.47532
  Beta  occ. eigenvalues --   -0.41502  -0.39135
  Beta virt. eigenvalues --    0.03488   0.05109   0.05699   0.06745   0.07916
  Beta virt. eigenvalues --    0.09621   0.10217   0.15355   0.17398   0.19937
  Beta virt. eigenvalues --    0.20324   0.22552   0.23922   0.24816   0.25098

 Mulliken charges and spin densities:
               1          2
     1  Si   4.225531   0.873801
     2  O   -2.434771   0.073522
     3  H   -1.413652   0.019518
     4  H   -1.410752   0.034521
     5  H    1.033644  -0.001363
 Sum of Mulliken charges =  -0.00000   1.00000

 Dipole moment (field-independent basis, Debye):
    X=              0.8179    Y=              0.5475    Z=             -0.4485  Tot=              1.0816
                          Isotropic Fermi Contact Couplings
        Atom                 a.u.       MegaHertz       Gauss      10(-4) cm-1
     1  Si(29)             0.52021    -462.32641    -164.96956    -154.21549
     2  O(17)              0.03510     -21.27592      -7.59178      -7.09688
     3  H(1)               0.01201      53.69695      19.16041      17.91137
     4  H(1)               0.01586      70.87956      25.29159      23.64288
     5  H(1)              -0.00119      -5.33983      -1.90538      -1.78117
 --------------------------------------------------------
       Center         ----  Spin Dipole Couplings  ----
                      3XX-RR        3YY-RR        3ZZ-RR

 Normal termination of Gaussian 16 at Tue Apr  8 23:50:17 2025.
