 Gaussian 16, Revision C.01,

 ----------------------------------------------------------------------
 #t hf aug-cc-pvdz symm=none int=(grid=ultrafine) guess=(read,tcheck) s
 table=opt
 ----------------------------------------------------------------------
 -----
 title
 -----
 Symbolic Z-matrix:
 Charge =  0 Multiplicity = 2

 SCF Done:  E(UHF) =  -1888.71232762     A.U. after   19 cycles
 Normal termination of Gaussian 16 at Tue Apr  8 23:16:56 2025.
 Gaussian 16:  ES64L-G16RevC.01  3-Jul-2019

 ----------------------------------------------------------------------
 #t hf aug-cc-pvdz iop(5/13=1,5/36=2,99/5=2) pseudo=read geom=check gue
 ss=(read,tcheck) scf=(maxcycle=1)
 ----------------------------------------------------------------------
 -----
 title
 -----
 Structure from the checkpoint file:  "BDE49_nonexpt_1013_mol2.chk"
 Charge =  0 Multiplicity = 2

                         Standard orientation:
 ---------------------------------------------------------------------
 Center     Atomic      Atomic             Coordinates (Angstroms)
 Number     Number       Type             X           Y           Z
 ---------------------------------------------------------------------
      1         16           0        2.297810    0.000000   -0.464936
      2          8           0        0.714396    0.000000   -0.986474
      3          6           0       -0.331414    0.000000   -0.056555
      4         17           0       -1.814241    0.000000   -1.040310
      5         17           0       -0.283810    1.465191    0.981040
      6         17           0       -0.283810   -1.465191    0.981041
 ---------------------------------------------------------------------

 SCF Done:  E(UHF) =  -1890.11930998     A.U. after    2 cycles

 The electronic state is 2-A.
 Alpha  occ. eigenvalues --  -99.92582 -99.92575 -99.92546 -75.78080 -21.14780
 Alpha  occ. eigenvalues --  -13.23153 -13.11331 -13.11052 -11.59659 -10.50146
 Alpha  occ. eigenvalues --  -10.49874 -10.49836  -9.69941  -9.69862  -9.69591
 Alpha  occ. eigenvalues --   -9.69034  -9.69027  -9.68982  -9.68938  -9.68876
 Alpha  occ. eigenvalues --   -9.68864  -8.11373  -1.86439  -1.42807  -1.31966
 Alpha  occ. eigenvalues --   -1.31792  -1.10928  -0.93493  -0.74366  -0.74320
 Alpha  occ. eigenvalues --   -0.69578  -0.59203  -0.58474  -0.52384  -0.52348
 Alpha  occ. eigenvalues --   -0.52099  -0.51037  -0.48238  -0.46776  -0.29636
 Alpha  occ. eigenvalues --   -0.28707
 Alpha virt. eigenvalues --   -0.00408   0.04215   0.05873   0.06160   0.06644
 Alpha virt. eigenvalues --    0.09548   0.09930   0.11284   0.12819   0.13256
 Alpha virt. eigenvalues --    0.14055   0.14976   0.16496   0.17365   0.17790

  Beta  occ. eigenvalues --  -99.92583 -99.92568 -99.92541 -75.77103 -21.14314
  Beta  occ. eigenvalues --  -13.22758 -13.10487 -13.05320 -11.59699 -10.50143
  Beta  occ. eigenvalues --  -10.49874 -10.49830  -9.69938  -9.69831  -9.69576
  Beta  occ. eigenvalues --   -9.69035  -9.69022  -9.68983  -9.68931  -9.68869
  Beta  occ. eigenvalues --   -9.68862  -8.10279  -1.85374  -1.42630  -1.31960
  Beta  occ. eigenvalues --   -1.31730  -1.04619  -0.91159  -0.74150  -0.73940
  Beta  occ. eigenvalues --   -0.68634  -0.58550  -0.58361  -0.52304  -0.52123
  Beta  occ. eigenvalues --   -0.51846  -0.50999  -0.46051  -0.44310  -0.27321
  Beta virt. eigenvalues --   -0.00350   0.01579   0.04424   0.05982   0.06760
  Beta virt. eigenvalues --    0.06762   0.09578   0.10512   0.11540   0.13332
  Beta virt. eigenvalues --    0.14207   0.14980   0.15096   0.16712   0.17758

 Mulliken charges and spin densities:
               1          2
     1  S    1.077760   0.961200
     2  O   -2.048363   0.015540
     3  C   -0.480095   0.014850
     4  Cl   0.443899  -0.003477
     5  Cl   0.503399   0.005944
     6  Cl   0.503399   0.005944
 Sum of Mulliken charges =  -0.00000   1.00000

 Dipole moment (field-independent basis, Debye):
    X=              3.2589    Y=              0.0000    Z=             -0.9204  Tot=              3.3864
                          Isotropic Fermi Contact Couplings
        Atom                 a.u.       MegaHertz       Gauss      10(-4) cm-1
     1  S(33)              0.29322     100.71337      35.93703      33.59436
     2  O(17)              0.02910     -17.64278      -6.29538      -5.88500
     3  C(13)             -0.00667      -7.50157      -2.67675      -2.50226
     4  Cl(35)            -0.00276      -1.21114      -0.43216      -0.40399
     5  Cl(35)            -0.00050      -0.22110      -0.07890      -0.07375
     6  Cl(35)            -0.00050      -0.22110      -0.07890      -0.07375
 --------------------------------------------------------
       Center         ----  Spin Dipole Couplings  ----

 Normal termination of Gaussian 16 at Tue Apr  8 23:16:58 2025.
