 Gaussian 16, Revision C.01,

 ----------------------------------------------------------------------
 #t hf aug-cc-pvdz symm=none int=(grid=ultrafine) guess=(read,tcheck) s
 table=(opt,rrhf)
 ----------------------------------------------------------------------
 -----
 title
 -----
 Symbolic Z-matrix:
 Charge =  0 Multiplicity = 1

 SCF Done:  E(RHF) =  -846.999517138     A.U. after   13 cycles
 Normal termination of Gaussian 16 at Tue Apr  8 22:56:07 2025.
 Gaussian 16:  ES64L-G16RevC.01  3-Jul-2019

 ----------------------------------------------------------------------
 #t hf aug-cc-pvdz iop(5/13=1,5/36=2,99/5=2) pseudo=read geom=check gue
 ss=(read,tcheck) scf=(maxcycle=1)
 ----------------------------------------------------------------------
 -----
 title
 -----
 Structure from the checkpoint file:  "BDE49_expt_1705_mol1.chk"
 Charge =  0 Multiplicity = 1

                         Standard orientation:
 ---------------------------------------------------------------------
 Center     Atomic      Atomic             Coordinates (Angstroms)
 Number     Number       Type             X           Y           Z
 ---------------------------------------------------------------------
      1          6           0        0.927312    0.000022    0.000010
      2          6           0        0.436489   -0.089582    1.449841
      3          6           0       -1.110266   -0.089931    1.450693
      4          1           0        0.820900    0.758609    2.023686
      5          1           0        0.821385   -1.001658    1.915076
      6          6           0       -1.622666   -1.302194    0.647857
      7          6           0       -1.110170   -1.211545   -0.803266
      8          1           0       -2.718026   -1.323921    0.658789
      9          1           0       -1.279860   -2.234011    1.111447
     10          6           0        0.436613   -1.210788   -0.802570
     11          1           0        0.821202   -2.131828   -0.355066
     12          1           0        0.821416   -1.157500   -1.825099
     13          6           0        0.436655    1.300484   -0.647252
     14          6           0       -1.110118    1.301468   -0.647575
     15          1           0        0.821220    1.373392   -1.668669
     16          1           0        0.821481    2.159380   -0.089864
     17          6           0       -1.622737    1.212144    0.803607
     18          1           0       -1.462482   -0.153937    2.485264
     19          1           0       -1.280028    2.079575    1.378797
     20          1           0       -2.718104    1.232370    0.816889
     21          6           0       -1.622650    0.089971   -1.451476
     22          1           0       -1.462331    2.229489   -1.109320
     23          1           0       -2.718020    0.091519   -1.475604
     24          1           0       -1.280005    0.154262   -2.490298
     25          1           0       -1.462376   -2.075439   -1.376100
     26         17           0        2.777815   -0.000035    0.000050
 ---------------------------------------------------------------------

 SCF Done:  E(RHF) =  -849.217484871     A.U. after    2 cycles

 The electronic state is 1-A.
 Alpha  occ. eigenvalues --  -99.85778 -11.50364 -11.48495 -11.48493 -11.42420
 Alpha  occ. eigenvalues --  -11.42309 -11.42309 -11.40459 -11.39206 -11.39205
 Alpha  occ. eigenvalues --  -11.34719 -10.43012  -9.63172  -9.62330  -9.62330
 Alpha  occ. eigenvalues --   -1.43907  -1.27858  -1.16356  -1.16354  -1.12994
 Alpha  occ. eigenvalues --   -0.99506  -0.99504  -0.85386  -0.85386  -0.83695
 Alpha  occ. eigenvalues --   -0.74438  -0.65725  -0.64278  -0.64277  -0.63821
 Alpha  occ. eigenvalues --   -0.58410  -0.58409  -0.56624  -0.56184  -0.55865
 Alpha  occ. eigenvalues --   -0.55862  -0.50092  -0.50091  -0.44301  -0.44297
 Alpha  occ. eigenvalues --   -0.43365  -0.41765  -0.41763  -0.38966  -0.37027
 Alpha  occ. eigenvalues --   -0.37024
 Alpha virt. eigenvalues --    0.03531   0.04329   0.04329   0.04398   0.04398
 Alpha virt. eigenvalues --    0.04873   0.06847   0.06847   0.07124   0.07688
 Alpha virt. eigenvalues --    0.07960   0.08435   0.08435   0.08996   0.08996

 Mulliken charges:
               1
     1  C    3.369094
     2  C   -5.104194
     3  C    2.223918
     4  H    1.194027
     5  H    1.193696
     6  C   -4.653759
     7  C    2.222299
     8  H    1.232290
     9  H    1.229260
    10  C   -5.104375
    11  H    1.194026
    12  H    1.193816
    13  C   -5.105065
    14  C    2.221979
    15  H    1.193995
    16  H    1.193749
    17  C   -4.652444
    18  H    1.651136
    19  H    1.229278
    20  H    1.232440
    21  C   -4.651720
    22  H    1.651328
    23  H    1.232491
    24  H    1.229232
    25  H    1.651302
    26  Cl  -0.267798
 Sum of Mulliken charges =   0.00000

 Dipole moment (field-independent basis, Debye):
    X=             -3.5670    Y=              0.0000    Z=             -0.0001  Tot=              3.5670

 Test job not archived.
 1\1\GINC-SE366\SP\RHF\Aug-CC-pVDZ\C10H15Cl1\OHZDE\08-Apr-2025\0\\#t hf
  aug-cc-pvdz iop(5/13=1,5/36=2,99/5=2) pseudo=read geom=check guess=(r
 ead,tcheck) scf=(maxcycle=1)\\title\\0,1\C,0,0.927312,0.000022,0.00001
 \C,0,0.436489,-0.089582,1.449841\C,0,-1.110266,-0.089931,1.450693\H,0,
 0.8209,0.758609,2.023686\H,0,0.821385,-1.001658,1.915076\C,0,-1.622666
 ,-1.302194,0.647857\C,0,-1.11017,-1.211545,-0.803266\H,0,-2.718026,-1.
 323922,0.658789\H,0,-1.27986,-2.234011,1.111447\C,0,0.436613,-1.210788
 ,-0.80257\H,0,0.821202,-2.131828,-0.355066\H,0,0.821416,-1.1575,-1.825

 Normal termination of Gaussian 16 at Tue Apr  8 22:56:26 2025.
