 Gaussian 16, Revision C.01,

 ----------------------------------------------------------------------
 #t hf aug-cc-pvdz symm=none int=(grid=ultrafine) guess=(read,tcheck) s
 table=(opt,rrhf)
 ----------------------------------------------------------------------
 -----
 title
 -----
 Symbolic Z-matrix:
 Charge =  0 Multiplicity = 1

 SCF Done:  E(RHF) =  -385.007920788     A.U. after   13 cycles
 Normal termination of Gaussian 16 at Wed Apr  9 00:49:06 2025.
 Gaussian 16:  ES64L-G16RevC.01  3-Jul-2019

 ----------------------------------------------------------------------
 #t hf aug-cc-pvdz iop(5/13=1,5/36=2,99/5=2) pseudo=read geom=check gue
 ss=(read,tcheck) scf=(maxcycle=1)
 ----------------------------------------------------------------------
 -----
 title
 -----
 Structure from the checkpoint file:  "BDE49_nonexpt_86_mol1.chk"
 Charge =  0 Multiplicity = 1

                         Standard orientation:
 ---------------------------------------------------------------------
 Center     Atomic      Atomic             Coordinates (Angstroms)
 Number     Number       Type             X           Y           Z
 ---------------------------------------------------------------------
      1          5           0       -0.626115    1.253282    0.568708
      2          5           0        0.626196    1.253409   -0.568606
      3          7           0        1.765311    0.426571   -0.430135
      4          6           0        2.568012   -0.367758   -0.028000
      5          8           0        3.386898   -1.127673    0.311373
      6          7           0       -1.765242    0.426477    0.430129
      7          6           0       -2.567940   -0.367823    0.027920
      8          8           0       -3.387086   -1.127473   -0.311413
      9          1           0        0.597935    1.975145   -1.524005
     10          1           0       -0.597764    1.974723    1.524331
 ---------------------------------------------------------------------

 SCF Done:  E(RHF) =  -386.600268166     A.U. after    2 cycles

 The electronic state is 1-A.
 Alpha  occ. eigenvalues --  -21.13368 -21.13365 -15.76521 -15.76514 -11.60879
 Alpha  occ. eigenvalues --  -11.60566  -7.65777  -7.65434  -1.78149  -1.78019
 Alpha  occ. eigenvalues --   -1.41505  -1.40223  -1.00933  -0.90854  -0.66673
 Alpha  occ. eigenvalues --   -0.64173  -0.63404  -0.62661  -0.61314  -0.61106
 Alpha  occ. eigenvalues --   -0.59706  -0.55935  -0.48514  -0.39022  -0.38729
 Alpha  occ. eigenvalues --   -0.37220  -0.30681
 Alpha virt. eigenvalues --    0.02199   0.02297   0.02547   0.04231   0.06734
 Alpha virt. eigenvalues --    0.07295   0.08286   0.09205   0.09566   0.10791
 Alpha virt. eigenvalues --    0.11265   0.12139   0.12155   0.12353   0.12553

 Mulliken charges:
               1
     1  B    4.015759
     2  B    4.015900
     3  N   -2.844183
     4  C    4.537238
     5  O   -2.517401
     6  N   -2.844075
     7  C    4.537173
     8  O   -2.517415
     9  H   -3.191569
    10  H   -3.191427
 Sum of Mulliken charges =  -0.00000

 Dipole moment (field-independent basis, Debye):
    X=             -0.0000    Y=             -0.8587    Z=             -0.0001  Tot=              0.8587

 Test job not archived.
 1\1\GINC-SE454\SP\RHF\Aug-CC-pVDZ\C2H2B2N2O2\OHZDE\09-Apr-2025\0\\#t h
 f aug-cc-pvdz iop(5/13=1,5/36=2,99/5=2) pseudo=read geom=check guess=(
 read,tcheck) scf=(maxcycle=1)\\title\\0,1\B,0,0.626115,1.253282,-0.568
 708\B,0,-0.626196,1.253409,0.568606\N,0,-1.765311,0.426571,0.430135\C,
 0,-2.568012,-0.367758,0.028\O,0,-3.386898,-1.127673,-0.311373\N,0,1.76
 5242,0.426477,-0.430129\C,0,2.56794,-0.367823,-0.02792\O,0,3.387086,-1
 .127473,0.311413\H,0,-0.597935,1.975145,1.524005\H,0,0.597764,1.974723
 ,-1.524331\\Version=ES64L-G16RevC.01\State=1-A\HF=-386.6002682\RMSD=1.

 Normal termination of Gaussian 16 at Wed Apr  9 00:49:09 2025.
