 Gaussian 16, Revision C.01,

 ----------------------------------------------------------------------
 #t hf aug-cc-pvdz symm=none int=(grid=ultrafine) guess=(read,tcheck) s
 table=(opt,rrhf)
 ----------------------------------------------------------------------
 -----
 title
 -----
 Symbolic Z-matrix:
 Charge =  0 Multiplicity = 1

 SCF Done:  E(RHF) =  -265.687290830     A.U. after   14 cycles
 Normal termination of Gaussian 16 at Tue Apr  8 22:37:25 2025.
 Gaussian 16:  ES64L-G16RevC.01  3-Jul-2019

 ----------------------------------------------------------------------
 #t hf aug-cc-pvdz iop(5/13=1,5/36=2,99/5=2) pseudo=read geom=check gue
 ss=(read,tcheck) scf=(maxcycle=1)
 ----------------------------------------------------------------------
 -----
 title
 -----
 Structure from the checkpoint file:  "BDE49_expt_1112_mol1.chk"
 Charge =  0 Multiplicity = 1

                         Standard orientation:
 ---------------------------------------------------------------------
 Center     Atomic      Atomic             Coordinates (Angstroms)
 Number     Number       Type             X           Y           Z
 ---------------------------------------------------------------------
      1          6           0       -0.781266   -0.636706   -0.000002
      2          6           0        0.498281    0.136862   -0.000007
      3          8           0        0.566568    1.334995    0.000003
      4          8           0        1.633366   -0.613373    0.000003
      5          1           0        1.416852   -1.552681    0.000004
      6          6           0       -1.951777   -0.005437    0.000000
      7          1           0       -0.736231   -1.723065   -0.000001
      8          1           0       -1.979898    1.078519    0.000000
      9          1           0       -2.891618   -0.544059    0.000003
 ---------------------------------------------------------------------

 SCF Done:  E(RHF) =  -266.830472282     A.U. after    2 cycles

 The electronic state is 1-A.
 Alpha  occ. eigenvalues --  -21.12706 -21.04767 -11.53150 -11.44596 -11.40875
 Alpha  occ. eigenvalues --   -1.82339  -1.65415  -1.19076  -0.92399  -0.77800
 Alpha  occ. eigenvalues --   -0.71353  -0.63258  -0.56677  -0.56326  -0.50650
 Alpha  occ. eigenvalues --   -0.45864  -0.38980  -0.33189  -0.30447
 Alpha virt. eigenvalues --    0.02826   0.04413   0.05702   0.07103   0.07734
 Alpha virt. eigenvalues --    0.10790   0.12022   0.12720   0.13446   0.13458
 Alpha virt. eigenvalues --    0.13923   0.14101   0.15672   0.16202   0.19277

 Mulliken charges:
               1
     1  C   -1.503764
     2  C    4.646259
     3  O   -3.046276
     4  O   -3.016772
     5  H    1.067620
     6  C   -2.403693
     7  H    1.434507
     8  H    1.452489
     9  H    1.369629
 Sum of Mulliken charges =   0.00000

 Dipole moment (field-independent basis, Debye):
    X=             -1.4529    Y=             -2.0838    Z=              0.0000  Tot=              2.5404

 Test job not archived.
 1\1\GINC-SE092\SP\RHF\Aug-CC-pVDZ\C3H4O2\OHZDE\08-Apr-2025\0\\#t hf au
 g-cc-pvdz iop(5/13=1,5/36=2,99/5=2) pseudo=read geom=check guess=(read
 ,tcheck) scf=(maxcycle=1)\\title\\0,1\C,0,0.781266,-0.636706,0.000002\
 C,0,-0.498281,0.136862,0.000007\O,0,-0.566568,1.334995,-0.000003\O,0,-
 1.633366,-0.613373,-0.000003\H,0,-1.416853,-1.552681,-0.000004\C,0,1.9
 51777,-0.005438,0.\H,0,0.73623,-1.723065,0.000001\H,0,1.979898,1.07851
 8,0.\H,0,2.891618,-0.54406,-0.000003\\Version=ES64L-G16RevC.01\State=1
 -A\HF=-266.8304723\RMSD=3.884e-01\Dipole=0.5716315,-0.8198466,-0.00000

 Normal termination of Gaussian 16 at Tue Apr  8 22:37:28 2025.
