 Gaussian 16, Revision C.01,

 ----------------------------------------------------------------------
 #t hf aug-cc-pvdz symm=none int=(grid=ultrafine) guess=(read,tcheck) s
 table=(opt,rrhf)
 ----------------------------------------------------------------------
 -----
 title
 -----
 Symbolic Z-matrix:
 Charge =  0 Multiplicity = 1

 SCF Done:  E(RHF) =  -615.052374419     A.U. after   13 cycles

 1\1\GINC-SE110\Stability\RHF\Aug-CC-pVDZ\C4H7Cl1\OHZDE\08-Apr-2025\0\\
 #t hf aug-cc-pvdz symm=none int=(grid=ultrafine) guess=(read,tcheck) s
 table=(opt,rrhf)\\title\\0,1\C,0,2.909407,-0.275309,-0.32321\C,0,1.893
 208,0.326436,0.287325\C,0,0.523976,-0.272726,0.470414\C,0,-0.526573,0.
 518761,-0.305462\H,0,0.252006,-0.268835,1.531512\H,0,0.516501,-1.31330
 9,0.136416\Cl,0,-2.198551,-0.146642,-0.035226\H,0,-0.351835,0.472424,-
 1.378855\H,0,-0.565599,1.561204,0.00825\H,0,3.875948,0.204827,-0.42559
 9\H,0,2.813902,-1.275375,-0.735486\H,0,2.034332,1.329006,0.688204\\Ver

 Normal termination of Gaussian 16 at Tue Apr  8 22:32:44 2025.
 Gaussian 16:  ES64L-G16RevC.01  3-Jul-2019

 ----------------------------------------------------------------------
 #t hf aug-cc-pvdz iop(5/13=1,5/36=2,99/5=2) pseudo=read geom=check gue
 ss=(read,tcheck) scf=(maxcycle=1)
 ----------------------------------------------------------------------
 -----
 title
 -----
 Structure from the checkpoint file:  "BDE49_expt_1033_mol1.chk"
 Charge =  0 Multiplicity = 1

                         Standard orientation:
 ---------------------------------------------------------------------
 Center     Atomic      Atomic             Coordinates (Angstroms)
 Number     Number       Type             X           Y           Z
 ---------------------------------------------------------------------
      1          6           0        2.909407   -0.275309   -0.323210
      2          6           0        1.893208    0.326436    0.287325
      3          6           0        0.523976   -0.272726    0.470414
      4          6           0       -0.526573    0.518761   -0.305462
      5          1           0        0.252006   -0.268835    1.531512
      6          1           0        0.516501   -1.313309    0.136416
      7         17           0       -2.198551   -0.146642   -0.035226
      8          1           0       -0.351835    0.472424   -1.378855
      9          1           0       -0.565599    1.561204    0.008250
     10          1           0        3.875948    0.204827   -0.425599
     11          1           0        2.813902   -1.275375   -0.735486
     12          1           0        2.034332    1.329006    0.688204
 ---------------------------------------------------------------------

 SCF Done:  E(RHF) =  -616.084414301     A.U. after    2 cycles

 The electronic state is 1-A.
 Alpha  occ. eigenvalues --  -99.87417 -11.45810 -11.43033 -11.40216 -11.37733
 Alpha  occ. eigenvalues --  -10.44648  -9.64560  -9.63835  -9.63775  -1.33874
 Alpha  occ. eigenvalues --   -1.21347  -1.06439  -0.91228  -0.80241  -0.68108
 Alpha  occ. eigenvalues --   -0.64010  -0.60833  -0.57353  -0.55630  -0.51317
 Alpha  occ. eigenvalues --   -0.48722  -0.46897  -0.45362  -0.35798
 Alpha virt. eigenvalues --    0.03338   0.05060   0.05785   0.06025   0.06297
 Alpha virt. eigenvalues --    0.06590   0.07228   0.07648   0.10608   0.10840
 Alpha virt. eigenvalues --    0.13142   0.13639   0.14792   0.15003   0.15481

 Mulliken charges:
               1
     1  C   -3.072951
     2  C   -0.302271
     3  C   -3.056345
     4  C   -3.698569
     5  H    1.394948
     6  H    1.434526
     7  Cl  -0.021295
     8  H    1.596424
     9  H    1.592813
    10  H    1.374209
    11  H    1.409247
    12  H    1.349264
 Sum of Mulliken charges =   0.00000

 Dipole moment (field-independent basis, Debye):
    X=              2.4400    Y=              0.7051    Z=             -0.1232  Tot=              2.5428

 Test job not archived.
 1\1\GINC-SE110\SP\RHF\Aug-CC-pVDZ\C4H7Cl1\OHZDE\08-Apr-2025\0\\#t hf a
 ug-cc-pvdz iop(5/13=1,5/36=2,99/5=2) pseudo=read geom=check guess=(rea
 d,tcheck) scf=(maxcycle=1)\\title\\0,1\C,0,2.909407,-0.275309,-0.32321
 \C,0,1.893208,0.326436,0.287325\C,0,0.523976,-0.272726,0.470414\C,0,-0
 .526573,0.518761,-0.305462\H,0,0.252006,-0.268835,1.531512\H,0,0.51650
 1,-1.313309,0.136416\Cl,0,-2.198551,-0.146642,-0.035226\H,0,-0.351835,
 0.472424,-1.378855\H,0,-0.565599,1.561204,0.00825\H,0,3.875948,0.20482
 7,-0.425599\H,0,2.813902,-1.275375,-0.735486\H,0,2.034332,1.329006,0.6

 Normal termination of Gaussian 16 at Tue Apr  8 22:32:47 2025.
