 Gaussian 16, Revision C.01,

 ----------------------------------------------------------------------
 #t hf aug-cc-pvdz symm=none int=(grid=ultrafine) guess=(read,tcheck) s
 table=(opt,rrhf)
 ----------------------------------------------------------------------
 -----
 title
 -----
 Symbolic Z-matrix:
 Charge =  0 Multiplicity = 1

 SCF Done:  E(RHF) =  -487.961157441     A.U. after   13 cycles
 Normal termination of Gaussian 16 at Wed Apr  9 00:33:54 2025.
 Gaussian 16:  ES64L-G16RevC.01  3-Jul-2019

 ----------------------------------------------------------------------
 #t hf aug-cc-pvdz iop(5/13=1,5/36=2,99/5=2) pseudo=read geom=check gue
 ss=(read,tcheck) scf=(maxcycle=1)
 ----------------------------------------------------------------------
 -----
 title
 -----
 Structure from the checkpoint file:  "BDE49_nonexpt_414_mol1.chk"
 Charge =  0 Multiplicity = 1

                         Standard orientation:
 ---------------------------------------------------------------------
 Center     Atomic      Atomic             Coordinates (Angstroms)
 Number     Number       Type             X           Y           Z
 ---------------------------------------------------------------------
      1          9           0        0.399951    1.590428    1.133061
      2          5           0        0.237056    0.930100    0.000000
      3          9           0        0.399951    1.590428   -1.133061
      4          6           0       -0.135040   -0.623834   -0.000000
      5          8           0        0.399951   -1.310296   -1.097401
      6          1           0        0.097070   -0.858274   -1.892552
      7          8           0       -1.545880   -0.657671   -0.000000
      8          1           0       -1.800468   -1.592549   -0.000000
      9          8           0        0.399951   -1.310296    1.097401
     10          1           0        0.097070   -0.858274    1.892552
 ---------------------------------------------------------------------

 SCF Done:  E(RHF) =  -489.821665935     A.U. after    2 cycles

 The electronic state is 1-A'.
 Alpha  occ. eigenvalues --  -29.28017 -29.27928 -21.10210 -21.09915 -21.09887
 Alpha  occ. eigenvalues --  -11.48432  -7.72230  -1.87375  -1.68789  -1.67619
 Alpha  occ. eigenvalues --   -1.18274  -0.90608  -0.78275  -0.75591  -0.65724
 Alpha  occ. eigenvalues --   -0.59563  -0.55662  -0.52661  -0.51171  -0.47953
 Alpha  occ. eigenvalues --   -0.47915  -0.42341  -0.40790  -0.36001  -0.35538
 Alpha  occ. eigenvalues --   -0.34767  -0.32021  -0.25414
 Alpha virt. eigenvalues --    0.03895   0.04489   0.04903   0.04976   0.06327
 Alpha virt. eigenvalues --    0.07196   0.08364   0.12262   0.14509   0.15767
 Alpha virt. eigenvalues --    0.16168   0.18051   0.18427   0.19287   0.20916

 Mulliken charges:
               1
     1  F   -0.606010
     2  B    1.589689
     3  F   -0.606010
     4  C    6.643393
     5  O   -3.239323
     6  H    0.933998
     7  O   -2.892954
     8  H    0.482542
     9  O   -3.239323
    10  H    0.933998
 Sum of Mulliken charges =   0.00000

 Dipole moment (field-independent basis, Debye):
    X=              0.1616    Y=              2.5916    Z=              0.0000  Tot=              2.5967

 Test job not archived.
 1\1\GINC-SE186\SP\RHF\Aug-CC-pVDZ\C1H3B1F2O3\OHZDE\09-Apr-2025\0\\#t h
 f aug-cc-pvdz iop(5/13=1,5/36=2,99/5=2) pseudo=read geom=check guess=(
 read,tcheck) scf=(maxcycle=1)\\title\\0,1\F,0,-0.399951,1.590428,-1.13
 3061\B,0,-0.237056,0.9301,0.\F,0,-0.399951,1.590428,1.133061\C,0,0.135
 04,-0.623834,0.\O,0,-0.399951,-1.310296,1.097401\H,0,-0.09707,-0.85827
 4,1.892552\O,0,1.54588,-0.657671,0.\H,0,1.800468,-1.592549,0.\O,0,-0.3
 99951,-1.310296,-1.097401\H,0,-0.09707,-0.858274,-1.892552\\Version=ES
 64L-G16RevC.01\State=1-A'\HF=-489.8216659\RMSD=2.107e-01\Dipole=-0.063

 Normal termination of Gaussian 16 at Wed Apr  9 00:33:58 2025.
