 Gaussian 16, Revision C.01,

 ----------------------------------------------------------------------
 #t hf aug-cc-pvdz symm=none int=(grid=ultrafine) guess=(read,tcheck) s
 table=opt
 ----------------------------------------------------------------------
 -----
 title
 -----
 Symbolic Z-matrix:
 Charge =  0 Multiplicity = 2

 SCF Done:  E(UHF) =  -703.958737016     A.U. after   25 cycles
 Normal termination of Gaussian 16 at Wed Apr  9 00:20:47 2025.
 Gaussian 16:  ES64L-G16RevC.01  3-Jul-2019

 ----------------------------------------------------------------------
 #t hf aug-cc-pvdz iop(5/13=1,5/36=2,99/5=2) pseudo=read geom=check gue
 ss=(read,tcheck) scf=(maxcycle=1)
 ----------------------------------------------------------------------
 -----
 title
 -----
 Structure from the checkpoint file:  "BDE49_nonexpt_2585_mol2.chk"
 Charge =  0 Multiplicity = 2

                         Standard orientation:
 ---------------------------------------------------------------------
 Center     Atomic      Atomic             Coordinates (Angstroms)
 Number     Number       Type             X           Y           Z
 ---------------------------------------------------------------------
      1         16           0        0.052784    1.654526   -0.446461
      2          6           0        0.011204   -0.044293    0.371784
      3          8           0        1.277428   -0.540769    0.621933
      4          8           0       -0.606042   -0.890723   -0.575713
      5          6           0        2.110115   -0.812467   -0.506876
      6          1           0        3.074464   -1.106691   -0.095585
      7          1           0        2.230194    0.086055   -1.120299
      8          1           0        1.699277   -1.621696   -1.113011
      9          6           0       -2.025394   -0.845139   -0.714682
     10          1           0       -2.255752   -1.431810   -1.603219
     11          1           0       -2.382524    0.178731   -0.856195
     12          1           0       -2.525541   -1.294017    0.148997
     13          6           0       -0.685859    0.037350    1.722235
     14          1           0       -0.097758    0.671970    2.385914
     15          1           0       -0.728948   -0.966457    2.153275
     16          1           0       -1.689428    0.450725    1.638973
 ---------------------------------------------------------------------

 SCF Done:  E(UHF) =  -705.563912209     A.U. after    2 cycles

 The electronic state is 2-A.
 Alpha  occ. eigenvalues --  -75.69866 -21.06063 -21.05594 -13.13825 -13.07457
 Alpha  occ. eigenvalues --  -13.06404 -11.50957 -11.41358 -11.40094 -11.38389
 Alpha  occ. eigenvalues --   -8.03454  -1.83982  -1.70014  -1.16903  -1.06677
 Alpha  occ. eigenvalues --   -1.01340  -0.97635  -0.77885  -0.66094  -0.64490
 Alpha  occ. eigenvalues --   -0.64322  -0.60975  -0.58999  -0.57155  -0.54999
 Alpha  occ. eigenvalues --   -0.50298  -0.48867  -0.40643  -0.39661  -0.32730
 Alpha  occ. eigenvalues --   -0.29024  -0.26658  -0.24761
 Alpha virt. eigenvalues --    0.03513   0.05203   0.05237   0.05516   0.05815
 Alpha virt. eigenvalues --    0.06194   0.06765   0.07218   0.08665   0.09561
 Alpha virt. eigenvalues --    0.11380   0.12473   0.13678   0.14466   0.15318

  Beta  occ. eigenvalues --  -75.68871 -21.05937 -21.05604 -13.13146 -13.06272
  Beta  occ. eigenvalues --  -13.01055 -11.51086 -11.41362 -11.40090 -11.38373
  Beta  occ. eigenvalues --   -8.02343  -1.83898  -1.69899  -1.14897  -1.02239
  Beta  occ. eigenvalues --   -0.99398  -0.97474  -0.76777  -0.66071  -0.64088
  Beta  occ. eigenvalues --   -0.63821  -0.60888  -0.58778  -0.57081  -0.54904
  Beta  occ. eigenvalues --   -0.50171  -0.48526  -0.40170  -0.39262  -0.31521
  Beta  occ. eigenvalues --   -0.27044  -0.23362
  Beta virt. eigenvalues --    0.03546   0.03819   0.05234   0.05446   0.05723
  Beta virt. eigenvalues --    0.06184   0.06563   0.06807   0.07321   0.08832
  Beta virt. eigenvalues --    0.09852   0.11426   0.12848   0.14014   0.14667

 Mulliken charges and spin densities:
               1          2
     1  S    0.090394   1.203653
     2  C    5.952448  -0.180248
     3  O   -3.667044   0.003111
     4  O   -3.645221  -0.065926
     5  C   -3.311037   0.024899
     6  H    1.276838   0.003801
     7  H    1.537487  -0.024441
     8  H    1.406502   0.003296
     9  C   -3.121572  -0.017413
    10  H    1.364432  -0.002635
    11  H    1.545137  -0.032408
    12  H    1.428918   0.008747
    13  C   -4.565687   0.080153
    14  H    1.234596   0.005089
    15  H    1.298269   0.004137
    16  H    1.175540  -0.013817
 Sum of Mulliken charges =  -0.00000   1.00000

 Dipole moment (field-independent basis, Debye):
    X=             -0.4075    Y=             -0.3857    Z=             -0.2295  Tot=              0.6062
                          Isotropic Fermi Contact Couplings
        Atom                 a.u.       MegaHertz       Gauss      10(-4) cm-1
     1  S(33)              0.24963      85.74261      30.59510      28.60066
     2  C(13)             -0.01552     -17.44854      -6.22607      -5.82021
     3  O(17)             -0.00197       1.19151       0.42516       0.39745
     4  O(17)              0.01842     -11.16384      -3.98354      -3.72386
     5  C(13)             -0.00028      -0.30944      -0.11042      -0.10322
     6  H(1)               0.00007       0.29264       0.10442       0.09761
     7  H(1)               0.00022       0.98207       0.35043       0.32758
     8  H(1)              -0.00002      -0.07952      -0.02837      -0.02652

 Normal termination of Gaussian 16 at Wed Apr  9 00:20:54 2025.
