 Gaussian 16, Revision C.01,

 ----------------------------------------------------------------------
 #t hf aug-cc-pvdz symm=none int=(grid=ultrafine) guess=(read,tcheck) s
 table=(opt,rrhf)
 ----------------------------------------------------------------------
 -----
 title
 -----
 Symbolic Z-matrix:
 Charge =  0 Multiplicity = 1

 SCF Done:  E(RHF) =  -598.897567000     A.U. after   14 cycles
 Normal termination of Gaussian 16 at Tue Apr  8 23:52:33 2025.
 Gaussian 16:  ES64L-G16RevC.01  3-Jul-2019

 ----------------------------------------------------------------------
 #t hf aug-cc-pvdz iop(5/13=1,5/36=2,99/5=2) pseudo=read geom=check gue
 ss=(read,tcheck) scf=(maxcycle=1)
 ----------------------------------------------------------------------
 -----
 title
 -----
 Structure from the checkpoint file:  "BDE49_nonexpt_1892_mol1.chk"
 Charge =  0 Multiplicity = 1

                         Standard orientation:
 ---------------------------------------------------------------------
 Center     Atomic      Atomic             Coordinates (Angstroms)
 Number     Number       Type             X           Y           Z
 ---------------------------------------------------------------------
      1          6           0        1.765320   -0.000008   -0.525613
      2         14           0        3.613872   -0.000002   -0.141294
      3          6           0        0.853247    0.000011    0.724381
      4          6           0       -0.621405    0.000006    0.380667
      5          6           0       -1.316224   -1.200917    0.202062
      6          6           0       -1.316226    1.200923    0.202033
      7          6           0       -2.664206   -1.203621   -0.148891
      8          6           0       -3.343086   -0.000005   -0.326671
      9          6           0       -2.664209    1.203616   -0.148919
     10          1           0       -0.796806   -2.143693    0.344804
     11          1           0       -3.185736   -2.145679   -0.278340
     12          1           0       -4.393099   -0.000010   -0.596556
     13          1           0       -3.185740    2.145670   -0.278391
     14          1           0       -0.796810    2.143703    0.344753
     15          1           0        3.980903    1.201657    0.648496
     16          1           0        4.404255   -0.000018   -1.396111
     17          1           0        1.080006    0.876909    1.339792
     18          1           0        1.080006   -0.876868    1.339819
     19          1           0        3.980904   -1.201639    0.648528
     20          1           0        1.539319   -0.874517   -1.146468
     21          1           0        1.539318    0.874483   -1.146495
 ---------------------------------------------------------------------

 SCF Done:  E(RHF) =  -600.589566672     A.U. after    2 cycles

 The electronic state is 1-A.
 Alpha  occ. eigenvalues --  -76.20826 -11.51498 -11.44273 -11.42800 -11.41713
 Alpha  occ. eigenvalues --  -11.40283 -11.40104 -11.36552 -11.35443  -5.54348
 Alpha  occ. eigenvalues --   -2.18358  -2.16714  -2.16530  -1.35213  -1.18295
 Alpha  occ. eigenvalues --   -1.08719  -1.05712  -0.91622  -0.86019  -0.82230
 Alpha  occ. eigenvalues --   -0.74676  -0.70346  -0.64383  -0.63594  -0.57651
 Alpha  occ. eigenvalues --   -0.56415  -0.55523  -0.53788  -0.49108  -0.48478
 Alpha  occ. eigenvalues --   -0.46253  -0.46127  -0.45064  -0.43584  -0.38383
 Alpha  occ. eigenvalues --   -0.32692  -0.31167
 Alpha virt. eigenvalues --    0.03474   0.04642   0.05025   0.05254   0.05822
 Alpha virt. eigenvalues --    0.05868   0.06028   0.06504   0.06926   0.07861
 Alpha virt. eigenvalues --    0.08622   0.08820   0.10177   0.10631   0.10950

 Mulliken charges:
               1
     1  C   -4.243326
     2  Si   6.000049
     3  C   -4.371324
     4  C    4.222710
     5  C   -1.999566
     6  C   -1.999579
     7  C   -1.707651
     8  C   -2.845452
     9  C   -1.707633
    10  H    1.752589
    11  H    1.498676
    12  H    1.533019
    13  H    1.498677
    14  H    1.752586
    15  H   -1.778912
    16  H   -1.730943
    17  H    1.355791
    18  H    1.355788
    19  H   -1.778913
    20  H    1.596708
    21  H    1.596705
 Sum of Mulliken charges =   0.00000

 Dipole moment (field-independent basis, Debye):
    X=             -0.8167    Y=             -0.0000    Z=             -0.1953  Tot=              0.8398

 Test job not archived.
 1\1\GINC-SE460\SP\RHF\Aug-CC-pVDZ\C8H12Si1\OHZDE\08-Apr-2025\0\\#t hf
 aug-cc-pvdz iop(5/13=1,5/36=2,99/5=2) pseudo=read geom=check guess=(re
 ad,tcheck) scf=(maxcycle=1)\\title\\0,1\C,0,1.76532,-0.000008,-0.52561
 3\Si,0,3.613872,-0.000002,-0.141294\C,0,0.853247,0.000011,0.724381\C,0
 ,-0.621405,0.000006,0.380667\C,0,-1.316224,-1.200917,0.202062\C,0,-1.3
 16226,1.200923,0.202033\C,0,-2.664206,-1.203621,-0.148891\C,0,-3.34308
 6,-0.000005,-0.326671\C,0,-2.664209,1.203616,-0.148919\H,0,-0.796806,-
 2.143693,0.344804\H,0,-3.185736,-2.145679,-0.27834\H,0,-4.393099,-0.00

 Normal termination of Gaussian 16 at Tue Apr  8 23:52:44 2025.
