 Gaussian 16, Revision C.01,

 ----------------------------------------------------------------------
 #t hf aug-cc-pvdz symm=none int=(grid=ultrafine) guess=(read,tcheck) s
 table=(opt,rrhf)
 ----------------------------------------------------------------------
 -----
 title
 -----
 Symbolic Z-matrix:
 Charge =  0 Multiplicity = 1

 SCF Done:  E(RHF) =  -884.905662198     A.U. after   15 cycles
 Normal termination of Gaussian 16 at Wed Apr  9 00:11:25 2025.
 Gaussian 16:  ES64L-G16RevC.01  3-Jul-2019

 ----------------------------------------------------------------------
 #t hf aug-cc-pvdz iop(5/13=1,5/36=2,99/5=2) pseudo=read geom=check gue
 ss=(read,tcheck) scf=(maxcycle=1)
 ----------------------------------------------------------------------
 -----
 title
 -----
 Structure from the checkpoint file:  "BDE49_nonexpt_2340_mol1.chk"
 Charge =  0 Multiplicity = 1

                         Standard orientation:
 ---------------------------------------------------------------------
 Center     Atomic      Atomic             Coordinates (Angstroms)
 Number     Number       Type             X           Y           Z
 ---------------------------------------------------------------------
      1         14           0        1.091426   -1.227502    0.213124
      2         14           0       -1.073976   -1.087705   -0.698512
      3          6           0       -2.039257    0.289315    0.281379
      4          1           0       -1.805134   -2.359843   -0.497774
      5          1           0       -0.971299   -0.803964   -2.152080
      6          8           0       -2.362549    0.018500    1.419565
      7          6           0        1.880170    0.537394   -0.041681
      8          1           0        1.079633   -1.520059    1.668247
      9          1           0        1.947415   -2.250631   -0.442583
     10          8           0        1.159393    1.434871   -0.436939
     11          6           0       -2.325850    1.631584   -0.349987
     12          1           0       -2.910703    1.498925   -1.266306
     13          1           0       -1.376797    2.095679   -0.636191
     14          1           0       -2.865787    2.269462    0.351964
     15          6           0        3.344701    0.775400    0.259609
     16          1           0        3.963290    0.125532   -0.368443
     17          1           0        3.559836    0.507676    1.299593
     18          1           0        3.601915    1.820983    0.082091
 ---------------------------------------------------------------------

 SCF Done:  E(RHF) =  -886.580701020     A.U. after    2 cycles

 The electronic state is 1-A.
 Alpha  occ. eigenvalues --  -76.23079 -76.22510 -21.07260 -21.05814 -11.48078
 Alpha  occ. eigenvalues --  -11.46815 -11.39386 -11.37612  -5.56673  -5.56099
 Alpha  occ. eigenvalues --   -2.20266  -2.19869  -2.18753  -2.18582  -2.18457
 Alpha  occ. eigenvalues --   -2.17356  -1.71658  -1.70165  -1.11519  -1.10016
 Alpha  occ. eigenvalues --   -0.86098  -0.81243  -0.72358  -0.68204  -0.61278
 Alpha  occ. eigenvalues --   -0.60150  -0.59334  -0.58280  -0.55886  -0.54476
 Alpha  occ. eigenvalues --   -0.49408  -0.48288  -0.47129  -0.46162  -0.43422
 Alpha  occ. eigenvalues --   -0.42977  -0.35893  -0.27920  -0.26009
 Alpha virt. eigenvalues --    0.03352   0.04370   0.05044   0.05661   0.06028
 Alpha virt. eigenvalues --    0.06259   0.06887   0.07037   0.07484   0.08062
 Alpha virt. eigenvalues --    0.08396   0.09003   0.09326   0.09394   0.10014

 Mulliken charges:
               1
     1  Si   4.655016
     2  Si   4.407389
     3  C    1.521107
     4  H   -1.957212
     5  H   -1.573643
     6  O   -2.640401
     7  C    2.056711
     8  H   -1.896014
     9  H   -1.823079
    10  O   -2.699705
    11  C   -3.716526
    12  H    1.390323
    13  H    1.426410
    14  H    1.220117
    15  C   -4.352206
    16  H    1.330557
    17  H    1.286886
    18  H    1.364270
 Sum of Mulliken charges =  -0.00000

 Dipole moment (field-independent basis, Debye):
    X=              0.8371    Y=              0.5362    Z=             -0.4242  Tot=              1.0808

 Test job not archived.
 1\1\GINC-SE095\SP\RHF\Aug-CC-pVDZ\C4H10O2Si2\OHZDE\09-Apr-2025\0\\#t h
 f aug-cc-pvdz iop(5/13=1,5/36=2,99/5=2) pseudo=read geom=check guess=(
 read,tcheck) scf=(maxcycle=1)\\title\\0,1\Si,0,-1.091426,1.227502,0.21
 3124\Si,0,1.073976,1.087705,-0.698512\C,0,2.039257,-0.289315,0.281379\
 H,0,1.805134,2.359843,-0.497774\H,0,0.971299,0.803964,-2.15208\O,0,2.3
 62549,-0.0185,1.419565\C,0,-1.88017,-0.537394,-0.041681\H,0,-1.079633,
 1.520059,1.668247\H,0,-1.947415,2.250631,-0.442583\O,0,-1.159393,-1.43
 4871,-0.436939\C,0,2.32585,-1.631584,-0.349987\H,0,2.910703,-1.498925,

 Normal termination of Gaussian 16 at Wed Apr  9 00:11:33 2025.
