 Gaussian 16, Revision C.01,

 ----------------------------------------------------------------------
 #t hf aug-cc-pvdz symm=none int=(grid=ultrafine) guess=(read,tcheck) s
 table=opt
 ----------------------------------------------------------------------
 -----
 title
 -----
 Symbolic Z-matrix:
 Charge =  0 Multiplicity = 2

 SCF Done:  E(UHF) =  -511.975601195     A.U. after   19 cycles
 Normal termination of Gaussian 16 at Tue Apr  8 22:44:27 2025.
 Gaussian 16:  ES64L-G16RevC.01  3-Jul-2019

 ----------------------------------------------------------------------
 #t hf aug-cc-pvdz iop(5/13=1,5/36=2,99/5=2) pseudo=read geom=check gue
 ss=(read,tcheck) scf=(maxcycle=1)
 ----------------------------------------------------------------------
 -----
 title
 -----
 Structure from the checkpoint file:  "BDE49_expt_1495_mol2.chk"
 Charge =  0 Multiplicity = 2

                         Standard orientation:
 ---------------------------------------------------------------------
 Center     Atomic      Atomic             Coordinates (Angstroms)
 Number     Number       Type             X           Y           Z
 ---------------------------------------------------------------------
      1          6           0        1.407755    0.301949   -0.000000
      2         16           0       -0.227443   -0.503392   -0.000009
      3          1           0        1.505162    0.919839    0.893923
      4          1           0        1.505154    0.919876   -0.893899
      5          1           0        2.165055   -0.485584   -0.000019
      6          8           0       -1.247852    0.611055    0.000018
 ---------------------------------------------------------------------

 SCF Done:  E(UHF) =  -512.690355475     A.U. after    2 cycles

 The electronic state is 2-A.
 Alpha  occ. eigenvalues --  -75.75973 -21.10170 -13.27856 -13.13254 -13.08483
 Alpha  occ. eigenvalues --  -11.40658  -8.10383  -1.74893  -1.15441  -0.92188
 Alpha  occ. eigenvalues --   -0.61497  -0.61095  -0.52207  -0.50962  -0.43181
 Alpha  occ. eigenvalues --   -0.33355  -0.22917
 Alpha virt. eigenvalues --    0.02702   0.05329   0.05845   0.07135   0.10562
 Alpha virt. eigenvalues --    0.11946   0.13846   0.14833   0.15954   0.16480
 Alpha virt. eigenvalues --    0.20580   0.22502   0.24543   0.25517   0.26067

  Beta  occ. eigenvalues --  -75.75544 -21.07269 -13.27877 -13.13030 -13.05701
  Beta  occ. eigenvalues --  -11.40768  -8.09901  -1.67934  -1.13089  -0.88370
  Beta  occ. eigenvalues --   -0.61002  -0.60444  -0.51393  -0.40833  -0.36212
  Beta  occ. eigenvalues --   -0.31311
  Beta virt. eigenvalues --    0.02756   0.05345   0.05863   0.07256   0.09296
  Beta virt. eigenvalues --    0.10707   0.12102   0.14879   0.15191   0.16566
  Beta virt. eigenvalues --    0.18358   0.20594   0.22957   0.24815   0.26335

 Mulliken charges and spin densities:
               1          2
     1  C   -4.615688  -0.076708
     2  S    2.444782   0.462100
     3  H    1.344945   0.004680
     4  H    1.344945   0.004680
     5  H    1.336684  -0.004902
     6  O   -1.855668   0.610151
 Sum of Mulliken charges =  -0.00000   1.00000

 Dipole moment (field-independent basis, Debye):
    X=              1.2155    Y=             -1.1710    Z=             -0.0000  Tot=              1.6878
                          Isotropic Fermi Contact Couplings
        Atom                 a.u.       MegaHertz       Gauss      10(-4) cm-1
     1  C(13)             -0.01364     -15.33061      -5.47034      -5.11374
     2  S(33)              0.17769      61.03113      21.77742      20.35779
     3  H(1)               0.00568      25.39181       9.06043       8.46980
     4  H(1)               0.00568      25.39182       9.06043       8.46980
     5  H(1)              -0.00036      -1.62639      -0.58034      -0.54250
     6  O(17)              0.14545     -88.17148     -31.46178     -29.41084
 --------------------------------------------------------
       Center         ----  Spin Dipole Couplings  ----

 Normal termination of Gaussian 16 at Tue Apr  8 22:44:29 2025.
