 Gaussian 16, Revision C.01,

 ----------------------------------------------------------------------
 #t hf aug-cc-pvdz symm=none int=(grid=ultrafine) guess=(read,tcheck) s
 table=(opt,rrhf)
 ----------------------------------------------------------------------
 -----
 title
 -----
 Symbolic Z-matrix:
 Charge =  0 Multiplicity = 1

 SCF Done:  E(RHF) =  -422.835381106     A.U. after   12 cycles
 Normal termination of Gaussian 16 at Wed Apr  9 00:43:51 2025.
 Gaussian 16:  ES64L-G16RevC.01  3-Jul-2019

 ----------------------------------------------------------------------
 #t hf aug-cc-pvdz iop(5/13=1,5/36=2,99/5=2) pseudo=read geom=check gue
 ss=(read,tcheck) scf=(maxcycle=1)
 ----------------------------------------------------------------------
 -----
 title
 -----
 Structure from the checkpoint file:  "BDE49_nonexpt_732_mol1.chk"
 Charge =  0 Multiplicity = 1

                         Standard orientation:
 ---------------------------------------------------------------------
 Center     Atomic      Atomic             Coordinates (Angstroms)
 Number     Number       Type             X           Y           Z
 ---------------------------------------------------------------------
      1         15           0        1.183400   -0.078917   -0.117331
      2          5           0       -0.628616    0.584725    0.019193
      3          7           0       -1.742655   -0.247605    0.010342
      4          1           0       -1.694297   -1.255121    0.028446
      5          1           0       -2.685802    0.109698   -0.010819
      6          1           0       -0.798270    1.765648    0.004649
      7          1           0        1.044996   -1.290848    0.608959
      8          1           0        1.724041    0.663989    0.960372
 ---------------------------------------------------------------------

 SCF Done:  E(RHF) =  -423.418266359     A.U. after    2 cycles

 The electronic state is 1-A.
 Alpha  occ. eigenvalues -- -105.15405 -15.73695  -7.61090  -2.72657  -1.47381
 Alpha  occ. eigenvalues --   -1.42256  -1.40320  -1.30814  -0.81235  -0.70581
 Alpha  occ. eigenvalues --   -0.65014  -0.51247  -0.42674  -0.24918  -0.15619
 Alpha  occ. eigenvalues --   -0.02157
 Alpha virt. eigenvalues --    0.03451   0.03942   0.05001   0.06281   0.08400
 Alpha virt. eigenvalues --    0.08947   0.10373   0.11145   0.11486   0.12079
 Alpha virt. eigenvalues --    0.13038   0.15478   0.17612   0.18746   0.19824

 Mulliken charges:
               1
     1  P    1.224818
     2  B    3.431818
     3  N   -2.447508
     4  H    0.908894
     5  H    0.876004
     6  H   -2.525235
     7  H   -0.739680
     8  H   -0.729110
 Sum of Mulliken charges =   0.00000

 Dipole moment (field-independent basis, Debye):
    X=              0.8993    Y=             -1.5359    Z=             -3.3707  Tot=              3.8117

 Test job not archived.
 1\1\GINC-SE128\SP\RHF\Aug-CC-pVDZ\B1H5N1P1\OHZDE\09-Apr-2025\0\\#t hf
 aug-cc-pvdz iop(5/13=1,5/36=2,99/5=2) pseudo=read geom=check guess=(re
 ad,tcheck) scf=(maxcycle=1)\\title\\0,1\P,0,1.1834,-0.078917,-0.117331
 \B,0,-0.628616,0.584725,0.019193\N,0,-1.742655,-0.247605,0.010342\H,0,
 -1.694297,-1.255121,0.028446\H,0,-2.685802,0.109698,-0.010819\H,0,-0.7
 9827,1.765648,0.004649\H,0,1.044996,-1.290848,0.608959\H,0,1.724041,0.
 663989,0.960372\\Version=ES64L-G16RevC.01\State=1-A\HF=-423.4182664\RM
 SD=2.737e-01\Dipole=0.3537942,-0.6042778,-1.3261378\Quadrupole=2.74530

 Normal termination of Gaussian 16 at Wed Apr  9 00:43:53 2025.
