 Gaussian 16, Revision C.01,

 ----------------------------------------------------------------------
 #t hf aug-cc-pvdz symm=none int=(grid=ultrafine) guess=(read,tcheck) s
 table=opt
 ----------------------------------------------------------------------
 -----
 title
 -----
 Symbolic Z-matrix:
 Charge =  0 Multiplicity = 2

 SCF Done:  E(UHF) =  -268.247261201     A.U. after   29 cycles
 Normal termination of Gaussian 16 at Tue Apr  8 22:58:15 2025.
 Gaussian 16:  ES64L-G16RevC.01  3-Jul-2019

 ----------------------------------------------------------------------
 #t hf aug-cc-pvdz iop(5/13=1,5/36=2,99/5=2) pseudo=read geom=check gue
 ss=(read,tcheck) scf=(maxcycle=1)
 ----------------------------------------------------------------------
 -----
 title
 -----
 Structure from the checkpoint file:  "BDE49_expt_1864_mol2.chk"
 Charge =  0 Multiplicity = 2

                         Standard orientation:
 ---------------------------------------------------------------------
 Center     Atomic      Atomic             Coordinates (Angstroms)
 Number     Number       Type             X           Y           Z
 ---------------------------------------------------------------------
      1          8           0        2.083150   -0.014990   -0.281990
      2          6           0        0.858575    0.003191    0.310943
      3          6           0       -0.013808    1.223834    0.067872
      4          6           0       -1.284968    0.881722   -0.117282
      5          6           0       -1.509893   -0.611902   -0.019661
      6          6           0       -0.079782   -1.200618   -0.014979
      7          1           0       -2.120608   -0.994259   -0.843399
      8          1           0       -2.048763   -0.856006    0.904062
      9          1           0        0.047492   -2.029200    0.682243
     10          1           0        0.193160   -1.557780   -1.010316
     11          1           0        1.141942   -0.023482    1.391994
     12          1           0        0.397407    2.225481    0.067502
     13          1           0       -2.096577    1.577816   -0.297523
 ---------------------------------------------------------------------

 SCF Done:  E(UHF) =  -269.460117029     A.U. after    2 cycles

 The electronic state is 2-A.
 Alpha  occ. eigenvalues --  -21.10877 -11.46694 -11.44950 -11.41033 -11.38646
 Alpha  occ. eigenvalues --  -11.35698  -1.72590  -1.30172  -1.04482  -0.99786
 Alpha  occ. eigenvalues --   -0.82686  -0.76929  -0.70300  -0.64399  -0.58599
 Alpha  occ. eigenvalues --   -0.52502  -0.50871  -0.49752  -0.47561  -0.46441
 Alpha  occ. eigenvalues --   -0.39045  -0.34463  -0.31779
 Alpha virt. eigenvalues --    0.03741   0.05316   0.05445   0.05908   0.06280
 Alpha virt. eigenvalues --    0.06371   0.06956   0.10380   0.11894   0.12554
 Alpha virt. eigenvalues --    0.13857   0.14151   0.14774   0.15054   0.15380

  Beta  occ. eigenvalues --  -21.07143 -11.46865 -11.44962 -11.41084 -11.38574
  Beta  occ. eigenvalues --  -11.35689  -1.61379  -1.29176  -1.04246  -0.98712
  Beta  occ. eigenvalues --   -0.81964  -0.76212  -0.69140  -0.63763  -0.55723
  Beta  occ. eigenvalues --   -0.51776  -0.50444  -0.49113  -0.46489  -0.45229
  Beta  occ. eigenvalues --   -0.34078  -0.29194
  Beta virt. eigenvalues --    0.03615   0.05284   0.05433   0.05906   0.06143
  Beta virt. eigenvalues --    0.06378   0.06854   0.10000   0.11692   0.12020
  Beta virt. eigenvalues --    0.13019   0.13985   0.14679   0.14851   0.15135

 Mulliken charges and spin densities:
               1          2
     1  O   -2.456616   1.162204
     2  C    0.621343  -0.380439
     3  C   -0.831330   0.230896
     4  C    0.160568  -0.199765
     5  C   -3.718169   0.024686
     6  C   -3.092055   0.046188
     7  H    1.214338  -0.002570
     8  H    1.299670  -0.002267
     9  H    1.257229   0.001796
    10  H    1.349939   0.007939
    11  H    1.490036   0.108647
    12  H    1.327466   0.004071
    13  H    1.377581  -0.001384
 Sum of Mulliken charges =  -0.00000   1.00000

 Dipole moment (field-independent basis, Debye):
    X=             -1.1396    Y=             -0.1042    Z=              0.4818  Tot=              1.2417
                          Isotropic Fermi Contact Couplings
        Atom                 a.u.       MegaHertz       Gauss      10(-4) cm-1
     1  O(17)              0.19630    -118.99399     -42.46002     -39.69212
     2  C(13)             -0.03586     -40.30796     -14.38288     -13.44529
     3  C(13)              0.02353      26.44810       9.43734       8.82214
     4  C(13)             -0.01345     -15.11628      -5.39387      -5.04225
     5  C(13)              0.00406       4.56798       1.62997       1.52372
     6  C(13)              0.01111      12.48897       4.45638       4.16587
     7  H(1)              -0.00099      -4.40322      -1.57118      -1.46876
     8  H(1)              -0.00153      -6.85801      -2.44711      -2.28758

 Normal termination of Gaussian 16 at Tue Apr  8 22:58:18 2025.
