 Gaussian 16, Revision C.01,

 ----------------------------------------------------------------------
 #t hf aug-cc-pvdz symm=none int=(grid=ultrafine) guess=(read,tcheck) s
 table=opt
 ----------------------------------------------------------------------
 -----
 title
 -----
 Symbolic Z-matrix:
 Charge =  0 Multiplicity = 2

 SCF Done:  E(UHF) =  -404.564663918     A.U. after   15 cycles
 Normal termination of Gaussian 16 at Tue Apr  8 23:51:18 2025.
 Gaussian 16:  ES64L-G16RevC.01  3-Jul-2019

 ----------------------------------------------------------------------
 #t hf aug-cc-pvdz iop(5/13=1,5/36=2,99/5=2) pseudo=read geom=check gue
 ss=(read,tcheck) scf=(maxcycle=1)
 ----------------------------------------------------------------------
 -----
 title
 -----
 Structure from the checkpoint file:  "BDE49_nonexpt_1884_mol2.chk"
 Charge =  0 Multiplicity = 2

                         Standard orientation:
 ---------------------------------------------------------------------
 Center     Atomic      Atomic             Coordinates (Angstroms)
 Number     Number       Type             X           Y           Z
 ---------------------------------------------------------------------
      1         14           0       -1.113731    0.110732    0.110225
      2          8           0        0.400043   -0.523867   -0.082051
      3          1           0       -1.232337    1.387774   -0.660551
      4          1           0       -2.042695   -0.915176   -0.428693
      5          6           0        1.629851    0.182514    0.015375
      6          1           0        2.408469   -0.439168   -0.429467
      7          1           0        1.889049    0.374838    1.061855
      8          1           0        1.590307    1.137333   -0.522141
 ---------------------------------------------------------------------

 SCF Done:  E(UHF) =  -405.218069688     A.U. after    2 cycles

 The electronic state is 2-A.
 Alpha  occ. eigenvalues --  -76.24529 -21.05109 -11.41099  -5.58003  -2.24025
 Alpha  occ. eigenvalues --   -2.19449  -2.18358  -1.70012  -0.98763  -0.73716
 Alpha  occ. eigenvalues --   -0.61250  -0.60990  -0.52833  -0.47992  -0.40585
 Alpha  occ. eigenvalues --   -0.36305  -0.25615
 Alpha virt. eigenvalues --    0.03438   0.05308   0.06168   0.06505   0.06796
 Alpha virt. eigenvalues --    0.07853   0.08207   0.09535   0.12747   0.14114
 Alpha virt. eigenvalues --    0.14570   0.16639   0.17125   0.17761   0.19437

  Beta  occ. eigenvalues --  -76.24020 -21.04686 -11.41122  -5.57182  -2.23427
  Beta  occ. eigenvalues --   -2.18909  -2.15171  -1.69117  -0.98576  -0.69915
  Beta  occ. eigenvalues --   -0.60827  -0.60640  -0.52118  -0.46686  -0.37085
  Beta  occ. eigenvalues --   -0.35694
  Beta virt. eigenvalues --    0.03289   0.04651   0.05643   0.06278   0.06741
  Beta virt. eigenvalues --    0.06992   0.08340   0.09716   0.10555   0.13452
  Beta virt. eigenvalues --    0.14751   0.15135   0.16962   0.17794   0.19348

 Mulliken charges and spin densities:
               1          2
     1  Si   4.338470   0.922862
     2  O   -2.848439   0.002626
     3  H   -1.409421   0.033287
     4  H   -1.478436   0.017993
     5  C   -2.448544   0.003507
     6  H    1.288917  -0.003035
     7  H    1.230260   0.009828
     8  H    1.327194   0.012932
 Sum of Mulliken charges =   0.00000   1.00000

 Dipole moment (field-independent basis, Debye):
    X=              1.1277    Y=              0.0435    Z=              0.2967  Tot=              1.1669
                          Isotropic Fermi Contact Couplings
        Atom                 a.u.       MegaHertz       Gauss      10(-4) cm-1
     1  Si(29)             0.50713    -450.69633    -160.81966    -150.33611
     2  O(17)              0.04055     -24.57965      -8.77063      -8.19889
     3  H(1)               0.01472      65.78058      23.47215      21.94204
     4  H(1)               0.01332      59.54047      21.24552      19.86056
     5  C(13)             -0.00236      -2.65745      -0.94824      -0.88643
     6  H(1)               0.00045       1.99148       0.71061       0.66429
     7  H(1)               0.00042       1.88252       0.67173       0.62794
     8  H(1)               0.00016       0.70017       0.24984       0.23355

 Normal termination of Gaussian 16 at Tue Apr  8 23:51:20 2025.
