 Gaussian 16, Revision C.01,

 ----------------------------------------------------------------------
 #t hf aug-cc-pvdz symm=none int=(grid=ultrafine) guess=(read,tcheck) s
 table=(opt,rrhf)
 ----------------------------------------------------------------------
 -----
 title
 -----
 Symbolic Z-matrix:
 Charge =  0 Multiplicity = 1

 SCF Done:  E(RHF) =  -743.826307433     A.U. after   14 cycles
 Normal termination of Gaussian 16 at Tue Apr  8 23:55:32 2025.
 Gaussian 16:  ES64L-G16RevC.01  3-Jul-2019

 ----------------------------------------------------------------------
 #t hf aug-cc-pvdz iop(5/13=1,5/36=2,99/5=2) pseudo=read geom=check gue
 ss=(read,tcheck) scf=(maxcycle=1)
 ----------------------------------------------------------------------
 -----
 title
 -----
 Structure from the checkpoint file:  "BDE49_nonexpt_1926_mol1.chk"
 Charge =  0 Multiplicity = 1

                         Standard orientation:
 ---------------------------------------------------------------------
 Center     Atomic      Atomic             Coordinates (Angstroms)
 Number     Number       Type             X           Y           Z
 ---------------------------------------------------------------------
      1         14           0       -0.201137   -1.195606   -1.118888
      2          6           0        1.435773   -0.214547   -1.243658
      3          6           0        1.704487    0.726848   -0.104887
      4          7           0        2.029945    0.360075    1.076137
      5          8           0        2.082204   -1.056392    1.171659
      6          1           0        2.351213   -1.187480    2.086067
      7          6           0       -1.426856   -0.380919    0.063906
      8          1           0        0.071321   -2.569424   -0.641433
      9          1           0       -0.803667   -1.259055   -2.468263
     10          7           0       -2.263661    0.386529   -0.531741
     11          8           0       -3.165003    0.993185    0.367521
     12          1           0       -3.717528    1.517917   -0.220695
     13          6           0        1.572372    2.206759   -0.329276
     14          1           0        2.266493    2.541114   -1.107228
     15          1           0        1.778242    2.751124    0.591970
     16          1           0        0.559912    2.448560   -0.668990
     17          6           0       -1.414555   -0.608663    1.555122
     18          1           0       -2.321390   -1.141627    1.858752
     19          1           0       -1.413833    0.347412    2.084278
     20          1           0       -0.541903   -1.186114    1.857383
     21          1           0        1.425114    0.341226   -2.183760
     22          1           0        2.233019   -0.962616   -1.295113
 ---------------------------------------------------------------------

 SCF Done:  E(RHF) =  -746.054300485     A.U. after    2 cycles

 The electronic state is 1-A.
 Alpha  occ. eigenvalues --  -76.21741 -21.09252 -21.09148 -15.78110 -15.76529
 Alpha  occ. eigenvalues --  -11.45854 -11.42510 -11.39221 -11.36834 -11.36786
 Alpha  occ. eigenvalues --   -5.55397  -2.20019  -2.18672  -2.18087  -1.77942
 Alpha  occ. eigenvalues --   -1.77533  -1.30583  -1.26850  -1.07564  -1.05527
 Alpha  occ. eigenvalues --   -1.03173  -0.80997  -0.74231  -0.69360  -0.66112
 Alpha  occ. eigenvalues --   -0.63904  -0.62357  -0.59876  -0.58649  -0.58584
 Alpha  occ. eigenvalues --   -0.54566  -0.52371  -0.52261  -0.50707  -0.49608
 Alpha  occ. eigenvalues --   -0.48861  -0.46062  -0.44048  -0.42322  -0.34829
 Alpha  occ. eigenvalues --   -0.33121  -0.30414  -0.29096
 Alpha virt. eigenvalues --    0.03754   0.05140   0.05165   0.05357   0.05949
 Alpha virt. eigenvalues --    0.06093   0.06378   0.06626   0.07192   0.07846
 Alpha virt. eigenvalues --    0.08554   0.08606   0.08852   0.09777   0.11444

 Mulliken charges:
               1
     1  Si   6.377115
     2  C   -4.589311
     3  C    3.509592
     4  N   -1.425262
     5  O   -2.345079
     6  H    0.918092
     7  C    0.910173
     8  H   -2.031155
     9  H   -2.185080
    10  N   -0.762997
    11  O   -2.264419
    12  H    0.931336
    13  C   -3.868947
    14  H    1.179441
    15  H    1.385437
    16  H    1.372435
    17  C   -4.375631
    18  H    1.192056
    19  H    1.421407
    20  H    1.594538
    21  H    1.647738
    22  H    1.408519
 Sum of Mulliken charges =  -0.00000

 Dipole moment (field-independent basis, Debye):
    X=             -0.0361    Y=              0.3636    Z=              0.2181  Tot=              0.4255

 Test job not archived.
 1\1\GINC-SE424\SP\RHF\Aug-CC-pVDZ\C5H12N2O2Si1\OHZDE\08-Apr-2025\0\\#t
  hf aug-cc-pvdz iop(5/13=1,5/36=2,99/5=2) pseudo=read geom=check guess
 =(read,tcheck) scf=(maxcycle=1)\\title\\0,1\Si,0,-0.201137,-1.195606,-
 1.118888\C,0,1.435773,-0.214547,-1.243658\C,0,1.704487,0.726848,-0.104
 887\N,0,2.029945,0.360075,1.076137\O,0,2.082204,-1.056392,1.171659\H,0
 ,2.351213,-1.18748,2.086067\C,0,-1.426856,-0.380919,0.063906\H,0,0.071
 321,-2.569424,-0.641433\H,0,-0.803667,-1.259055,-2.468263\N,0,-2.26366
 1,0.386529,-0.531741\O,0,-3.165003,0.993185,0.367521\H,0,-3.717528,1.5

 Normal termination of Gaussian 16 at Tue Apr  8 23:55:45 2025.
