 Gaussian 16, Revision C.01,

 ----------------------------------------------------------------------
 #t hf aug-cc-pvdz symm=none int=(grid=ultrafine) guess=(read,tcheck) s
 table=(opt,rrhf)
 ----------------------------------------------------------------------
 -----
 title
 -----
 Symbolic Z-matrix:
 Charge =  0 Multiplicity = 1

 SCF Done:  E(RHF) =  -799.220700670     A.U. after   16 cycles
 Normal termination of Gaussian 16 at Wed Apr  9 00:07:21 2025.
 Gaussian 16:  ES64L-G16RevC.01  3-Jul-2019

 ----------------------------------------------------------------------
 #t hf aug-cc-pvdz iop(5/13=1,5/36=2,99/5=2) pseudo=read geom=check gue
 ss=(read,tcheck) scf=(maxcycle=1)
 ----------------------------------------------------------------------
 -----
 title
 -----
 Structure from the checkpoint file:  "BDE49_nonexpt_2207_mol1.chk"
 Charge =  0 Multiplicity = 1

                         Standard orientation:
 ---------------------------------------------------------------------
 Center     Atomic      Atomic             Coordinates (Angstroms)
 Number     Number       Type             X           Y           Z
 ---------------------------------------------------------------------
      1          6           0       -2.904764   -0.286834    0.234104
      2          6           0       -2.005815    0.762557    0.196877
      3          6           0       -0.644233    0.523840   -0.018309
      4          6           0       -2.439229   -1.590364    0.037434
      5          6           0       -1.093263   -1.831073   -0.181766
      6          6           0       -0.155073   -0.787347   -0.206971
      7          1           0       -3.132208   -2.423695    0.056257
      8          1           0       -0.718623   -2.833819   -0.344292
      9          8           0        1.116449   -1.124833   -0.469357
     10         14           0        2.615254   -0.860467    0.244989
     11          1           0       -3.955811   -0.095258    0.408796
     12          7           0        0.230322    1.698286   -0.066263
     13          8           0        1.448268    1.523113   -0.006115
     14          8           0       -0.287720    2.799802   -0.161887
     15          1           0       -2.324603    1.787312    0.325472
     16          1           0        3.470975    0.003093   -0.580701
     17          1           0        3.201007   -2.219909    0.264489
     18          1           0        2.471745   -0.388510    1.634632
 ---------------------------------------------------------------------

 SCF Done:  E(RHF) =  -801.618221875     A.U. after    2 cycles

 The electronic state is 1-A.
 Alpha  occ. eigenvalues --  -76.24905 -21.10210 -21.09662 -21.08253 -16.00916
 Alpha  occ. eigenvalues --  -11.57306 -11.50336 -11.47733 -11.45692 -11.43370
 Alpha  occ. eigenvalues --  -11.40126  -5.58193  -2.24556  -2.20016  -2.19938
 Alpha  occ. eigenvalues --   -2.00728  -1.76442  -1.69759  -1.36002  -1.19169
 Alpha  occ. eigenvalues --   -1.11163  -1.00337  -0.90095  -0.85545  -0.76973
 Alpha  occ. eigenvalues --   -0.74277  -0.68890  -0.68139  -0.65984  -0.64140
 Alpha  occ. eigenvalues --   -0.59802  -0.59490  -0.56851  -0.51619  -0.50435
 Alpha  occ. eigenvalues --   -0.49134  -0.48227  -0.44890  -0.40538  -0.36999
 Alpha  occ. eigenvalues --   -0.34787  -0.32348  -0.31754  -0.30844
 Alpha virt. eigenvalues --    0.02913   0.04545   0.04917   0.05349   0.06369
 Alpha virt. eigenvalues --    0.06738   0.07185   0.07259   0.07902   0.09472
 Alpha virt. eigenvalues --    0.10417   0.10873   0.11431   0.12351   0.12572

 Mulliken charges:
               1
     1  C   -0.340867
     2  C   -1.888496
     3  C    1.190551
     4  C   -0.969933
     5  C   -2.431502
     6  C    4.302033
     7  H    1.542897
     8  H    1.839585
     9  O   -4.979171
    10  Si   6.519943
    11  H    1.550286
    12  N    3.002230
    13  O   -2.957348
    14  O   -2.835630
    15  H    1.864013
    16  H   -1.713994
    17  H   -1.827976
    18  H   -1.866619
 Sum of Mulliken charges =  -0.00000

 Dipole moment (field-independent basis, Debye):
    X=             -1.9998    Y=             -1.6283    Z=             -0.0743  Tot=              2.5800

 Test job not archived.
 1\1\GINC-SE454\SP\RHF\Aug-CC-pVDZ\C6H7N1O3Si1\OHZDE\09-Apr-2025\0\\#t
 hf aug-cc-pvdz iop(5/13=1,5/36=2,99/5=2) pseudo=read geom=check guess=
 (read,tcheck) scf=(maxcycle=1)\\title\\0,1\C,0,-2.904764,-0.286835,0.2
 34104\C,0,-2.005815,0.762557,0.196877\C,0,-0.644233,0.52384,-0.018309\
 C,0,-2.439229,-1.590365,0.037434\C,0,-1.093263,-1.831073,-0.181766\C,0
 ,-0.155073,-0.787347,-0.206971\H,0,-3.132207,-2.423696,0.056257\H,0,-0
 .718622,-2.833819,-0.344292\O,0,1.116449,-1.124833,-0.469357\Si,0,2.61
 5254,-0.860466,0.244989\H,0,-3.955811,-0.095259,0.408796\N,0,0.230322,

 Normal termination of Gaussian 16 at Wed Apr  9 00:07:32 2025.
