 Gaussian 16, Revision C.01,

 ----------------------------------------------------------------------
 #t hf aug-cc-pvdz symm=none int=(grid=ultrafine) guess=(read,tcheck) s
 table=(opt,rrhf)
 ----------------------------------------------------------------------
 -----
 title
 -----
 Symbolic Z-matrix:
 Charge =  0 Multiplicity = 1

 SCF Done:  E(RHF) =  -499.122197356     A.U. after   11 cycles

 1\1\GINC-SE250\Stability\RHF\Aug-CC-pVDZ\C1H3Cl1\OHZDE\08-Apr-2025\0\\
 #t hf aug-cc-pvdz symm=none int=(grid=ultrafine) guess=(read,tcheck) s
 table=(opt,rrhf)\\title\\0,1\C,0,-1.140421,0.000006,0.\Cl,0,0.663591,-
 0.000001,0.\H,0,-1.479528,-0.495631,0.906136\H,0,-1.479513,-0.536955,-
 0.882282\H,0,-1.479485,1.03257,-0.023859\\Version=ES64L-G16RevC.01\HF=
 -499.1221974\RMSD=1.746e-09\Dipole=-0.8834751,-0.000002,-0.0000006\Qua
 drupole=0.9756609,-0.4877612,-0.4878997,0.0000443,-0.0000133,0.0000004
 \PG=Unknown\\@

 Normal termination of Gaussian 16 at Tue Apr  8 22:38:21 2025.
 Gaussian 16:  ES64L-G16RevC.01  3-Jul-2019

 ----------------------------------------------------------------------
 #t hf aug-cc-pvdz iop(5/13=1,5/36=2,99/5=2) pseudo=read geom=check gue
 ss=(read,tcheck) scf=(maxcycle=1)
 ----------------------------------------------------------------------
 -----
 title
 -----
 Structure from the checkpoint file:  "BDE49_expt_118_mol1.chk"
 Charge =  0 Multiplicity = 1

                         Standard orientation:
 ---------------------------------------------------------------------
 Center     Atomic      Atomic             Coordinates (Angstroms)
 Number     Number       Type             X           Y           Z
 ---------------------------------------------------------------------
      1          6           0       -1.140421    0.000006   -0.000000
      2         17           0        0.663591   -0.000001    0.000000
      3          1           0       -1.479528   -0.490538    0.908903
      4          1           0       -1.479513   -0.541897   -0.879255
      5          1           0       -1.479484    1.032420   -0.029654
 ---------------------------------------------------------------------

 SCF Done:  E(RHF) =  -499.577331498     A.U. after    2 cycles

 The electronic state is 1-A.
 Alpha  occ. eigenvalues --  -99.87893 -11.42993 -10.45126  -9.64879  -9.64227
 Alpha  occ. eigenvalues --   -9.64227  -1.31960  -1.01025  -0.63148  -0.63147
 Alpha  occ. eigenvalues --   -0.58544  -0.47601  -0.47600
 Alpha virt. eigenvalues --    0.02204   0.06252   0.06252   0.07135   0.11263
 Alpha virt. eigenvalues --    0.15095   0.15677   0.15677   0.16492   0.16492
 Alpha virt. eigenvalues --    0.20121   0.25905   0.25905   0.26981   0.30079

 Mulliken charges:
               1
     1  C   -4.153877
     2  Cl  -0.014250
     3  H    1.389370
     4  H    1.389372
     5  H    1.389385
 Sum of Mulliken charges =   0.00000

 Dipole moment (field-independent basis, Debye):
    X=             -2.2161    Y=              0.0000    Z=             -0.0000  Tot=              2.2161

 Test job not archived.
 1\1\GINC-SE250\SP\RHF\Aug-CC-pVDZ\C1H3Cl1\OHZDE\08-Apr-2025\0\\#t hf a
 ug-cc-pvdz iop(5/13=1,5/36=2,99/5=2) pseudo=read geom=check guess=(rea
 d,tcheck) scf=(maxcycle=1)\\title\\0,1\C,0,-1.140421,0.000006,0.\Cl,0,
 0.663591,-0.000001,0.\H,0,-1.479528,-0.495631,0.906136\H,0,-1.479513,-
 0.536955,-0.882282\H,0,-1.479485,1.03257,-0.023859\\Version=ES64L-G16R
 evC.01\State=1-A\HF=-499.5773315\RMSD=6.007e-02\Dipole=-0.8718967,0.00
 00014,-0.0000005\Quadrupole=1.4836657,-0.7417658,-0.7418999,0.0000314,
 -0.000013,0.0000006\PG=C01 [X(C1H3Cl1)]\\@

 Normal termination of Gaussian 16 at Tue Apr  8 22:38:23 2025.
