 Gaussian 16, Revision C.01,

 ----------------------------------------------------------------------
 #t hf aug-cc-pvdz symm=none int=(grid=ultrafine) guess=(read,tcheck) s
 table=opt
 ----------------------------------------------------------------------
 -----
 title
 -----
 Symbolic Z-matrix:
 Charge =  0 Multiplicity = 2

 SCF Done:  E(UHF) =  -233.604416509     A.U. after   16 cycles
 Normal termination of Gaussian 16 at Tue Apr  8 22:42:11 2025.
 Gaussian 16:  ES64L-G16RevC.01  3-Jul-2019

 ----------------------------------------------------------------------
 #t hf aug-cc-pvdz iop(5/13=1,5/36=2,99/5=2) pseudo=read geom=check gue
 ss=(read,tcheck) scf=(maxcycle=1)
 ----------------------------------------------------------------------
 -----
 title
 -----
 Structure from the checkpoint file:  "BDE49_expt_1345_mol2.chk"
 Charge =  0 Multiplicity = 2

                         Standard orientation:
 ---------------------------------------------------------------------
 Center     Atomic      Atomic             Coordinates (Angstroms)
 Number     Number       Type             X           Y           Z
 ---------------------------------------------------------------------
      1          6           0        0.049118    0.792543    1.288499
      2          6           0        0.049118   -0.750500    1.267973
      3          6           0        0.538141    1.371052    0.000000
      4          1           0        0.640173    1.164542    2.131215
      5          1           0       -0.987610    1.129872    1.478043
      6          6           0       -0.623499   -1.294495   -0.000000
      7          1           0       -0.451683   -1.135486    2.162131
      8          1           0        1.085158   -1.107758    1.305284
      9          6           0        0.049118    0.792543   -1.288499
     10          6           0        0.049118   -0.750500   -1.267973
     11          1           0       -1.684047   -1.008859   -0.000000
     12          1           0       -0.596479   -2.389065   -0.000000
     13          1           0        0.640173    1.164542   -2.131215
     14          1           0       -0.987610    1.129872   -1.478043
     15          1           0       -0.451683   -1.135486   -2.162131
     16          1           0        1.085158   -1.107758   -1.305284
     17          1           0        1.041763    2.331723    0.000000
 ---------------------------------------------------------------------

 SCF Done:  E(UHF) =  -234.788492872     A.U. after    2 cycles

 The electronic state is 2-A'.
 Alpha  occ. eigenvalues --  -11.42079 -11.41596 -11.41259 -11.36627 -11.36280
 Alpha  occ. eigenvalues --  -11.33341  -1.30826  -1.09728  -1.09214  -0.87947
 Alpha  occ. eigenvalues --   -0.86536  -0.75873  -0.66410  -0.61155  -0.60308
 Alpha  occ. eigenvalues --   -0.57810  -0.52638  -0.52195  -0.48419  -0.46437
 Alpha  occ. eigenvalues --   -0.44798  -0.39761  -0.39423  -0.28515
 Alpha virt. eigenvalues --    0.04205   0.05345   0.05504   0.05609   0.05760
 Alpha virt. eigenvalues --    0.06033   0.06153   0.06395   0.06987   0.08476
 Alpha virt. eigenvalues --    0.08985   0.13120   0.13325   0.14082   0.14583

  Beta  occ. eigenvalues --  -11.42197 -11.41405 -11.40701 -11.36718 -11.35443
  Beta  occ. eigenvalues --  -11.32873  -1.29443  -1.09580  -1.06456  -0.87773
  Beta  occ. eigenvalues --   -0.84123  -0.73384  -0.65934  -0.60645  -0.59690
  Beta  occ. eigenvalues --   -0.55494  -0.52150  -0.51220  -0.47638  -0.45762
  Beta  occ. eigenvalues --   -0.44358  -0.39149  -0.38989
  Beta virt. eigenvalues --    0.03914   0.05324   0.05507   0.05523   0.05772
  Beta virt. eigenvalues --    0.06051   0.06162   0.06311   0.06998   0.08477
  Beta virt. eigenvalues --    0.08995   0.10979   0.13311   0.13387   0.14164

 Mulliken charges and spin densities:
               1          2
     1  C   -3.058182  -0.414260
     2  C   -2.755523   0.032365
     3  C   -0.496536   1.787257
     4  H    1.359940  -0.005845
     5  H    1.294875   0.023226
     6  C   -2.685119  -0.067159
     7  H    1.297489   0.003109
     8  H    1.407284  -0.004956
     9  C   -3.058182  -0.414260
    10  C   -2.755523   0.032365
    11  H    1.431988  -0.002460
    12  H    1.272591   0.000290
    13  H    1.359940  -0.005845
    14  H    1.294875   0.023226
    15  H    1.297489   0.003109
    16  H    1.407284  -0.004956
    17  H    1.385311   0.014792
 Sum of Mulliken charges =  -0.00000   1.00000

 Dipole moment (field-independent basis, Debye):
    X=             -0.1437    Y=             -0.0218    Z=             -0.0000  Tot=              0.1453
                          Isotropic Fermi Contact Couplings
        Atom                 a.u.       MegaHertz       Gauss      10(-4) cm-1
     1  C(13)             -0.03522     -39.58910     -14.12638     -13.20550
     2  C(13)              0.01822      20.47780       7.30699       6.83066
     3  C(13)              0.14281     160.54229      57.28548      53.55114
     4  H(1)               0.00349      15.58302       5.56041       5.19794
     5  H(1)               0.01873      83.73228      29.87776      27.93008
     6  C(13)             -0.00268      -3.01190      -1.07472      -1.00466
     7  H(1)              -0.00031      -1.38419      -0.49391      -0.46172
     8  H(1)              -0.00073      -3.28461      -1.17203      -1.09563

 Normal termination of Gaussian 16 at Tue Apr  8 22:42:15 2025.
