 Gaussian 16, Revision C.01,

 ----------------------------------------------------------------------
 #t hf aug-cc-pvdz symm=none int=(grid=ultrafine) guess=(read,tcheck) s
 table=(opt,rrhf)
 ----------------------------------------------------------------------
 -----
 title
 -----
 Symbolic Z-matrix:
 Charge =  0 Multiplicity = 1

 SCF Done:  E(RHF) =  -1061.48729344     A.U. after   12 cycles
 Normal termination of Gaussian 16 at Tue Apr  8 23:48:34 2025.
 Gaussian 16:  ES64L-G16RevC.01  3-Jul-2019

 ----------------------------------------------------------------------
 #t hf aug-cc-pvdz iop(5/13=1,5/36=2,99/5=2) pseudo=read geom=check gue
 ss=(read,tcheck) scf=(maxcycle=1)
 ----------------------------------------------------------------------
 -----
 title
 -----
 Structure from the checkpoint file:  "BDE49_nonexpt_179_mol1.chk"
 Charge =  0 Multiplicity = 1

                         Standard orientation:
 ---------------------------------------------------------------------
 Center     Atomic      Atomic             Coordinates (Angstroms)
 Number     Number       Type             X           Y           Z
 ---------------------------------------------------------------------
      1         17           0        1.760952   -1.043173   -0.249911
      2         17           0        0.626713    1.694093    0.314490
      3          5           0        0.339602    0.002817   -0.112819
      4          6           0       -1.103470   -0.580704   -0.299376
      5          6           0       -1.587751   -1.124594    1.073190
      6          1           0       -0.904467   -1.872821    1.482237
      7          1           0       -2.569280   -1.593581    0.959133
      8          1           0       -1.687153   -0.317464    1.804656
      9          6           0       -2.128801    0.403682   -0.889026
     10          1           0       -1.018452   -1.442542   -0.972096
     11          1           0       -2.275546    1.266149   -0.234071
     12          1           0       -3.097293   -0.089235   -1.015587
     13          1           0       -1.815988    0.779474   -1.866757
 ---------------------------------------------------------------------

 SCF Done:  E(RHF) =  -1062.70531726     A.U. after    2 cycles

 The electronic state is 1-A.
 Alpha  occ. eigenvalues --  -99.89684 -99.89620 -11.40811 -11.39460 -11.35238
 Alpha  occ. eigenvalues --  -10.47087 -10.46819  -9.67052  -9.66862  -9.66667
 Alpha  occ. eigenvalues --   -9.66524  -9.66432  -9.66250  -7.70537  -1.40213
 Alpha  occ. eigenvalues --   -1.29349  -1.22122  -1.01067  -0.89610  -0.77016
 Alpha  occ. eigenvalues --   -0.66621  -0.63374  -0.60157  -0.57999  -0.56068
 Alpha  occ. eigenvalues --   -0.55160  -0.54200  -0.52017  -0.49682  -0.46817
 Alpha  occ. eigenvalues --   -0.45939  -0.41406
 Alpha virt. eigenvalues --    0.03152   0.04088   0.04342   0.04570   0.05913
 Alpha virt. eigenvalues --    0.06478   0.07388   0.07601   0.07790   0.08107
 Alpha virt. eigenvalues --    0.10061   0.10428   0.11685   0.13756   0.14053

 Mulliken charges:
               1
     1  Cl  -1.471472
     2  Cl  -1.464770
     3  B    3.535934
     4  C   -2.069465
     5  C   -3.808755
     6  H    1.194673
     7  H    1.271944
     8  H    1.231865
     9  C   -3.770403
    10  H    1.810226
    11  H    1.203248
    12  H    1.202311
    13  H    1.134664
 Sum of Mulliken charges =  -0.00000

 Dipole moment (field-independent basis, Debye):
    X=             -1.6583    Y=             -0.6288    Z=             -0.1370  Tot=              1.7788

 Test job not archived.
 1\1\GINC-SE454\SP\RHF\Aug-CC-pVDZ\C3H7B1Cl2\OHZDE\08-Apr-2025\0\\#t hf
  aug-cc-pvdz iop(5/13=1,5/36=2,99/5=2) pseudo=read geom=check guess=(r
 ead,tcheck) scf=(maxcycle=1)\\title\\0,1\Cl,0,1.760952,-1.043173,-0.24
 9911\Cl,0,0.626713,1.694093,0.31449\B,0,0.339602,0.002817,-0.112819\C,
 0,-1.10347,-0.580704,-0.299376\C,0,-1.587751,-1.124594,1.07319\H,0,-0.
 904466,-1.872821,1.482237\H,0,-2.56928,-1.593582,0.959133\H,0,-1.68715
 3,-0.317464,1.804656\C,0,-2.128801,0.403681,-0.889026\H,0,-1.018452,-1
 .442542,-0.972096\H,0,-2.275546,1.266148,-0.234071\H,0,-3.097293,-0.08

 Normal termination of Gaussian 16 at Tue Apr  8 23:48:38 2025.
