 Gaussian 16, Revision C.01,

 ----------------------------------------------------------------------
 #t hf aug-cc-pvdz symm=none int=(grid=ultrafine) guess=(read,tcheck) s
 table=(opt,rrhf)
 ----------------------------------------------------------------------
 -----
 title
 -----
 Symbolic Z-matrix:
 Charge =  0 Multiplicity = 1

 SCF Done:  E(RHF) =  -1189.94082594     A.U. after   15 cycles
 Normal termination of Gaussian 16 at Wed Apr  9 00:12:18 2025.
 Gaussian 16:  ES64L-G16RevC.01  3-Jul-2019

 ----------------------------------------------------------------------
 #t hf aug-cc-pvdz iop(5/13=1,5/36=2,99/5=2) pseudo=read geom=check gue
 ss=(read,tcheck) scf=(maxcycle=1)
 ----------------------------------------------------------------------
 -----
 title
 -----
 Structure from the checkpoint file:  "BDE49_nonexpt_236_mol1.chk"
 Charge =  0 Multiplicity = 1

                         Standard orientation:
 ---------------------------------------------------------------------
 Center     Atomic      Atomic             Coordinates (Angstroms)
 Number     Number       Type             X           Y           Z
 ---------------------------------------------------------------------
      1         17           0        2.076764    1.506411   -0.000280
      2          5           0        1.155519    0.000000    0.000620
      3         17           0        2.076764   -1.506411   -0.000286
      4          6           0       -0.396831    0.000000    0.000378
      5          6           0       -1.136202   -1.194186    0.000263
      6          6           0       -1.136202    1.194186    0.000268
      7          6           0       -2.526602    1.140894    0.000064
      8          6           0       -2.526602   -1.140894    0.000059
      9          7           0       -3.222793    0.000000   -0.000042
     10          1           0       -0.636208   -2.154768    0.000336
     11          1           0       -3.110486   -2.056815   -0.000029
     12          1           0       -0.636208    2.154768    0.000344
     13          1           0       -3.110486    2.056815   -0.000021
 ---------------------------------------------------------------------

 SCF Done:  E(RHF) =  -1191.67971526     A.U. after    2 cycles

 The electronic state is 1-A.
 Alpha  occ. eigenvalues --  -99.90740 -99.90725 -15.75907 -11.49519 -11.46559
 Alpha  occ. eigenvalues --  -11.44465 -11.43161 -11.38759 -10.48167 -10.47918
 Alpha  occ. eigenvalues --   -9.68149  -9.67877  -9.67588  -9.67575  -9.67380
 Alpha  occ. eigenvalues --   -9.67297  -7.74927  -1.46977  -1.40036  -1.30485
 Alpha  occ. eigenvalues --   -1.20799  -1.12663  -0.93458  -0.90594  -0.81113
 Alpha  occ. eigenvalues --   -0.72503  -0.66707  -0.65893  -0.60947  -0.60714
 Alpha  occ. eigenvalues --   -0.59014  -0.58885  -0.55018  -0.53236  -0.50884
 Alpha  occ. eigenvalues --   -0.47898  -0.47627  -0.39431  -0.37185  -0.35237
 Alpha virt. eigenvalues --    0.02368   0.02637   0.04172   0.04436   0.04663
 Alpha virt. eigenvalues --    0.05587   0.06912   0.07317   0.09347   0.10587
 Alpha virt. eigenvalues --    0.10903   0.11051   0.12700   0.12853   0.13548

 Mulliken charges:
               1
     1  Cl  -1.373503
     2  B    1.718477
     3  Cl  -1.373503
     4  C    0.107445
     5  C   -0.255040
     6  C   -0.255040
     7  C   -0.829198
     8  C   -0.829198
     9  N   -3.539744
    10  H    1.738275
    11  H    1.576377
    12  H    1.738275
    13  H    1.576377
 Sum of Mulliken charges =  -0.00000

 Dipole moment (field-independent basis, Debye):
    X=             -0.4376    Y=              0.0000    Z=              0.0010  Tot=              0.4376

 Test job not archived.
 1\1\GINC-SE109\SP\RHF\Aug-CC-pVDZ\C5H4B1Cl2N1\OHZDE\09-Apr-2025\0\\#t
 hf aug-cc-pvdz iop(5/13=1,5/36=2,99/5=2) pseudo=read geom=check guess=
 (read,tcheck) scf=(maxcycle=1)\\title\\0,1\Cl,0,-2.076764,1.506411,0.0
 0028\B,0,-1.155519,0.,-0.00062\Cl,0,-2.076764,-1.506411,0.000286\C,0,0
 .396831,0.,-0.000378\C,0,1.136202,-1.194186,-0.000263\C,0,1.136202,1.1
 94186,-0.000268\C,0,2.526602,1.140894,-0.000064\C,0,2.526602,-1.140894
 ,-0.000059\N,0,3.222793,0.,0.000042\H,0,0.636208,-2.154768,-0.000336\H
 ,0,3.110486,-2.056815,0.000029\H,0,0.636208,2.154768,-0.000344\H,0,3.1

 Normal termination of Gaussian 16 at Wed Apr  9 00:12:25 2025.
