 Gaussian 16, Revision C.01,

 ----------------------------------------------------------------------
 #t hf aug-cc-pvdz symm=none int=(grid=ultrafine) guess=(read,tcheck) s
 table=(opt,rrhf)
 ----------------------------------------------------------------------
 -----
 title
 -----
 Symbolic Z-matrix:
 Charge =  0 Multiplicity = 1

 SCF Done:  E(RHF) =  -757.204215856     A.U. after   18 cycles
 Normal termination of Gaussian 16 at Tue Apr  8 23:17:39 2025.
 Gaussian 16:  ES64L-G16RevC.01  3-Jul-2019

 ----------------------------------------------------------------------
 #t hf aug-cc-pvdz iop(5/13=1,5/36=2,99/5=2) pseudo=read geom=check gue
 ss=(read,tcheck) scf=(maxcycle=1)
 ----------------------------------------------------------------------
 -----
 title
 -----
 Structure from the checkpoint file:  "BDE49_nonexpt_1006_mol1.chk"
 Charge =  0 Multiplicity = 1

                         Standard orientation:
 ---------------------------------------------------------------------
 Center     Atomic      Atomic             Coordinates (Angstroms)
 Number     Number       Type             X           Y           Z
 ---------------------------------------------------------------------
      1          6           0        1.173570   -0.603727   -0.218310
      2          6           0        0.594090    0.779368    0.040343
      3         16           0       -1.229681    0.975437    0.148265
      4          8           0        1.237321    1.775535    0.213344
      5          7           0       -1.829573   -0.776522   -0.297967
      6          8           0       -2.992075   -0.898433   -0.302902
      7          6           0        1.276379   -1.361476    1.122227
      8          1           0        1.942346   -0.836876    1.812252
      9          1           0        1.682930   -2.360109    0.946739
     10          1           0        0.301923   -1.472795    1.601254
     11          6           0        2.535678   -0.481459   -0.912406
     12          1           0        0.478690   -1.149380   -0.860042
     13          1           0        3.238839    0.079865   -0.295127
     14          1           0        2.449068    0.032014   -1.872592
     15          1           0        2.947839   -1.477110   -1.093623
 ---------------------------------------------------------------------

 SCF Done:  E(RHF) =  -759.052714353     A.U. after    2 cycles

 The electronic state is 1-A.
 Alpha  occ. eigenvalues --  -75.73187 -21.18687 -21.08357 -15.93763 -13.16274
 Alpha  occ. eigenvalues --  -13.12416 -13.05394 -11.52795 -11.44206 -11.40581
 Alpha  occ. eigenvalues --  -11.38123  -8.07117  -1.92606  -1.74484  -1.26760
 Alpha  occ. eigenvalues --   -1.18328  -1.02203  -0.97167  -0.91425  -0.74451
 Alpha  occ. eigenvalues --   -0.69351  -0.63708  -0.61152  -0.59621  -0.58924
 Alpha  occ. eigenvalues --   -0.58057  -0.55596  -0.52328  -0.50834  -0.50416
 Alpha  occ. eigenvalues --   -0.46269  -0.44669  -0.28831  -0.27681  -0.25486
 Alpha virt. eigenvalues --    0.03471   0.05295   0.05598   0.06036   0.06505
 Alpha virt. eigenvalues --    0.06680   0.07128   0.07906   0.09397   0.10069
 Alpha virt. eigenvalues --    0.11068   0.12205   0.12612   0.13750   0.14204

 Mulliken charges:
               1
     1  C   -2.290487
     2  C    2.919643
     3  S    1.354616
     4  O   -3.240303
     5  N    1.252787
     6  O   -1.915257
     7  C   -3.960991
     8  H    1.294186
     9  H    1.290654
    10  H    1.365577
    11  C   -3.843664
    12  H    2.045682
    13  H    1.394954
    14  H    1.181570
    15  H    1.151034
 Sum of Mulliken charges =  -0.00000

 Dipole moment (field-independent basis, Debye):
    X=             -0.3457    Y=              0.2128    Z=              0.2355  Tot=              0.4694

 Test job not archived.
 1\1\GINC-SE099\SP\RHF\Aug-CC-pVDZ\C4H7N1O2S1\OHZDE\08-Apr-2025\0\\#t h
 f aug-cc-pvdz iop(5/13=1,5/36=2,99/5=2) pseudo=read geom=check guess=(
 read,tcheck) scf=(maxcycle=1)\\title\\0,1\C,0,1.17357,-0.603727,-0.218
 31\C,0,0.59409,0.779368,0.040343\S,0,-1.229681,0.975437,0.148265\O,0,1
 .237321,1.775535,0.213344\N,0,-1.829573,-0.776522,-0.297967\O,0,-2.992
 075,-0.898432,-0.302902\C,0,1.276379,-1.361476,1.122227\H,0,1.942346,-
 0.836876,1.812252\H,0,1.682929,-2.360109,0.946739\H,0,0.301923,-1.4727
 95,1.601254\C,0,2.535678,-0.481459,-0.912406\H,0,0.47869,-1.14938,-0.8

 Normal termination of Gaussian 16 at Tue Apr  8 23:17:45 2025.
