 Gaussian 16, Revision C.01,

 ----------------------------------------------------------------------
 #t hf aug-cc-pvdz symm=none int=(grid=ultrafine) guess=(read,tcheck) s
 table=opt
 ----------------------------------------------------------------------
 -----
 title
 -----
 Symbolic Z-matrix:
 Charge =  0 Multiplicity = 2

 SCF Done:  E(UHF) =  -214.719021386     A.U. after   14 cycles
 Normal termination of Gaussian 16 at Tue Apr  8 23:55:20 2025.
 Gaussian 16:  ES64L-G16RevC.01  3-Jul-2019

 ----------------------------------------------------------------------
 #t hf aug-cc-pvdz iop(5/13=1,5/36=2,99/5=2) pseudo=read geom=check gue
 ss=(read,tcheck) scf=(maxcycle=1)
 ----------------------------------------------------------------------
 -----
 title
 -----
 Structure from the checkpoint file:  "BDE49_nonexpt_1960_mol2.chk"
 Charge =  0 Multiplicity = 2

                         Standard orientation:
 ---------------------------------------------------------------------
 Center     Atomic      Atomic             Coordinates (Angstroms)
 Number     Number       Type             X           Y           Z
 ---------------------------------------------------------------------
      1          6           0       -1.542092   -0.000001    0.000002
      2          5           0       -0.005831    0.000000   -0.000000
      3          8           0        0.644350    1.213072    0.000050
      4          8           0        0.644351   -1.213071   -0.000051
      5          1           0        1.604088    1.164129    0.000054
      6          1           0        1.604089   -1.164128   -0.000058
      7          1           0       -2.118042   -0.919069   -0.000037
      8          1           0       -2.118041    0.919067    0.000043
 ---------------------------------------------------------------------

 SCF Done:  E(UHF) =  -215.606367331     A.U. after    2 cycles

 The electronic state is 2-A.
 Alpha  occ. eigenvalues --  -21.06105 -21.06076 -11.34978  -7.63150  -1.81122
 Alpha  occ. eigenvalues --   -1.65705  -1.04211  -0.74465  -0.67177  -0.55698
 Alpha  occ. eigenvalues --   -0.54253  -0.50112  -0.45320  -0.36864  -0.36631
 Alpha  occ. eigenvalues --   -0.34162
 Alpha virt. eigenvalues --    0.02977   0.04338   0.05099   0.05333   0.07672
 Alpha virt. eigenvalues --    0.08646   0.10000   0.10075   0.15772   0.15812
 Alpha virt. eigenvalues --    0.17391   0.18408   0.18775   0.22134   0.22237

  Beta  occ. eigenvalues --  -21.05991 -21.05962 -11.33100  -7.63265  -1.80791
  Beta  occ. eigenvalues --   -1.65451  -0.96231  -0.73333  -0.66996  -0.54477
  Beta  occ. eigenvalues --   -0.54048  -0.47505  -0.43787  -0.36823  -0.35764
  Beta virt. eigenvalues --    0.03048   0.04547   0.05011   0.05110   0.07679
  Beta virt. eigenvalues --    0.07787   0.08785   0.10018   0.10087   0.16237
  Beta virt. eigenvalues --    0.17505   0.18031   0.18772   0.18889   0.22246

 Mulliken charges and spin densities:
               1          2
     1  C   -5.005076   1.267720
     2  B    7.590203  -0.228562
     3  O   -3.469108   0.039673
     4  O   -3.469107   0.039673
     5  H    0.884242   0.005322
     6  H    0.884241   0.005322
     7  H    1.292302  -0.064573
     8  H    1.292302  -0.064573
 Sum of Mulliken charges =  -0.00000   1.00000

 Dipole moment (field-independent basis, Debye):
    X=              1.1478    Y=              0.0000    Z=             -0.0000  Tot=              1.1478
                          Isotropic Fermi Contact Couplings
        Atom                 a.u.       MegaHertz       Gauss      10(-4) cm-1
     1  C(13)              0.09051     101.74799      36.30621      33.93948
     2  B(11)             -0.02547     -36.53236     -13.03566     -12.18588
     3  O(17)              0.00123      -0.74660      -0.26641      -0.24904
     4  O(17)              0.00123      -0.74660      -0.26640      -0.24904
     5  H(1)              -0.00103      -4.59457      -1.63946      -1.53258
     6  H(1)              -0.00103      -4.59457      -1.63946      -1.53258
     7  H(1)              -0.01584     -70.81139     -25.26726     -23.62014
     8  H(1)              -0.01584     -70.81137     -25.26726     -23.62013

 Normal termination of Gaussian 16 at Tue Apr  8 23:55:22 2025.
