 Gaussian 16, Revision C.01,

 ----------------------------------------------------------------------
 #t hf aug-cc-pvdz symm=none int=(grid=ultrafine) guess=(read,tcheck) s
 table=(opt,rrhf)
 ----------------------------------------------------------------------
 -----
 title
 -----
 Symbolic Z-matrix:
 Charge =  0 Multiplicity = 1

 SCF Done:  E(RHF) =  -635.424045941     A.U. after   14 cycles
 Normal termination of Gaussian 16 at Wed Apr  9 00:21:07 2025.
 Gaussian 16:  ES64L-G16RevC.01  3-Jul-2019

 ----------------------------------------------------------------------
 #t hf aug-cc-pvdz iop(5/13=1,5/36=2,99/5=2) pseudo=read geom=check gue
 ss=(read,tcheck) scf=(maxcycle=1)
 ----------------------------------------------------------------------
 -----
 title
 -----
 Structure from the checkpoint file:  "BDE49_nonexpt_2622_mol1.chk"
 Charge =  0 Multiplicity = 1

                         Standard orientation:
 ---------------------------------------------------------------------
 Center     Atomic      Atomic             Coordinates (Angstroms)
 Number     Number       Type             X           Y           Z
 ---------------------------------------------------------------------
      1          9           0       -1.429092    0.860484    0.100772
      2         16           0       -0.672880   -0.600039   -0.182318
      3          6           0        0.925572   -0.233029    0.503168
      4          9           0        1.768531    0.457372   -0.350278
      5          1           0        1.366329   -1.211150    0.726760
      6          1           0        0.791369    0.349237    1.416866
 ---------------------------------------------------------------------

 SCF Done:  E(RHF) =  -636.512359707     A.U. after    2 cycles

 The electronic state is 1-A.
 Alpha  occ. eigenvalues --  -75.77347 -29.28205 -29.28139 -13.20978 -13.16015
 Alpha  occ. eigenvalues --  -13.08442 -11.48495  -8.11465  -1.30675  -1.08373
 Alpha  occ. eigenvalues --   -0.73942  -0.71380  -0.65567  -0.53909  -0.42568
 Alpha  occ. eigenvalues --   -0.39269  -0.35422  -0.31992  -0.27773  -0.24334
 Alpha  occ. eigenvalues --   -0.17692
 Alpha virt. eigenvalues --    0.03485   0.05057   0.07393   0.10915   0.11962
 Alpha virt. eigenvalues --    0.13077   0.13847   0.15494   0.18074   0.19792
 Alpha virt. eigenvalues --    0.22563   0.24188   0.25482   0.26250   0.28492

 Mulliken charges:
               1
     1  F   -0.214329
     2  S    0.833456
     3  C   -3.832943
     4  F    0.405365
     5  H    1.448121
     6  H    1.360329
 Sum of Mulliken charges =   0.00000

 Dipole moment (field-independent basis, Debye):
    X=             -0.0890    Y=              2.4929    Z=             -0.6618  Tot=              2.5808

 Test job not archived.
 1\1\GINC-SE109\SP\RHF\Aug-CC-pVDZ\C1H2F2S1\OHZDE\09-Apr-2025\0\\#t hf
 aug-cc-pvdz iop(5/13=1,5/36=2,99/5=2) pseudo=read geom=check guess=(re
 ad,tcheck) scf=(maxcycle=1)\\title\\0,1\F,0,-1.429092,0.860484,0.10077
 2\S,0,-0.67288,-0.600039,-0.182318\C,0,0.925572,-0.233029,0.503168\F,0
 ,1.768531,0.457372,-0.350278\H,0,1.366329,-1.21115,0.72676\H,0,0.79136
 9,0.349237,1.416866\\Version=ES64L-G16RevC.01\State=1-A\HF=-636.512359
 7\RMSD=7.129e-02\Dipole=-0.0350312,0.9807831,-0.2603709\Quadrupole=2.5
 507143,-0.6276704,-1.9230439,-1.4265882,0.321684,0.8745184\PG=C01 [X(C

 Normal termination of Gaussian 16 at Wed Apr  9 00:21:09 2025.
