 Gaussian 16, Revision C.01,

 ----------------------------------------------------------------------
 #t hf aug-cc-pvdz symm=none int=(grid=ultrafine) guess=(read,tcheck) s
 table=(opt,rrhf)
 ----------------------------------------------------------------------
 -----
 title
 -----
 Symbolic Z-matrix:
 Charge =  0 Multiplicity = 1

 SCF Done:  E(RHF) =  -1045.17259819     A.U. after   15 cycles
 Normal termination of Gaussian 16 at Tue Apr  8 23:18:50 2025.
 Gaussian 16:  ES64L-G16RevC.01  3-Jul-2019

 ----------------------------------------------------------------------
 #t hf aug-cc-pvdz iop(5/13=1,5/36=2,99/5=2) pseudo=read geom=check gue
 ss=(read,tcheck) scf=(maxcycle=1)
 ----------------------------------------------------------------------
 -----
 title
 -----
 Structure from the checkpoint file:  "BDE49_nonexpt_1057_mol1.chk"
 Charge =  0 Multiplicity = 1

                         Standard orientation:
 ---------------------------------------------------------------------
 Center     Atomic      Atomic             Coordinates (Angstroms)
 Number     Number       Type             X           Y           Z
 ---------------------------------------------------------------------
      1         17           0       -2.124016   -0.172721    0.000000
      2          8           0       -0.458714   -0.666830   -0.000006
      3          6           0        0.438807    0.366321   -0.000012
      4          8           0        0.204939    1.528912   -0.000004
      5         16           0        2.051218   -0.431866    0.000008
      6          1           0        2.686136    0.751545    0.000024
 ---------------------------------------------------------------------

 SCF Done:  E(RHF) =  -1046.40384861     A.U. after    2 cycles

 The electronic state is 1-A.
 Alpha  occ. eigenvalues --  -99.97000 -75.73908 -21.16758 -21.09593 -13.17604
 Alpha  occ. eigenvalues --  -13.15080 -13.05241 -11.56006 -10.53670  -9.73540
 Alpha  occ. eigenvalues --   -9.72671  -9.72538  -8.07938  -1.88163  -1.71841
 Alpha  occ. eigenvalues --   -1.29156  -1.17423  -0.82495  -0.68141  -0.64485
 Alpha  occ. eigenvalues --   -0.63103  -0.55256  -0.54880  -0.52016  -0.46977
 Alpha  occ. eigenvalues --   -0.37886  -0.31440  -0.28717
 Alpha virt. eigenvalues --    0.00849   0.03748   0.07020   0.08451   0.10002
 Alpha virt. eigenvalues --    0.11358   0.11633   0.11760   0.12693   0.14932
 Alpha virt. eigenvalues --    0.16554   0.16620   0.17271   0.19681   0.20885

 Mulliken charges:
               1
     1  Cl   0.625899
     2  O   -1.832820
     3  C    2.989468
     4  O   -2.422400
     5  S   -0.468397
     6  H    1.108250
 Sum of Mulliken charges =  -0.00000

 Dipole moment (field-independent basis, Debye):
    X=              3.0976    Y=             -1.9384    Z=              0.0000  Tot=              3.6541

 Test job not archived.
 1\1\GINC-SE044\SP\RHF\Aug-CC-pVDZ\C1H1Cl1O2S1\OHZDE\08-Apr-2025\0\\#t
 hf aug-cc-pvdz iop(5/13=1,5/36=2,99/5=2) pseudo=read geom=check guess=
 (read,tcheck) scf=(maxcycle=1)\\title\\0,1\Cl,0,-2.124016,-0.172721,0.
 \O,0,-0.458714,-0.66683,-0.000006\C,0,0.438807,0.366321,-0.000012\O,0,
 0.204939,1.528912,-0.000004\S,0,2.051218,-0.431866,0.000008\H,0,2.6861
 36,0.751545,0.000024\\Version=ES64L-G16RevC.01\State=1-A\HF=-1046.4038
 486\RMSD=7.827e-02\Dipole=1.2186945,-0.7626448,0.0000124\Quadrupole=3.
 8193409,-1.2770408,-2.5423002,-1.708989,0.0000791,0.0000153\PG=C01 [X(

 Normal termination of Gaussian 16 at Tue Apr  8 23:18:52 2025.
