 Gaussian 16, Revision C.01,

 ----------------------------------------------------------------------
 #t hf aug-cc-pvdz symm=none int=(grid=ultrafine) guess=(read,tcheck) s
 table=opt
 ----------------------------------------------------------------------
 -----
 title
 -----
 Symbolic Z-matrix:
 Charge =  0 Multiplicity = 2

 SCF Done:  E(UHF) =  -212.140213953     A.U. after   18 cycles
 Normal termination of Gaussian 16 at Tue Apr  8 22:45:27 2025.
 Gaussian 16:  ES64L-G16RevC.01  3-Jul-2019

 ----------------------------------------------------------------------
 #t hf aug-cc-pvdz iop(5/13=1,5/36=2,99/5=2) pseudo=read geom=check gue
 ss=(read,tcheck) scf=(maxcycle=1)
 ----------------------------------------------------------------------
 -----
 title
 -----
 Structure from the checkpoint file:  "BDE49_expt_1528_mol2.chk"
 Charge =  0 Multiplicity = 2

                         Standard orientation:
 ---------------------------------------------------------------------
 Center     Atomic      Atomic             Coordinates (Angstroms)
 Number     Number       Type             X           Y           Z
 ---------------------------------------------------------------------
      1          6           0        0.000000    0.425355    0.000000
      2          8           0        1.141667    0.181975    0.000000
      3          9           0       -1.014815   -0.445326   -0.000000
 ---------------------------------------------------------------------

 SCF Done:  E(UHF) =  -212.918273456     A.U. after    2 cycles

 The electronic state is 2-A'.
 Alpha  occ. eigenvalues --  -29.35951 -21.14807 -11.57728  -1.80031  -1.08179
 Alpha  occ. eigenvalues --   -0.68992  -0.62716  -0.59305  -0.47241  -0.33252
 Alpha  occ. eigenvalues --   -0.33072  -0.26115
 Alpha virt. eigenvalues --    0.09013   0.09754   0.10164   0.13286   0.15555
 Alpha virt. eigenvalues --    0.19893   0.21894   0.24785   0.24922   0.31253
 Alpha virt. eigenvalues --    0.32421   0.35434   0.38388   0.40575   0.46915

  Beta  occ. eigenvalues --  -29.34961 -21.14326 -11.55105  -1.78546  -1.02410
  Beta  occ. eigenvalues --   -0.62443  -0.56900  -0.53171  -0.44052  -0.34168
  Beta  occ. eigenvalues --   -0.31434
  Beta virt. eigenvalues --    0.06020   0.09850   0.10290   0.12936   0.15162
  Beta virt. eigenvalues --    0.18226   0.21858   0.22801   0.24631   0.26558
  Beta virt. eigenvalues --    0.31484   0.32878   0.36307   0.40077   0.41291

 Mulliken charges and spin densities:
               1          2
     1  C    0.945017   0.833643
     2  O   -1.697784   0.026035
     3  F    0.752767   0.140322
 Sum of Mulliken charges =  -0.00000   1.00000

 Dipole moment (field-independent basis, Debye):
    X=             -2.5085    Y=             -1.8303    Z=             -0.0000  Tot=              3.1053
                          Isotropic Fermi Contact Couplings
        Atom                 a.u.       MegaHertz       Gauss      10(-4) cm-1
     1  C(13)              0.21035     236.46952      84.37820      78.87774
     2  O(17)              0.07150     -43.34292     -15.46583     -14.45764
     3  F(19)              0.13945     586.71231     209.35354     195.70616
 --------------------------------------------------------
       Center         ----  Spin Dipole Couplings  ----
                      3XX-RR        3YY-RR        3ZZ-RR
 --------------------------------------------------------
     1   Atom       -0.233193      0.399366     -0.166173

 Normal termination of Gaussian 16 at Tue Apr  8 22:45:28 2025.
