 Gaussian 16, Revision C.01,

 ----------------------------------------------------------------------
 #t hf aug-cc-pvdz symm=none int=(grid=ultrafine) guess=(read,tcheck) s
 table=(opt,rrhf)
 ----------------------------------------------------------------------
 -----
 title
 -----
 Symbolic Z-matrix:
 Charge =  0 Multiplicity = 1

 SCF Done:  E(RHF) =  -629.597941304     A.U. after   14 cycles
 Normal termination of Gaussian 16 at Tue Apr  8 23:51:27 2025.
 Gaussian 16:  ES64L-G16RevC.01  3-Jul-2019

 ----------------------------------------------------------------------
 #t hf aug-cc-pvdz iop(5/13=1,5/36=2,99/5=2) pseudo=read geom=check gue
 ss=(read,tcheck) scf=(maxcycle=1)
 ----------------------------------------------------------------------
 -----
 title
 -----
 Structure from the checkpoint file:  "BDE49_nonexpt_1886_mol1.chk"
 Charge =  0 Multiplicity = 1

                         Standard orientation:
 ---------------------------------------------------------------------
 Center     Atomic      Atomic             Coordinates (Angstroms)
 Number     Number       Type             X           Y           Z
 ---------------------------------------------------------------------
      1         14           0       -0.895491   -0.972047   -0.135866
      2          6           0        0.860774   -0.979561    0.591218
      3          8           0       -1.324495    0.585691   -0.595357
      4          1           0       -1.824463   -1.552728    0.857472
      5          1           0       -0.936544   -1.707171   -1.417879
      6          8           0       -1.202285    1.384627    0.632008
      7          1           0       -0.266518    1.648929    0.555762
      8          8           0        1.833596   -0.302016   -0.221110
      9          8           0        1.546353    1.129700   -0.161829
     10          1           0        1.431604    1.320011   -1.104004
     11          1           0        1.240005   -2.008094    0.615530
     12          1           0        0.902796   -0.598952    1.618228
 ---------------------------------------------------------------------

 SCF Done:  E(RHF) =  -631.161647296     A.U. after    2 cycles

 The electronic state is 1-A.
 Alpha  occ. eigenvalues --  -76.24642 -21.13616 -21.12242 -21.11772 -21.08975
 Alpha  occ. eigenvalues --  -11.40864  -5.58470  -2.24992  -2.21377  -2.20341
 Alpha  occ. eigenvalues --   -1.94620  -1.90305  -1.46453  -1.40379  -0.98272
 Alpha  occ. eigenvalues --   -0.74493  -0.68284  -0.63904  -0.59780  -0.56931
 Alpha  occ. eigenvalues --   -0.52839  -0.52303  -0.49495  -0.45977  -0.42204
 Alpha  occ. eigenvalues --   -0.37818  -0.35675  -0.31085  -0.29032
 Alpha virt. eigenvalues --    0.03670   0.05233   0.05296   0.06246   0.06507
 Alpha virt. eigenvalues --    0.07176   0.08132   0.08361   0.11138   0.11514
 Alpha virt. eigenvalues --    0.14109   0.14987   0.15997   0.16197   0.16753

 Mulliken charges:
               1
     1  Si   6.213707
     2  C   -2.428620
     3  O   -1.282757
     4  H   -1.815992
     5  H   -1.843158
     6  O   -1.401213
     7  H    1.271956
     8  O   -1.569761
     9  O   -0.747120
    10  H    0.865186
    11  H    1.296511
    12  H    1.441262
 Sum of Mulliken charges =  -0.00000

 Dipole moment (field-independent basis, Debye):
    X=              0.9483    Y=              0.0608    Z=              0.1221  Tot=              0.9581

 Test job not archived.
 1\1\GINC-SE334\SP\RHF\Aug-CC-pVDZ\C1H6O4Si1\OHZDE\08-Apr-2025\0\\#t hf
  aug-cc-pvdz iop(5/13=1,5/36=2,99/5=2) pseudo=read geom=check guess=(r
 ead,tcheck) scf=(maxcycle=1)\\title\\0,1\Si,0,-0.895491,-0.972047,-0.1
 35866\C,0,0.860774,-0.979561,0.591218\O,0,-1.324495,0.585691,-0.595357
 \H,0,-1.824463,-1.552729,0.857472\H,0,-0.936544,-1.707171,-1.417879\O,
 0,-1.202286,1.384627,0.632008\H,0,-0.266519,1.648929,0.555762\O,0,1.83
 3596,-0.302015,-0.22111\O,0,1.546353,1.129701,-0.161829\H,0,1.431603,1
 .320012,-1.104004\H,0,1.240006,-2.008094,0.61553\H,0,0.902796,-0.59895

 Normal termination of Gaussian 16 at Tue Apr  8 23:51:31 2025.
