 Gaussian 16, Revision C.01,

 ----------------------------------------------------------------------
 #t hf aug-cc-pvdz symm=none int=(grid=ultrafine) guess=(read,tcheck) s
 table=(opt,rrhf)
 ----------------------------------------------------------------------
 -----
 title
 -----
 Symbolic Z-matrix:
 Charge =  0 Multiplicity = 1

 SCF Done:  E(RHF) =  -1091.62228072     A.U. after   14 cycles
 Normal termination of Gaussian 16 at Wed Apr  9 00:13:40 2025.
 Gaussian 16:  ES64L-G16RevC.01  3-Jul-2019

 ----------------------------------------------------------------------
 #t hf aug-cc-pvdz iop(5/13=1,5/36=2,99/5=2) pseudo=read geom=check gue
 ss=(read,tcheck) scf=(maxcycle=1)
 ----------------------------------------------------------------------
 -----
 title
 -----
 Structure from the checkpoint file:  "BDE49_nonexpt_2432_mol1.chk"
 Charge =  0 Multiplicity = 1

                         Standard orientation:
 ---------------------------------------------------------------------
 Center     Atomic      Atomic             Coordinates (Angstroms)
 Number     Number       Type             X           Y           Z
 ---------------------------------------------------------------------
      1         14           0        2.465784    0.112822   -0.529155
      2         14           0        0.626351   -0.619238    0.751831
      3          6           0       -0.915448    0.440690    0.258875
      4          1           0        0.841659   -0.373791    2.195754
      5          1           0        0.328246   -2.052903    0.524882
      6          8           0       -0.936844    1.632728    0.419976
      7          1           0        3.656359   -0.698057   -0.179994
      8          1           0        2.740763    1.538625   -0.244409
      9         16           0       -2.310680   -0.474595   -0.479666
     10          1           0        2.169162   -0.057465   -1.970292
     11          1           0       -3.067763    0.620965   -0.681791
 ---------------------------------------------------------------------

 SCF Done:  E(RHF) =  -1092.64093818     A.U. after    2 cycles

 The electronic state is 1-A.
 Alpha  occ. eigenvalues --  -76.23943 -76.23081 -75.71180 -21.08367 -13.15531
 Alpha  occ. eigenvalues --  -13.11248 -13.03210 -11.48789  -8.05182  -5.57574
 Alpha  occ. eigenvalues --   -5.56488  -2.21058  -2.19823  -2.18980  -2.18571
 Alpha  occ. eigenvalues --   -2.18546  -2.17494  -1.73015  -1.15782  -0.87609
 Alpha  occ. eigenvalues --   -0.78398  -0.69406  -0.56533  -0.55256  -0.51357
 Alpha  occ. eigenvalues --   -0.49123  -0.48361  -0.47284  -0.45088  -0.36516
 Alpha  occ. eigenvalues --   -0.26664  -0.25164
 Alpha virt. eigenvalues --    0.03549   0.04191   0.05082   0.05957   0.06500
 Alpha virt. eigenvalues --    0.07326   0.07821   0.07855   0.08524   0.09192
 Alpha virt. eigenvalues --    0.09406   0.09845   0.10126   0.10311   0.12345

 Mulliken charges:
               1
     1  Si   4.571287
     2  Si   4.402661
     3  C    0.869298
     4  H   -1.776015
     5  H   -1.652599
     6  O   -2.433275
     7  H   -1.520744
     8  H   -1.455237
     9  S   -0.585955
    10  H   -1.479158
    11  H    1.059736
 Sum of Mulliken charges =  -0.00000

 Dipole moment (field-independent basis, Debye):
    X=              0.3524    Y=             -1.3920    Z=             -0.3693  Tot=              1.4826

 Test job not archived.
 1\1\GINC-SE038\SP\RHF\Aug-CC-pVDZ\C1H6O1S1Si2\OHZDE\09-Apr-2025\0\\#t
 hf aug-cc-pvdz iop(5/13=1,5/36=2,99/5=2) pseudo=read geom=check guess=
 (read,tcheck) scf=(maxcycle=1)\\title\\0,1\Si,0,2.465784,0.112822,-0.5
 29155\Si,0,0.626351,-0.619238,0.751831\C,0,-0.915448,0.44069,0.258875\
 H,0,0.841659,-0.373791,2.195754\H,0,0.328246,-2.052903,0.524882\O,0,-0
 .936844,1.632728,0.419976\H,0,3.656359,-0.698057,-0.179994\H,0,2.74076
 3,1.538625,-0.244409\S,0,-2.31068,-0.474595,-0.479666\H,0,2.169162,-0.
 057465,-1.970292\H,0,-3.067763,0.620965,-0.681791\\Version=ES64L-G16Re

 Normal termination of Gaussian 16 at Wed Apr  9 00:13:44 2025.
