 Gaussian 16, Revision C.01,

 ----------------------------------------------------------------------
 #t hf aug-cc-pvdz symm=none int=(grid=ultrafine) guess=(read,tcheck) s
 table=opt
 ----------------------------------------------------------------------
 -----
 title
 -----
 Symbolic Z-matrix:
 Charge =  0 Multiplicity = 2

 SCF Done:  E(UHF) =  -1706.41822610     A.U. after   17 cycles
 Normal termination of Gaussian 16 at Tue Apr  8 23:47:01 2025.
 Gaussian 16:  ES64L-G16RevC.01  3-Jul-2019

 ----------------------------------------------------------------------
 #t hf aug-cc-pvdz iop(5/13=1,5/36=2,99/5=2) pseudo=read geom=check gue
 ss=(read,tcheck) scf=(maxcycle=1)
 ----------------------------------------------------------------------
 -----
 title
 -----
 Structure from the checkpoint file:  "BDE49_nonexpt_1767_mol2.chk"
 Charge =  0 Multiplicity = 2

                         Standard orientation:
 ---------------------------------------------------------------------
 Center     Atomic      Atomic             Coordinates (Angstroms)
 Number     Number       Type             X           Y           Z
 ---------------------------------------------------------------------
      1         14           0       -0.627083   -1.807782    0.000000
      2          6           0       -0.018143    0.014823   -0.000000
      3         17           0       -0.627083    0.857070    1.470890
      4         17           0       -0.627083    0.857070   -1.470890
      5         17           0        1.790426    0.057528   -0.000000
      6          1           0       -0.114194   -2.449173    1.232909
      7          1           0       -0.114194   -2.449173   -1.232909
 ---------------------------------------------------------------------

 SCF Done:  E(UHF) =  -1707.47120786     A.U. after    2 cycles

 The electronic state is 2-A'.
 Alpha  occ. eigenvalues --  -99.91850 -99.91834 -99.91768 -76.26656 -11.52955
 Alpha  occ. eigenvalues --  -10.49367 -10.48991 -10.48923  -9.69037  -9.69003
 Alpha  occ. eigenvalues --   -9.68876  -9.68284  -9.68232  -9.68224  -9.68176
 Alpha  occ. eigenvalues --   -9.68087  -9.68051  -5.59961  -2.23160  -2.22124
 Alpha  occ. eigenvalues --   -2.21396  -1.44490  -1.30416  -1.30401  -0.98216
 Alpha  occ. eigenvalues --   -0.80114  -0.69907  -0.69863  -0.63758  -0.56682
 Alpha  occ. eigenvalues --   -0.56513  -0.51763  -0.51391  -0.50179  -0.49844
 Alpha  occ. eigenvalues --   -0.44604  -0.31487
 Alpha virt. eigenvalues --   -0.00665   0.04030   0.05439   0.05706   0.05767
 Alpha virt. eigenvalues --    0.06259   0.07126   0.09418   0.09538   0.11668
 Alpha virt. eigenvalues --    0.11715   0.12546   0.13755   0.15714   0.15950

  Beta  occ. eigenvalues --  -99.91851 -99.91835 -99.91712 -76.26073 -11.52934
  Beta  occ. eigenvalues --  -10.49354 -10.48992 -10.48875  -9.69049  -9.68962
  Beta  occ. eigenvalues --   -9.68764  -9.68287  -9.68219  -9.68191  -9.68141
  Beta  occ. eigenvalues --   -9.68050  -9.68023  -5.59034  -2.22456  -2.21477
  Beta  occ. eigenvalues --   -2.17747  -1.44341  -1.30421  -1.30096  -0.97581
  Beta  occ. eigenvalues --   -0.76868  -0.69842  -0.69510  -0.62412  -0.56564
  Beta  occ. eigenvalues --   -0.56060  -0.51614  -0.51289  -0.50114  -0.48991
  Beta  occ. eigenvalues --   -0.43979
  Beta virt. eigenvalues --   -0.00789   0.01720   0.04487   0.05766   0.05829
  Beta virt. eigenvalues --    0.06186   0.06416   0.08275   0.09744   0.09977
  Beta virt. eigenvalues --    0.11759   0.11873   0.13508   0.14292   0.16492

 Mulliken charges and spin densities:
               1          2
     1  Si   3.868174   1.022037
     2  C   -2.125077  -0.105017
     3  Cl   0.365594   0.009409
     4  Cl   0.365594   0.009409
     5  Cl   0.352583   0.030462
     6  H   -1.413435   0.016850
     7  H   -1.413435   0.016850
 Sum of Mulliken charges =  -0.00000   1.00000

 Dipole moment (field-independent basis, Debye):
    X=             -0.9964    Y=             -1.7096    Z=             -0.0000  Tot=              1.9788
                          Isotropic Fermi Contact Couplings
        Atom                 a.u.       MegaHertz       Gauss      10(-4) cm-1
     1  Si(29)             0.54776    -486.80765    -173.70507    -162.38155
     2  C(13)              0.02314      26.00865       9.28053       8.67555
     3  Cl(35)            -0.00031      -0.13653      -0.04872      -0.04554
     4  Cl(35)            -0.00031      -0.13653      -0.04872      -0.04554
     5  Cl(35)             0.02991      13.11529       4.67986       4.37479
     6  H(1)               0.00858      38.34185      13.68133      12.78946
     7  H(1)               0.00858      38.34185      13.68133      12.78946
 --------------------------------------------------------

 Normal termination of Gaussian 16 at Tue Apr  8 23:47:04 2025.
