 Gaussian 16, Revision C.01,

 ----------------------------------------------------------------------
 #t hf aug-cc-pvdz symm=none int=(grid=ultrafine) guess=(read,tcheck) s
 table=(opt,rrhf)
 ----------------------------------------------------------------------
 -----
 title
 -----
 Symbolic Z-matrix:
 Charge =  0 Multiplicity = 1

 SCF Done:  E(RHF) =  -799.230557385     A.U. after   16 cycles
 Normal termination of Gaussian 16 at Wed Apr  9 00:07:06 2025.
 Gaussian 16:  ES64L-G16RevC.01  3-Jul-2019

 ----------------------------------------------------------------------
 #t hf aug-cc-pvdz iop(5/13=1,5/36=2,99/5=2) pseudo=read geom=check gue
 ss=(read,tcheck) scf=(maxcycle=1)
 ----------------------------------------------------------------------
 -----
 title
 -----
 Structure from the checkpoint file:  "BDE49_nonexpt_2208_mol1.chk"
 Charge =  0 Multiplicity = 1

                         Standard orientation:
 ---------------------------------------------------------------------
 Center     Atomic      Atomic             Coordinates (Angstroms)
 Number     Number       Type             X           Y           Z
 ---------------------------------------------------------------------
      1          6           0       -1.560524    0.006809    0.000030
      2          6           0       -1.054461    1.305125    0.000020
      3          6           0        0.317051    1.494511    0.000009
      4          6           0       -0.720549   -1.100837    0.000027
      5          6           0        0.654235   -0.908632    0.000017
      6          6           0        1.178708    0.389988    0.000007
      7          1           0       -1.150617   -2.092545    0.000035
      8          1           0        1.314895   -1.767687    0.000015
      9          8           0        2.511180    0.644297   -0.000004
     10         14           0        3.832665   -0.377792   -0.000001
     11          7           0       -3.018411   -0.197724    0.000042
     12          8           0       -3.731953    0.797819   -0.000066
     13          8           0       -3.431460   -1.351104   -0.000059
     14          1           0       -1.740140    2.140761    0.000021
     15          1           0        0.746935    2.487828    0.000002
     16          1           0        4.996934    0.521678   -0.000010
     17          1           0        3.817335   -1.233392   -1.206477
     18          1           0        3.817341   -1.233376    1.206487
 ---------------------------------------------------------------------

 SCF Done:  E(RHF) =  -801.625101632     A.U. after    2 cycles

 The electronic state is 1-A.
 Alpha  occ. eigenvalues --  -76.26721 -21.09611 -21.08973 -21.08863 -15.99703
 Alpha  occ. eigenvalues --  -11.56734 -11.50141 -11.47206 -11.46738 -11.43738
 Alpha  occ. eigenvalues --  -11.40537  -5.60191  -2.26730  -2.22236  -2.21741
 Alpha  occ. eigenvalues --   -1.99362  -1.77035  -1.68616  -1.36251  -1.16613
 Alpha  occ. eigenvalues --   -1.13470  -0.98913  -0.91952  -0.84125  -0.78656
 Alpha  occ. eigenvalues --   -0.73719  -0.67541  -0.67349  -0.65628  -0.63651
 Alpha  occ. eigenvalues --   -0.61852  -0.58957  -0.57917  -0.52091  -0.51333
 Alpha  occ. eigenvalues --   -0.50642  -0.48965  -0.45213  -0.40172  -0.36848
 Alpha  occ. eigenvalues --   -0.35512  -0.31564  -0.31052  -0.30755
 Alpha virt. eigenvalues --    0.02820   0.04030   0.04972   0.05653   0.06138
 Alpha virt. eigenvalues --    0.06560   0.06910   0.07748   0.08384   0.08622
 Alpha virt. eigenvalues --    0.09842   0.10092   0.10913   0.12188   0.12436

 Mulliken charges:
               1
     1  C    2.404698
     2  C   -1.647567
     3  C   -1.815830
     4  C   -1.802018
     5  C   -2.007217
     6  C    4.003372
     7  H    1.822460
     8  H    2.007469
     9  O   -4.904833
    10  Si   6.355513
    11  N    3.074690
    12  O   -2.947579
    13  O   -2.960734
    14  H    1.892177
    15  H    1.827051
    16  H   -1.840389
    17  H   -1.730634
    18  H   -1.730629
 Sum of Mulliken charges =   0.00000

 Dipole moment (field-independent basis, Debye):
    X=              3.7613    Y=              0.5361    Z=             -0.0000  Tot=              3.7993

 Test job not archived.
 1\1\GINC-SE398\SP\RHF\Aug-CC-pVDZ\C6H7N1O3Si1\OHZDE\09-Apr-2025\0\\#t
 hf aug-cc-pvdz iop(5/13=1,5/36=2,99/5=2) pseudo=read geom=check guess=
 (read,tcheck) scf=(maxcycle=1)\\title\\0,1\C,0,-1.560524,0.006809,0.00
 003\C,0,-1.054461,1.305125,0.00002\C,0,0.317051,1.494511,0.000009\C,0,
 -0.720549,-1.100837,0.000027\C,0,0.654235,-0.908632,0.000017\C,0,1.178
 708,0.389988,0.000007\H,0,-1.150617,-2.092545,0.000035\H,0,1.314895,-1
 .767687,0.000015\O,0,2.51118,0.644297,-0.000004\Si,0,3.832665,-0.37779
 2,-0.000001\N,0,-3.018411,-0.197724,0.000042\O,0,-3.731953,0.797819,-0

 Normal termination of Gaussian 16 at Wed Apr  9 00:07:16 2025.
