 Gaussian 16, Revision C.01,

 ----------------------------------------------------------------------
 #t hf aug-cc-pvdz symm=none int=(grid=ultrafine) guess=(read,tcheck) s
 table=(opt,rrhf)
 ----------------------------------------------------------------------
 -----
 title
 -----
 Symbolic Z-matrix:
 Charge =  0 Multiplicity = 1

 SCF Done:  E(RHF) =  -626.947482123     A.U. after   11 cycles
 Normal termination of Gaussian 16 at Tue Apr  8 23:55:20 2025.
 Gaussian 16:  ES64L-G16RevC.01  3-Jul-2019

 ----------------------------------------------------------------------
 #t hf aug-cc-pvdz iop(5/13=1,5/36=2,99/5=2) pseudo=read geom=check gue
 ss=(read,tcheck) scf=(maxcycle=1)
 ----------------------------------------------------------------------
 -----
 title
 -----
 Structure from the checkpoint file:  "BDE49_nonexpt_1976_mol1.chk"
 Charge =  0 Multiplicity = 1

                         Standard orientation:
 ---------------------------------------------------------------------
 Center     Atomic      Atomic             Coordinates (Angstroms)
 Number     Number       Type             X           Y           Z
 ---------------------------------------------------------------------
      1          6           0        0.827534    0.118003   -0.392207
      2         14           0       -0.870509   -0.522029    0.197489
      3          9           0        1.154804    1.272804    0.281651
      4          1           0        0.940994    0.319081   -1.461538
      5          9           0        1.758305   -0.846508   -0.049635
      6          9           0       -1.991775    0.541649   -0.249207
      7          1           0       -0.849581   -0.622100    1.665952
      8          1           0       -1.161494   -1.808092   -0.461306
 ---------------------------------------------------------------------

 SCF Done:  E(RHF) =  -628.300737249     A.U. after    2 cycles

 The electronic state is 1-A.
 Alpha  occ. eigenvalues --  -76.27541 -29.29072 -29.28912 -29.28458 -11.49243
 Alpha  occ. eigenvalues --   -5.62094  -2.27373  -2.24324  -2.23212  -1.26762
 Alpha  occ. eigenvalues --   -0.89587  -0.79516  -0.73787  -0.65042  -0.58138
 Alpha  occ. eigenvalues --   -0.53276  -0.44986  -0.38998  -0.37085  -0.35053
 Alpha  occ. eigenvalues --   -0.34590  -0.30841  -0.30446  -0.23087  -0.22448
 Alpha virt. eigenvalues --    0.04310   0.04965   0.06768   0.07323   0.07640
 Alpha virt. eigenvalues --    0.09573   0.12133   0.14056   0.15157   0.15689
 Alpha virt. eigenvalues --    0.16529   0.19092   0.21596   0.23163   0.23700

 Mulliken charges:
               1
     1  C   -2.762473
     2  Si   5.570746
     3  F    0.220061
     4  H    1.383636
     5  F    0.189662
     6  F   -0.971607
     7  H   -1.870022
     8  H   -1.760003
 Sum of Mulliken charges =  -0.00000

 Dipole moment (field-independent basis, Debye):
    X=             -0.1754    Y=              1.6363    Z=              0.2806  Tot=              1.6694

 Test job not archived.
 1\1\GINC-SE070\SP\RHF\Aug-CC-pVDZ\C1H3F3Si1\OHZDE\08-Apr-2025\0\\#t hf
  aug-cc-pvdz iop(5/13=1,5/36=2,99/5=2) pseudo=read geom=check guess=(r
 ead,tcheck) scf=(maxcycle=1)\\title\\0,1\C,0,0.827534,0.118003,-0.3922
 07\Si,0,-0.870509,-0.522029,0.197489\F,0,1.154804,1.272804,0.281651\H,
 0,0.940994,0.319081,-1.461538\F,0,1.758305,-0.846508,-0.049635\F,0,-1.
 991775,0.541649,-0.249207\H,0,-0.849581,-0.6221,1.665952\H,0,-1.161494
 ,-1.808092,-0.461306\\Version=ES64L-G16RevC.01\State=1-A\HF=-628.30073
 72\RMSD=8.806e-02\Dipole=-0.069003,0.6437604,0.1104049\Quadrupole=3.02

 Normal termination of Gaussian 16 at Tue Apr  8 23:55:23 2025.
