 Gaussian 16, Revision C.01,

 ----------------------------------------------------------------------
 #t hf aug-cc-pvdz symm=none int=(grid=ultrafine) guess=(read,tcheck) s
 table=(opt,rrhf)
 ----------------------------------------------------------------------
 -----
 title
 -----
 Symbolic Z-matrix:
 Charge =  0 Multiplicity = 1

 SCF Done:  E(RHF) =  -2738.96101388     A.U. after   16 cycles
 Normal termination of Gaussian 16 at Tue Apr  8 23:26:02 2025.
 Gaussian 16:  ES64L-G16RevC.01  3-Jul-2019

 ----------------------------------------------------------------------
 #t hf aug-cc-pvdz iop(5/13=1,5/36=2,99/5=2) pseudo=read geom=check gue
 ss=(read,tcheck) scf=(maxcycle=1)
 ----------------------------------------------------------------------
 -----
 title
 -----
 Structure from the checkpoint file:  "BDE49_nonexpt_1237_mol1.chk"
 Charge =  0 Multiplicity = 1

                         Standard orientation:
 ---------------------------------------------------------------------
 Center     Atomic      Atomic             Coordinates (Angstroms)
 Number     Number       Type             X           Y           Z
 ---------------------------------------------------------------------
      1         17           0       -0.000368    2.456130   -1.434259
      2         17           0        2.974799   -1.693649    0.091871
      3         17           0       -2.974262   -1.694449    0.091828
      4         15           0       -0.000267    2.149952    0.653091
      5         15           0        1.650033   -0.353803   -0.732786
      6         15           0       -1.649834   -0.354233   -0.732772
      7          6           0       -1.385800    0.806102    0.771616
      8          6           0        1.385768    0.806594    0.771525
      9          6           0        0.000223   -1.308178   -0.415919
     10          8           0       -2.040312    0.764152    1.767953
     11          8           0        2.039565    0.764101    1.768308
     12          8           0        0.000372   -2.479800   -0.200864
 ---------------------------------------------------------------------

 SCF Done:  E(RHF) =  -2741.62310578     A.U. after    2 cycles

 The electronic state is 1-A.
 Alpha  occ. eigenvalues -- -105.28889-105.27771-105.26947 -99.94092 -99.92058
 Alpha  occ. eigenvalues --  -99.92057 -21.13913 -21.13903 -21.12680 -11.53803
 Alpha  occ. eigenvalues --  -11.53633 -11.53207 -10.51347 -10.49396 -10.49390
 Alpha  occ. eigenvalues --   -9.71239  -9.70727  -9.70605  -9.69278  -9.69235
 Alpha  occ. eigenvalues --   -9.68527  -9.68521  -9.68512  -9.68511  -2.86753
 Alpha  occ. eigenvalues --   -2.85795  -2.85527  -1.78682  -1.78581  -1.77734
 Alpha  occ. eigenvalues --   -1.57771  -1.57654  -1.56469  -1.56213  -1.55114
 Alpha  occ. eigenvalues --   -1.54441  -1.53911  -1.53658  -1.53407  -1.27740
 Alpha  occ. eigenvalues --   -1.25777  -1.25339  -0.95060  -0.85670  -0.85578
 Alpha  occ. eigenvalues --   -0.68958  -0.68761  -0.64122  -0.59039  -0.58370
 Alpha  occ. eigenvalues --   -0.58291  -0.57099  -0.56765  -0.56447  -0.55278
 Alpha  occ. eigenvalues --   -0.51769  -0.51732  -0.51442  -0.50895  -0.49539
 Alpha  occ. eigenvalues --   -0.48530  -0.46830  -0.46817  -0.30275  -0.29054
 Alpha  occ. eigenvalues --   -0.16768  -0.07581  -0.04153  -0.02769
 Alpha virt. eigenvalues --    0.03939   0.05602   0.06320   0.06824   0.07612
 Alpha virt. eigenvalues --    0.07645   0.07945   0.08997   0.09348   0.09621
 Alpha virt. eigenvalues --    0.09945   0.10801   0.11171   0.11337   0.13366

 Mulliken charges:
               1
     1  Cl  -1.242308
     2  Cl  -1.381576
     3  Cl  -1.381586
     4  P    5.462326
     5  P    5.653238
     6  P    5.652183
     7  C   -1.491420
     8  C   -1.492267
     9  C   -1.496420
    10  O   -2.758836
    11  O   -2.758512
    12  O   -2.764821
 Sum of Mulliken charges =  -0.00000

 Dipole moment (field-independent basis, Debye):
    X=             -0.0030    Y=              7.6311    Z=             -5.3912  Tot=              9.3434

 Test job not archived.
 1\1\GINC-SE179\SP\RHF\Aug-CC-pVDZ\C3Cl3O3P3\OHZDE\08-Apr-2025\0\\#t hf
  aug-cc-pvdz iop(5/13=1,5/36=2,99/5=2) pseudo=read geom=check guess=(r
 ead,tcheck) scf=(maxcycle=1)\\title\\0,1\Cl,0,-0.000368,2.45613,-1.434
 259\Cl,0,2.974799,-1.693649,0.091871\Cl,0,-2.974262,-1.694449,0.091828
 \P,0,-0.000267,2.149952,0.653091\P,0,1.650033,-0.353803,-0.732786\P,0,
 -1.649834,-0.354233,-0.732772\C,0,-1.3858,0.806102,0.771616\C,0,1.3857
 68,0.806594,0.771525\C,0,0.000223,-1.308178,-0.415919\O,0,-2.040312,0.
 764152,1.767953\O,0,2.039565,0.764101,1.768308\O,0,0.000372,-2.4798,-0

 Normal termination of Gaussian 16 at Tue Apr  8 23:26:15 2025.
