 Gaussian 16, Revision C.01,

 ----------------------------------------------------------------------
 #t hf aug-cc-pvdz symm=none int=(grid=ultrafine) guess=(read,tcheck) s
 table=opt
 ----------------------------------------------------------------------
 -----
 title
 -----
 Symbolic Z-matrix:
 Charge =  0 Multiplicity = 2

 SCF Done:  E(UHF) =  -625.832568275     A.U. after   21 cycles
 Normal termination of Gaussian 16 at Tue Apr  8 23:01:48 2025.
 Gaussian 16:  ES64L-G16RevC.01  3-Jul-2019

 ----------------------------------------------------------------------
 #t hf aug-cc-pvdz iop(5/13=1,5/36=2,99/5=2) pseudo=read geom=check gue
 ss=(read,tcheck) scf=(maxcycle=1)
 ----------------------------------------------------------------------
 -----
 title
 -----
 Structure from the checkpoint file:  "BDE49_expt_1981_mol2.chk"
 Charge =  0 Multiplicity = 2

                         Standard orientation:
 ---------------------------------------------------------------------
 Center     Atomic      Atomic             Coordinates (Angstroms)
 Number     Number       Type             X           Y           Z
 ---------------------------------------------------------------------
      1          6           0       -0.965371   -0.751265    0.260316
      2         16           0        0.619833    0.069809   -0.266177
      3          6           0       -2.183549    0.078850   -0.106398
      4          1           0       -0.835325   -0.878214    1.337729
      5          1           0       -0.933707   -1.728314   -0.222466
      6          1           0       -2.134361    1.066355    0.353018
      7          1           0       -3.086650   -0.424041    0.249522
      8          1           0       -2.273143    0.204114   -1.187628
      9          8           0        0.581969    1.441490    0.254895
     10          8           0        1.697953   -0.856784    0.095749
 ---------------------------------------------------------------------

 SCF Done:  E(UHF) =  -627.091744126     A.U. after    2 cycles

 The electronic state is 2-A.
 Alpha  occ. eigenvalues --  -75.86568 -21.08358 -21.08262 -13.47565 -13.33368
 Alpha  occ. eigenvalues --  -13.22784 -11.45861 -11.40263  -8.21544  -1.83237
 Alpha  occ. eigenvalues --   -1.67455  -1.22550  -1.00759  -0.88403  -0.67931
 Alpha  occ. eigenvalues --   -0.63915  -0.58834  -0.55742  -0.53592  -0.52046
 Alpha  occ. eigenvalues --   -0.47406  -0.42450  -0.38539  -0.37624  -0.28269
 Alpha virt. eigenvalues --    0.02702   0.04769   0.05037   0.05952   0.07017
 Alpha virt. eigenvalues --    0.08560   0.10763   0.11142   0.11935   0.14174
 Alpha virt. eigenvalues --    0.14325   0.15265   0.16394   0.17605   0.18144

  Beta  occ. eigenvalues --  -75.86188 -21.06979 -21.06906 -13.47610 -13.33189
  Beta  occ. eigenvalues --  -13.20587 -11.45469 -11.40218  -8.21052  -1.80625
  Beta  occ. eigenvalues --   -1.63888  -1.21172  -0.98187  -0.84650  -0.67398
  Beta  occ. eigenvalues --   -0.62598  -0.57294  -0.54746  -0.52549  -0.49277
  Beta  occ. eigenvalues --   -0.44608  -0.36757  -0.36152  -0.34738
  Beta virt. eigenvalues --    0.01247   0.04367   0.04970   0.05230   0.07037
  Beta virt. eigenvalues --    0.07676   0.09101   0.11013   0.11426   0.12077
  Beta virt. eigenvalues --    0.14266   0.15105   0.15952   0.16464   0.17920

 Mulliken charges and spin densities:
               1          2
     1  C   -3.986028   0.294459
     2  S    5.247960   0.323600
     3  C   -3.526119  -0.103991
     4  H    1.545400  -0.001464
     5  H    1.492145  -0.016762
     6  H    1.346993  -0.002655
     7  H    1.131738   0.003727
     8  H    1.271765  -0.000546
     9  O   -2.237470   0.253367
    10  O   -2.286385   0.250265
 Sum of Mulliken charges =   0.00000   1.00000

 Dipole moment (field-independent basis, Debye):
    X=             -2.2344    Y=             -0.7412    Z=             -0.5026  Tot=              2.4072
                          Isotropic Fermi Contact Couplings
        Atom                 a.u.       MegaHertz       Gauss      10(-4) cm-1
     1  C(13)              0.07354      82.67188      29.49938      27.57637
     2  S(33)              0.68931     236.75966      84.48173      78.97452
     3  C(13)             -0.00499      -5.60685      -2.00066      -1.87024
     4  H(1)               0.00170       7.61320       2.71658       2.53949
     5  H(1)              -0.00287     -12.84606      -4.58379      -4.28498
     6  H(1)               0.00030       1.34422       0.47965       0.44838
     7  H(1)               0.00158       7.05708       2.51814       2.35399
     8  H(1)               0.00006       0.27094       0.09668       0.09038

 Normal termination of Gaussian 16 at Tue Apr  8 23:01:51 2025.
