 Gaussian 16, Revision C.01,

 ----------------------------------------------------------------------
 #t hf aug-cc-pvdz symm=none int=(grid=ultrafine) guess=(read,tcheck) s
 table=(opt,rrhf)
 ----------------------------------------------------------------------
 -----
 title
 -----
 Symbolic Z-matrix:
 Charge =  0 Multiplicity = 1

 SCF Done:  E(RHF) =  -957.425658620     A.U. after   15 cycles
 Normal termination of Gaussian 16 at Wed Apr  9 00:16:02 2025.
 Gaussian 16:  ES64L-G16RevC.01  3-Jul-2019

 ----------------------------------------------------------------------
 #t hf aug-cc-pvdz iop(5/13=1,5/36=2,99/5=2) pseudo=read geom=check gue
 ss=(read,tcheck) scf=(maxcycle=1)
 ----------------------------------------------------------------------
 -----
 title
 -----
 Structure from the checkpoint file:  "BDE49_nonexpt_2479_mol1.chk"
 Charge =  0 Multiplicity = 1

                         Standard orientation:
 ---------------------------------------------------------------------
 Center     Atomic      Atomic             Coordinates (Angstroms)
 Number     Number       Type             X           Y           Z
 ---------------------------------------------------------------------
      1         16           0        2.647403   -0.423507   -0.250089
      2         14           0        1.103796    1.033102   -0.622331
      3          6           0       -0.621845    0.386542   -0.272630
      4          6           0       -1.077572   -0.825806   -0.816709
      5          6           0       -2.369565   -1.280445   -0.569690
      6          6           0       -1.503304    1.123165    0.533641
      7          6           0       -2.797992    0.670301    0.783098
      8          6           0       -3.232355   -0.531805    0.230655
      9          1           0       -4.238637   -0.886696    0.424056
     10          1           0       -2.704509   -2.218132   -0.999365
     11          1           0       -0.414165   -1.422660   -1.434651
     12          1           0       -1.177116    2.061058    0.972293
     13          1           0       -3.464433    1.253757    1.408788
     14          6           0        2.369192   -0.786265    1.533511
     15          1           0        2.557729    0.096557    2.144198
     16          1           0        3.080980   -1.565342    1.805286
     17          1           0        1.357100   -1.152192    1.702754
     18          1           0        1.295440    1.367174   -2.051547
     19          1           0        1.296666    2.245040    0.210992
 ---------------------------------------------------------------------

 SCF Done:  E(RHF) =  -959.133973809     A.U. after    2 cycles

 The electronic state is 1-A.
 Alpha  occ. eigenvalues --  -76.23296 -75.66671 -13.09187 -13.06566 -13.02679
 Alpha  occ. eigenvalues --  -11.51577 -11.43375 -11.42868 -11.40973 -11.40683
 Alpha  occ. eigenvalues --  -11.39773 -11.36466  -8.00767  -5.56856  -2.21519
 Alpha  occ. eigenvalues --   -2.20123  -2.18946  -1.34089  -1.17130  -1.09447
 Alpha  occ. eigenvalues --   -1.09381  -0.93794  -0.86546  -0.86135  -0.75380
 Alpha  occ. eigenvalues --   -0.69598  -0.63736  -0.58939  -0.58658  -0.58518
 Alpha  occ. eigenvalues --   -0.57094  -0.53575  -0.50998  -0.48562  -0.45032
 Alpha  occ. eigenvalues --   -0.42302  -0.40791  -0.34863  -0.33419  -0.31250
 Alpha  occ. eigenvalues --   -0.25086
 Alpha virt. eigenvalues --    0.02861   0.04102   0.04744   0.04951   0.05470
 Alpha virt. eigenvalues --    0.05806   0.06282   0.07211   0.07585   0.08518
 Alpha virt. eigenvalues --    0.08928   0.09657   0.10061   0.10899   0.11392

 Mulliken charges:
               1
     1  S   -1.034161
     2  Si   6.092694
     3  C    0.294213
     4  C   -2.835956
     5  C   -0.622165
     6  C   -2.983040
     7  C   -0.650900
     8  C   -2.097796
     9  H    1.535906
    10  H    1.552372
    11  H    1.762996
    12  H    1.842339
    13  H    1.572963
    14  C   -4.721360
    15  H    1.390053
    16  H    1.411802
    17  H    1.468447
    18  H   -2.170898
    19  H   -1.807508
 Sum of Mulliken charges =   0.00000

 Dipole moment (field-independent basis, Debye):
    X=             -0.2424    Y=             -1.5419    Z=              0.5603  Tot=              1.6583

 Test job not archived.
 1\1\GINC-SE082\SP\RHF\Aug-CC-pVDZ\C7H10S1Si1\OHZDE\09-Apr-2025\0\\#t h
 f aug-cc-pvdz iop(5/13=1,5/36=2,99/5=2) pseudo=read geom=check guess=(
 read,tcheck) scf=(maxcycle=1)\\title\\0,1\S,0,2.647403,-0.423507,-0.25
 0089\Si,0,1.103796,1.033102,-0.622331\C,0,-0.621845,0.386542,-0.27263\
 C,0,-1.077572,-0.825806,-0.816709\C,0,-2.369565,-1.280445,-0.56969\C,0
 ,-1.503304,1.123165,0.533641\C,0,-2.797992,0.670301,0.783098\C,0,-3.23
 2355,-0.531805,0.230655\H,0,-4.238637,-0.886696,0.424056\H,0,-2.704509
 ,-2.218132,-0.999365\H,0,-0.414165,-1.42266,-1.434651\H,0,-1.177116,2.

 Normal termination of Gaussian 16 at Wed Apr  9 00:16:12 2025.
