 Gaussian 16, Revision C.01,

 ----------------------------------------------------------------------
 #t hf aug-cc-pvdz symm=none int=(grid=ultrafine) guess=(read,tcheck) s
 table=(opt,rrhf)
 ----------------------------------------------------------------------
 -----
 title
 -----
 Symbolic Z-matrix:
 Charge =  0 Multiplicity = 1

 SCF Done:  E(RHF) =  -702.461039638     A.U. after   15 cycles
 Normal termination of Gaussian 16 at Wed Apr  9 00:41:30 2025.
 Gaussian 16:  ES64L-G16RevC.01  3-Jul-2019

 ----------------------------------------------------------------------
 #t hf aug-cc-pvdz iop(5/13=1,5/36=2,99/5=2) pseudo=read geom=check gue
 ss=(read,tcheck) scf=(maxcycle=1)
 ----------------------------------------------------------------------
 -----
 title
 -----
 Structure from the checkpoint file:  "BDE49_nonexpt_632_mol1.chk"
 Charge =  0 Multiplicity = 1

                         Standard orientation:
 ---------------------------------------------------------------------
 Center     Atomic      Atomic             Coordinates (Angstroms)
 Number     Number       Type             X           Y           Z
 ---------------------------------------------------------------------
      1          9           0       -0.432729    2.023495   -0.000002
      2          9           0        3.303191   -0.800795    0.000000
      3          9           0        2.227733    1.688276   -0.000002
      4          8           0       -3.120591   -1.329983   -0.000001
      5          8           0       -3.050158    1.014091   -0.000001
      6          6           0        1.430745    0.612958   -0.000001
      7          6           0       -0.822389   -0.332307    0.000001
      8          6           0       -0.232184   -1.607608    0.000002
      9          1           0       -0.883661   -2.471898    0.000004
     10          6           0        0.049516    0.752632    0.000000
     11          6           0        1.146071   -1.784923    0.000002
     12          1           0        1.599092   -2.768087    0.000003
     13          6           0        1.968925   -0.668480    0.000000
     14          5           0       -2.389073   -0.178502    0.000002
     15          1           0       -2.465119    1.777668   -0.000001
     16          1           0       -4.066812   -1.150448   -0.000002
 ---------------------------------------------------------------------

 SCF Done:  E(RHF) =  -705.239501135     A.U. after    2 cycles

 The electronic state is 1-A.
 Alpha  occ. eigenvalues --  -29.31763 -29.31271 -29.31127 -21.06616 -21.06523
 Alpha  occ. eigenvalues --  -11.58559 -11.52659 -11.49428 -11.47984 -11.44289
 Alpha  occ. eigenvalues --  -11.40534  -7.68198  -1.83125  -1.66757  -1.43605
 Alpha  occ. eigenvalues --   -1.22589  -1.19834  -1.01100  -0.98864  -0.85582
 Alpha  occ. eigenvalues --   -0.81118  -0.74626  -0.72273  -0.68353  -0.66279
 Alpha  occ. eigenvalues --   -0.63164  -0.59676  -0.56092  -0.54130  -0.51753
 Alpha  occ. eigenvalues --   -0.48176  -0.45116  -0.43885  -0.43232  -0.41722
 Alpha  occ. eigenvalues --   -0.41462  -0.38872  -0.37589  -0.35936  -0.30091
 Alpha  occ. eigenvalues --   -0.29592  -0.28204  -0.25478  -0.21914
 Alpha virt. eigenvalues --    0.03716   0.04655   0.05346   0.05521   0.06402
 Alpha virt. eigenvalues --    0.07331   0.08903   0.09532   0.10796   0.11403
 Alpha virt. eigenvalues --    0.11741   0.11867   0.12845   0.13072   0.13530

 Mulliken charges:
               1
     1  F    0.929571
     2  F    0.826492
     3  F    1.187521
     4  O   -4.366528
     5  O   -4.388696
     6  C   -2.208681
     7  C   -6.857496
     8  C    2.197375
     9  H    1.989276
    10  C    4.771103
    11  C   -5.526216
    12  H    1.642357
    13  C    2.484181
    14  B    4.750414
    15  H    1.492484
    16  H    1.076841
 Sum of Mulliken charges =   0.00000

 Dipole moment (field-independent basis, Debye):
    X=              3.4371    Y=              3.9143    Z=             -0.0000  Tot=              5.2092

 Test job not archived.
 1\1\GINC-SE165\SP\RHF\Aug-CC-pVDZ\C6H4B1F3O2\OHZDE\09-Apr-2025\0\\#t h
 f aug-cc-pvdz iop(5/13=1,5/36=2,99/5=2) pseudo=read geom=check guess=(
 read,tcheck) scf=(maxcycle=1)\\title\\0,1\F,0,0.432729,2.023495,0.0000
 02\F,0,-3.303191,-0.800795,0.\F,0,-2.227733,1.688276,0.000002\O,0,3.12
 0591,-1.329983,0.000001\O,0,3.050158,1.014091,0.000001\C,0,-1.430745,0
 .612958,0.000001\C,0,0.822389,-0.332307,-0.000001\C,0,0.232184,-1.6076
 08,-0.000002\H,0,0.883661,-2.471898,-0.000004\C,0,-0.049516,0.752632,0
 .\C,0,-1.146071,-1.784923,-0.000002\H,0,-1.599092,-2.768087,-0.000003\

 Normal termination of Gaussian 16 at Wed Apr  9 00:41:41 2025.
