 Gaussian 16, Revision C.01,

 ----------------------------------------------------------------------
 #t hf aug-cc-pvdz symm=none int=(grid=ultrafine) guess=(read,tcheck) s
 table=(opt,rrhf)
 ----------------------------------------------------------------------
 -----
 title
 -----
 Symbolic Z-matrix:
 Charge =  0 Multiplicity = 1

 SCF Done:  E(RHF) =  -608.794148394     A.U. after   12 cycles
 Normal termination of Gaussian 16 at Tue Apr  8 23:56:18 2025.
 Gaussian 16:  ES64L-G16RevC.01  3-Jul-2019

 ----------------------------------------------------------------------
 #t hf aug-cc-pvdz iop(5/13=1,5/36=2,99/5=2) pseudo=read geom=check gue
 ss=(read,tcheck) scf=(maxcycle=1)
 ----------------------------------------------------------------------
 -----
 title
 -----
 Structure from the checkpoint file:  "BDE49_nonexpt_1963_mol1.chk"
 Charge =  0 Multiplicity = 1

                         Standard orientation:
 ---------------------------------------------------------------------
 Center     Atomic      Atomic             Coordinates (Angstroms)
 Number     Number       Type             X           Y           Z
 ---------------------------------------------------------------------
      1         14           0       -0.552494   -1.286665   -0.077730
      2          6           0        1.080309   -0.910752    0.844199
      3          5           0        1.922257    0.198256    0.139427
      4          8           0        1.406789    1.481346    0.210214
      5          6           0        3.263743   -0.080116   -0.637814
      6          1           0        3.140042   -0.913468   -1.337968
      7          1           0        4.041567   -0.398539    0.067081
      8          1           0        3.656613    0.774935   -1.198633
      9          5           0       -1.865287    0.296572   -0.062239
     10          1           0       -1.159220   -2.504084    0.527786
     11          1           0       -0.219063   -1.661351   -1.483853
     12          8           0       -1.424556    1.557419    0.164645
     13          6           0       -3.405425    0.084557   -0.308313
     14          1           0       -3.590299   -0.466472   -1.238414
     15          1           0       -3.957351    1.028348   -0.346085
     16          1           0       -3.837118   -0.535262    0.487887
     17          1           0        1.935787    2.137200   -0.254944
     18          1           0       -0.464298    1.633856    0.293922
     19          1           0        1.636092   -1.846321    0.951854
     20          1           0        0.777686   -0.581927    1.846360
 ---------------------------------------------------------------------

 SCF Done:  E(RHF) =  -610.423287643     A.U. after    2 cycles

 The electronic state is 1-A.
 Alpha  occ. eigenvalues --  -76.19033 -21.07682 -21.03863 -11.34438 -11.32200
 Alpha  occ. eigenvalues --  -11.32166  -7.61826  -7.60270  -5.52639  -2.16439
 Alpha  occ. eigenvalues --   -2.15210  -2.14767  -1.76152  -1.71622  -1.11168
 Alpha  occ. eigenvalues --   -1.04881  -1.02060  -0.76412  -0.72271  -0.68593
 Alpha  occ. eigenvalues --   -0.61857  -0.58787  -0.56321  -0.55586  -0.53894
 Alpha  occ. eigenvalues --   -0.53765  -0.51692  -0.48507  -0.45065  -0.44750
 Alpha  occ. eigenvalues --   -0.43004  -0.40771  -0.39392  -0.36673  -0.30166
 Alpha virt. eigenvalues --    0.02325   0.03793   0.04014   0.04253   0.05728
 Alpha virt. eigenvalues --    0.06267   0.06352   0.07662   0.07891   0.08222
 Alpha virt. eigenvalues --    0.08514   0.08715   0.08967   0.09201   0.09721

 Mulliken charges:
               1
     1  Si   4.851161
     2  C   -6.625148
     3  B    9.244443
     4  O   -3.821772
     5  C   -6.341075
     6  H    1.213781
     7  H    0.985104
     8  H    1.070515
     9  B    5.003102
    10  H   -2.011564
    11  H   -1.910839
    12  O   -5.141902
    13  C   -5.936803
    14  H    0.881876
    15  H    1.360116
    16  H    0.824861
    17  H    1.286933
    18  H    2.358811
    19  H    1.353861
    20  H    1.354538
 Sum of Mulliken charges =  -0.00000

 Dipole moment (field-independent basis, Debye):
    X=              2.2354    Y=              1.1592    Z=              0.3154  Tot=              2.5378

 Test job not archived.
 1\1\GINC-SE453\SP\RHF\Aug-CC-pVDZ\C3H12B2O2Si1\OHZDE\08-Apr-2025\0\\#t
  hf aug-cc-pvdz iop(5/13=1,5/36=2,99/5=2) pseudo=read geom=check guess
 =(read,tcheck) scf=(maxcycle=1)\\title\\0,1\Si,0,0.552494,-1.286665,0.
 07773\C,0,-1.080309,-0.910752,-0.844199\B,0,-1.922257,0.198256,-0.1394
 27\O,0,-1.406789,1.481346,-0.210214\C,0,-3.263743,-0.080116,0.637814\H
 ,0,-3.140042,-0.913468,1.337968\H,0,-4.041567,-0.398539,-0.067081\H,0,
 -3.656613,0.774935,1.198633\B,0,1.865287,0.296572,0.062239\H,0,1.15922
 ,-2.504084,-0.527786\H,0,0.219063,-1.661351,1.483853\O,0,1.424556,1.55

 Normal termination of Gaussian 16 at Tue Apr  8 23:56:26 2025.
