 Gaussian 16, Revision C.01,

 ----------------------------------------------------------------------
 #t hf aug-cc-pvdz symm=none int=(grid=ultrafine) guess=(read,tcheck) s
 table=(opt,rrhf)
 ----------------------------------------------------------------------
 -----
 title
 -----
 Symbolic Z-matrix:
 Charge =  0 Multiplicity = 1

 SCF Done:  E(RHF) =  -208.828531335     A.U. after   13 cycles
 Normal termination of Gaussian 16 at Tue Apr  8 22:38:26 2025.
 Gaussian 16:  ES64L-G16RevC.01  3-Jul-2019

 ----------------------------------------------------------------------
 #t hf aug-cc-pvdz iop(5/13=1,5/36=2,99/5=2) pseudo=read geom=check gue
 ss=(read,tcheck) scf=(maxcycle=1)
 ----------------------------------------------------------------------
 -----
 title
 -----
 Structure from the checkpoint file:  "BDE49_expt_1167_mol1.chk"
 Charge =  0 Multiplicity = 1

                         Standard orientation:
 ---------------------------------------------------------------------
 Center     Atomic      Atomic             Coordinates (Angstroms)
 Number     Number       Type             X           Y           Z
 ---------------------------------------------------------------------
      1          6           0        1.293365    0.369258   -0.000004
      2          6           0       -0.072198    1.021252    0.000003
      3          6           0       -1.190742    0.081834    0.000004
      4          1           0       -0.172753    1.675016   -0.874774
      5          1           0       -0.172747    1.675011    0.874784
      6          7           0       -2.066070   -0.667467    0.000006
      7          6           0        1.536332   -0.935019   -0.000007
      8          1           0        2.117289    1.077813   -0.000006
      9          1           0        0.737550   -1.669100   -0.000006
     10          1           0        2.552606   -1.310419   -0.000012
 ---------------------------------------------------------------------

 SCF Done:  E(RHF) =  -209.812325392     A.U. after    2 cycles

 The electronic state is 1-A.
 Alpha  occ. eigenvalues --  -15.76030 -11.48247 -11.43786 -11.42570 -11.39467
 Alpha  occ. eigenvalues --   -1.33113  -1.21996  -1.05430  -0.83557  -0.70174
 Alpha  occ. eigenvalues --   -0.65596  -0.64007  -0.56402  -0.52845  -0.49905
 Alpha  occ. eigenvalues --   -0.43849  -0.43244  -0.37124
 Alpha virt. eigenvalues --    0.02720   0.05078   0.05272   0.05983   0.07268
 Alpha virt. eigenvalues --    0.08741   0.10188   0.10953   0.12391   0.13304
 Alpha virt. eigenvalues --    0.13927   0.14447   0.14826   0.15034   0.16543

 Mulliken charges:
               1
     1  C   -0.263803
     2  C   -3.768973
     3  C    2.339225
     4  H    1.387301
     5  H    1.387301
     6  N   -2.339682
     7  C   -2.863258
     8  H    1.241644
     9  H    1.504247
    10  H    1.375999
 Sum of Mulliken charges =   0.00000

 Dipole moment (field-independent basis, Debye):
    X=              2.7907    Y=              2.0776    Z=             -0.0000  Tot=              3.4791

 Test job not archived.
 1\1\GINC-SE097\SP\RHF\Aug-CC-pVDZ\C4H5N1\OHZDE\08-Apr-2025\0\\#t hf au
 g-cc-pvdz iop(5/13=1,5/36=2,99/5=2) pseudo=read geom=check guess=(read
 ,tcheck) scf=(maxcycle=1)\\title\\0,1\C,0,1.293365,0.369258,-0.000004\
 C,0,-0.072198,1.021252,0.000003\C,0,-1.190742,0.081834,0.000004\H,0,-0
 .172753,1.675016,-0.874774\H,0,-0.172747,1.675011,0.874784\N,0,-2.0660
 7,-0.667467,0.000006\C,0,1.536332,-0.935019,-0.000007\H,0,2.117289,1.0
 77813,-0.000006\H,0,0.73755,-1.6691,-0.000006\H,0,2.552606,-1.310419,-
 0.000012\\Version=ES64L-G16RevC.01\State=1-A\HF=-209.8123254\RMSD=4.93

 Normal termination of Gaussian 16 at Tue Apr  8 22:38:29 2025.
