 Gaussian 16, Revision C.01,

 ----------------------------------------------------------------------
 #t hf aug-cc-pvdz symm=none int=(grid=ultrafine) guess=(read,tcheck) s
 table=(opt,rrhf)
 ----------------------------------------------------------------------
 -----
 title
 -----
 Symbolic Z-matrix:
 Charge =  0 Multiplicity = 1

 SCF Done:  E(RHF) =  -678.081934779     A.U. after   15 cycles
 Normal termination of Gaussian 16 at Tue Apr  8 23:39:21 2025.
 Gaussian 16:  ES64L-G16RevC.01  3-Jul-2019

 ----------------------------------------------------------------------
 #t hf aug-cc-pvdz iop(5/13=1,5/36=2,99/5=2) pseudo=read geom=check gue
 ss=(read,tcheck) scf=(maxcycle=1)
 ----------------------------------------------------------------------
 -----
 title
 -----
 Structure from the checkpoint file:  "BDE49_nonexpt_1572_mol1.chk"
 Charge =  0 Multiplicity = 1

                         Standard orientation:
 ---------------------------------------------------------------------
 Center     Atomic      Atomic             Coordinates (Angstroms)
 Number     Number       Type             X           Y           Z
 ---------------------------------------------------------------------
      1          6           0        2.221795   -0.005612   -0.001906
      2          7           0        0.849496   -0.231200   -0.051484
      3          6           0       -0.115976    0.761822    0.016145
      4          7           0       -1.737873   -1.500182    0.172429
      5          8           0        3.032431   -0.896226   -0.039818
      6          1           0        2.466442    1.063019    0.074488
      7          8           0        0.122457    1.941803    0.143905
      8          1           0        0.525440   -1.191401   -0.122698
      9         15           0       -1.884799    0.166590   -0.231833
     10          1           0       -2.317612    0.737156    0.989660
     11          1           0       -2.324922   -2.113975   -0.374705
     12          1           0       -1.732742   -1.775851    1.146005
 ---------------------------------------------------------------------

 SCF Done:  E(RHF) =  -679.713732546     A.U. after    2 cycles

 The electronic state is 1-A.
 Alpha  occ. eigenvalues -- -105.22508 -21.06196 -21.06150 -15.79588 -15.78013
 Alpha  occ. eigenvalues --  -11.50756 -11.50043  -2.80590  -1.74546  -1.71844
 Alpha  occ. eigenvalues --   -1.58634  -1.50769  -1.48213  -1.39257  -1.21203
 Alpha  occ. eigenvalues --   -0.93539  -0.83721  -0.76904  -0.68604  -0.66579
 Alpha  occ. eigenvalues --   -0.59779  -0.57288  -0.52075  -0.46915  -0.46710
 Alpha  occ. eigenvalues --   -0.41803  -0.33252  -0.32965  -0.30704  -0.21021
 Alpha  occ. eigenvalues --   -0.04256
 Alpha virt. eigenvalues --    0.03377   0.05293   0.05773   0.06209   0.07465
 Alpha virt. eigenvalues --    0.08728   0.09621   0.10156   0.10889   0.12107
 Alpha virt. eigenvalues --    0.12981   0.13241   0.14461   0.16000   0.16258

 Mulliken charges:
               1
     1  C    1.683291
     2  N   -3.133090
     3  C    2.978304
     4  N   -2.154764
     5  O   -2.660823
     6  H    1.656910
     7  O   -2.949817
     8  H    0.706238
     9  P    3.385823
    10  H   -0.746055
    11  H    0.685332
    12  H    0.548649
 Sum of Mulliken charges =   0.00000

 Dipole moment (field-independent basis, Debye):
    X=             -3.0701    Y=             -1.5384    Z=             -0.3473  Tot=              3.4515

 Test job not archived.
 1\1\GINC-SE108\SP\RHF\Aug-CC-pVDZ\C2H5N2O2P1\OHZDE\08-Apr-2025\0\\#t h
 f aug-cc-pvdz iop(5/13=1,5/36=2,99/5=2) pseudo=read geom=check guess=(
 read,tcheck) scf=(maxcycle=1)\\title\\0,1\C,0,2.221795,-0.005612,-0.00
 1906\N,0,0.849496,-0.2312,-0.051484\C,0,-0.115976,0.761822,0.016145\N,
 0,-1.737873,-1.500182,0.172429\O,0,3.032431,-0.896226,-0.039818\H,0,2.
 466442,1.063019,0.074488\O,0,0.122457,1.941803,0.143905\H,0,0.52544,-1
 .191401,-0.122698\P,0,-1.884799,0.16659,-0.231833\H,0,-2.317612,0.7371
 56,0.98966\H,0,-2.324922,-2.113975,-0.374705\H,0,-1.732742,-1.775851,1

 Normal termination of Gaussian 16 at Tue Apr  8 23:39:26 2025.
