 Gaussian 16, Revision C.01,

 ----------------------------------------------------------------------
 #t hf aug-cc-pvdz symm=none int=(grid=ultrafine) guess=(read,tcheck) s
 table=(opt,rrhf)
 ----------------------------------------------------------------------
 -----
 title
 -----
 Symbolic Z-matrix:
 Charge =  0 Multiplicity = 1

 SCF Done:  E(RHF) =  -949.323311400     A.U. after   14 cycles
 Normal termination of Gaussian 16 at Wed Apr  9 00:18:33 2025.
 Gaussian 16:  ES64L-G16RevC.01  3-Jul-2019

 ----------------------------------------------------------------------
 #t hf aug-cc-pvdz iop(5/13=1,5/36=2,99/5=2) pseudo=read geom=check gue
 ss=(read,tcheck) scf=(maxcycle=1)
 ----------------------------------------------------------------------
 -----
 title
 -----
 Structure from the checkpoint file:  "BDE49_nonexpt_2562_mol1.chk"
 Charge =  0 Multiplicity = 1

                         Standard orientation:
 ---------------------------------------------------------------------
 Center     Atomic      Atomic             Coordinates (Angstroms)
 Number     Number       Type             X           Y           Z
 ---------------------------------------------------------------------
      1         17           0        1.505957   -0.495423    0.000000
      2         16           0       -0.040550    0.894165   -0.000001
      3          6           0       -1.392515   -0.117312    0.000000
      4          7           0       -2.371055   -0.740083    0.000001
 ---------------------------------------------------------------------

 SCF Done:  E(RHF) =  -950.176446949     A.U. after    2 cycles

 The electronic state is 1-A.
 Alpha  occ. eigenvalues --  -99.95179 -75.81653 -15.80281 -13.26847 -13.16563
 Alpha  occ. eigenvalues --  -13.12718 -11.46661 -10.52269  -9.71946  -9.71317
 Alpha  occ. eigenvalues --   -9.71215  -8.15506  -1.40334  -1.32491  -1.15782
 Alpha  occ. eigenvalues --   -0.72912  -0.61090  -0.59518  -0.57792  -0.51694
 Alpha  occ. eigenvalues --   -0.50557  -0.47374  -0.29943
 Alpha virt. eigenvalues --    0.00078   0.03848   0.07624   0.09490   0.11126
 Alpha virt. eigenvalues --    0.11394   0.12143   0.12847   0.14261   0.15058
 Alpha virt. eigenvalues --    0.15590   0.17312   0.17513   0.20321   0.21593

 Mulliken charges:
               1
     1  Cl  -0.328795
     2  S    1.408652
     3  C    0.847939
     4  N   -1.927797
 Sum of Mulliken charges =  -0.00000

 Dipole moment (field-independent basis, Debye):
    X=              0.9994    Y=              3.9848    Z=             -0.0000  Tot=              4.1082

 Test job not archived.
 1\1\GINC-SE015\SP\RHF\Aug-CC-pVDZ\C1Cl1N1S1\OHZDE\09-Apr-2025\0\\#t hf
  aug-cc-pvdz iop(5/13=1,5/36=2,99/5=2) pseudo=read geom=check guess=(r
 ead,tcheck) scf=(maxcycle=1)\\title\\0,1\Cl,0,1.505957,-0.495423,0.\S,
 0,-0.04055,0.894165,-0.000001\C,0,-1.392515,-0.117312,0.\N,0,-2.371055
 ,-0.740083,0.000001\\Version=ES64L-G16RevC.01\State=1-A\HF=-950.176446
 9\RMSD=7.991e-02\Dipole=0.3932066,1.5677391,-0.0000014\Quadrupole=-3.3
 350208,4.3469423,-1.0119215,-2.1647068,0.0000027,-0.000004\PG=C01 [X(C
 1Cl1N1S1)]\\@

 Normal termination of Gaussian 16 at Wed Apr  9 00:18:34 2025.
