 Gaussian 16, Revision C.01,

 ----------------------------------------------------------------------
 #t hf aug-cc-pvdz symm=none int=(grid=ultrafine) guess=(read,tcheck) s
 table=opt
 ----------------------------------------------------------------------
 -----
 title
 -----
 Symbolic Z-matrix:
 Charge =  0 Multiplicity = 2

 SCF Done:  E(UHF) =  -548.957578420     A.U. after   15 cycles
 Normal termination of Gaussian 16 at Tue Apr  8 22:52:47 2025.
 Gaussian 16:  ES64L-G16RevC.01  3-Jul-2019

 ----------------------------------------------------------------------
 #t hf aug-cc-pvdz iop(5/13=1,5/36=2,99/5=2) pseudo=read geom=check gue
 ss=(read,tcheck) scf=(maxcycle=1)
 ----------------------------------------------------------------------
 -----
 title
 -----
 Structure from the checkpoint file:  "BDE49_expt_173_mol2.chk"
 Charge =  0 Multiplicity = 2

                         Standard orientation:
 ---------------------------------------------------------------------
 Center     Atomic      Atomic             Coordinates (Angstroms)
 Number     Number       Type             X           Y           Z
 ---------------------------------------------------------------------
      1          6           0        0.996678   -0.049239   -0.193034
      2          8           0        0.046312   -0.252607    0.768440
      3          9           0        1.983267   -0.922031   -0.056494
      4          9           0        1.476289    1.193082   -0.200733
      5          6           0       -1.276728   -0.112789    0.387002
      6          9           0       -1.599231   -1.021427   -0.560085
      7          9           0       -1.505320    1.112101   -0.136824
      8          1           0       -1.885240   -0.262501    1.275885
 ---------------------------------------------------------------------

 SCF Done:  E(UHF) =  -550.917493298     A.U. after    2 cycles

 The electronic state is 2-A.
 Alpha  occ. eigenvalues --  -29.33255 -29.32834 -29.31897 -29.31839 -21.14272
 Alpha  occ. eigenvalues --  -11.58148 -11.56502  -1.91434  -1.32778  -1.19147
 Alpha  occ. eigenvalues --   -0.90179  -0.85354  -0.83831  -0.76889  -0.69382
 Alpha  occ. eigenvalues --   -0.54749  -0.47954  -0.47347  -0.46427  -0.42479
 Alpha  occ. eigenvalues --   -0.38941  -0.36798  -0.34951  -0.33218  -0.30692
 Alpha  occ. eigenvalues --   -0.28632  -0.25023  -0.24208  -0.20971
 Alpha virt. eigenvalues --    0.04165   0.09163   0.10091   0.11394   0.11591
 Alpha virt. eigenvalues --    0.12276   0.13602   0.18206   0.19529   0.20637
 Alpha virt. eigenvalues --    0.21338   0.23786   0.24478   0.25058   0.26448

  Beta  occ. eigenvalues --  -29.32865 -29.32389 -29.31893 -29.31841 -21.13970
  Beta  occ. eigenvalues --  -11.58006 -11.53794  -1.90201  -1.30513  -1.15862
  Beta  occ. eigenvalues --   -0.89273  -0.84273  -0.83068  -0.74447  -0.59434
  Beta  occ. eigenvalues --   -0.49658  -0.47506  -0.46353  -0.45220  -0.42000
  Beta  occ. eigenvalues --   -0.38036  -0.35979  -0.34737  -0.32475  -0.30185
  Beta  occ. eigenvalues --   -0.28114  -0.24827  -0.24163
  Beta virt. eigenvalues --    0.04127   0.09106   0.09797   0.11374   0.11574
  Beta virt. eigenvalues --    0.12084   0.12851   0.13655   0.19406   0.19920
  Beta virt. eigenvalues --    0.21414   0.21569   0.24002   0.25068   0.25820

 Mulliken charges and spin densities:
               1          2
     1  C   -0.477073   0.876338
     2  O   -2.437820  -0.026741
     3  F    0.594815   0.113402
     4  F    0.544326   0.118593
     5  C   -0.480142  -0.078781
     6  F    0.413999   0.001623
     7  F    0.466955   0.000997
     8  H    1.374941  -0.005431
 Sum of Mulliken charges =  -0.00000   1.00000

 Dipole moment (field-independent basis, Debye):
    X=              0.4844    Y=              0.8889    Z=             -1.6416  Tot=              1.9287
                          Isotropic Fermi Contact Couplings
        Atom                 a.u.       MegaHertz       Gauss      10(-4) cm-1
     1  C(13)              0.21640     243.27670      86.80717      81.14837
     2  O(17)              0.02152     -13.04475      -4.65469      -4.35126
     3  F(19)              0.03722     156.58772      55.87439      52.23204
     4  F(19)              0.04718     198.50364      70.83104      66.21369
     5  C(13)              0.01201      13.49691       4.81603       4.50208
     6  F(19)             -0.00008      -0.33636      -0.12002      -0.11220
     7  F(19)             -0.00095      -3.99825      -1.42668      -1.33367
     8  H(1)              -0.00058      -2.60693      -0.93022      -0.86958

 Normal termination of Gaussian 16 at Tue Apr  8 22:52:50 2025.
