 Gaussian 16, Revision C.01,

 ----------------------------------------------------------------------
 #t hf aug-cc-pvdz symm=none int=(grid=ultrafine) guess=(read,tcheck) s
 table=(opt,rrhf)
 ----------------------------------------------------------------------
 -----
 title
 -----
 Symbolic Z-matrix:
 Charge =  0 Multiplicity = 1

 SCF Done:  E(RHF) =  -507.517654001     A.U. after   13 cycles
 Normal termination of Gaussian 16 at Tue Apr  8 23:39:09 2025.
 Gaussian 16:  ES64L-G16RevC.01  3-Jul-2019

 ----------------------------------------------------------------------
 #t hf aug-cc-pvdz iop(5/13=1,5/36=2,99/5=2) pseudo=read geom=check gue
 ss=(read,tcheck) scf=(maxcycle=1)
 ----------------------------------------------------------------------
 -----
 title
 -----
 Structure from the checkpoint file:  "BDE49_nonexpt_1582_mol1.chk"
 Charge =  0 Multiplicity = 1

                         Standard orientation:
 ---------------------------------------------------------------------
 Center     Atomic      Atomic             Coordinates (Angstroms)
 Number     Number       Type             X           Y           Z
 ---------------------------------------------------------------------
      1          7           0        0.388781    0.003226   -0.303055
      2         15           0       -1.313724   -0.167939   -0.022612
      3          7           0        1.077007   -1.187778    0.047911
      4          7           0        1.081567    1.189233    0.083346
      5          1           0        0.680321    1.573951    0.940514
      6          1           0        0.963834    1.880530   -0.650906
      7          1           0        1.426405   -1.114529    1.004248
      8          1           0        1.888150   -1.262145   -0.559276
      9          1           0       -1.672158    1.109515   -0.530313
     10          1           0       -1.412178    0.298994    1.337490
 ---------------------------------------------------------------------

 SCF Done:  E(RHF) =  -508.492850388     A.U. after    2 cycles

 The electronic state is 1-A.
 Alpha  occ. eigenvalues -- -105.19662 -15.76184 -15.75478 -15.74723  -2.76781
 Alpha  occ. eigenvalues --   -1.60588  -1.45692  -1.44048  -1.41741  -1.26647
 Alpha  occ. eigenvalues --   -0.96036  -0.73817  -0.69375  -0.63419  -0.61607
 Alpha  occ. eigenvalues --   -0.48269  -0.37611  -0.36999  -0.26620  -0.25555
 Alpha  occ. eigenvalues --   -0.02471
 Alpha virt. eigenvalues --    0.04193   0.05794   0.06098   0.06595   0.07785
 Alpha virt. eigenvalues --    0.08915   0.09979   0.11715   0.13855   0.15301
 Alpha virt. eigenvalues --    0.16911   0.17695   0.19079   0.20021   0.21093

 Mulliken charges:
               1
     1  N    0.195218
     2  P    2.157818
     3  N   -1.591576
     4  N   -1.557219
     5  H    0.603609
     6  H    0.642116
     7  H    0.641199
     8  H    0.721155
     9  H   -0.915950
    10  H   -0.896370
 Sum of Mulliken charges =   0.00000

 Dipole moment (field-independent basis, Debye):
    X=              0.4284    Y=             -1.9247    Z=             -0.8154  Tot=              2.1337

 Test job not archived.
 1\1\GINC-SE361\SP\RHF\Aug-CC-pVDZ\H6N3P1\OHZDE\08-Apr-2025\0\\#t hf au
 g-cc-pvdz iop(5/13=1,5/36=2,99/5=2) pseudo=read geom=check guess=(read
 ,tcheck) scf=(maxcycle=1)\\title\\0,1\N,0,0.388781,0.003226,-0.303055\
 P,0,-1.313724,-0.167939,-0.022612\N,0,1.077007,-1.187778,0.047911\N,0,
 1.081567,1.189233,0.083346\H,0,0.680321,1.573951,0.940514\H,0,0.963834
 ,1.88053,-0.650906\H,0,1.426405,-1.114529,1.004248\H,0,1.88815,-1.2621
 45,-0.559276\H,0,-1.672158,1.109515,-0.530313\H,0,-1.412178,0.298994,1
 .33749\\Version=ES64L-G16RevC.01\State=1-A\HF=-508.4928504\RMSD=2.056e

 Normal termination of Gaussian 16 at Tue Apr  8 23:39:11 2025.
