 Gaussian 16, Revision C.01,

 ----------------------------------------------------------------------
 #t hf aug-cc-pvdz symm=none int=(grid=ultrafine) guess=(read,tcheck) s
 table=(opt,rrhf)
 ----------------------------------------------------------------------
 -----
 title
 -----
 Symbolic Z-matrix:
 Charge =  0 Multiplicity = 1

 SCF Done:  E(RHF) =  -1084.66009994     A.U. after   14 cycles
 Normal termination of Gaussian 16 at Tue Apr  8 23:56:21 2025.
 Gaussian 16:  ES64L-G16RevC.01  3-Jul-2019

 ----------------------------------------------------------------------
 #t hf aug-cc-pvdz iop(5/13=1,5/36=2,99/5=2) pseudo=read geom=check gue
 ss=(read,tcheck) scf=(maxcycle=1)
 ----------------------------------------------------------------------
 -----
 title
 -----
 Structure from the checkpoint file:  "BDE49_nonexpt_1983_mol1.chk"
 Charge =  0 Multiplicity = 1

                         Standard orientation:
 ---------------------------------------------------------------------
 Center     Atomic      Atomic             Coordinates (Angstroms)
 Number     Number       Type             X           Y           Z
 ---------------------------------------------------------------------
      1         14           0        0.355480    0.457678    0.479615
      2          6           0       -1.237313   -0.248412   -0.167093
      3         17           0        1.913003   -0.753762   -0.166680
      4          9           0        0.550927    1.898899   -0.210647
      5          9           0       -1.558123   -1.500735    0.077836
      6          9           0       -2.334348    0.479274   -0.187023
 ---------------------------------------------------------------------

 SCF Done:  E(RHF) =  -1086.22105369     A.U. after    2 cycles

 The electronic state is 1-A.
 Alpha  occ. eigenvalues --  -99.90823 -76.31090 -29.36853 -29.36803 -29.29426
 Alpha  occ. eigenvalues --  -11.56807 -10.48206  -9.68050  -9.67422  -9.67340
 Alpha  occ. eigenvalues --   -5.65538  -2.29816  -2.27559  -2.23817  -1.32453
 Alpha  occ. eigenvalues --   -1.30251  -0.89619  -0.86803  -0.70973  -0.62260
 Alpha  occ. eigenvalues --   -0.60261  -0.55707  -0.55333  -0.49883  -0.44605
 Alpha  occ. eigenvalues --   -0.40808  -0.38964  -0.36553  -0.34873  -0.32175
 Alpha  occ. eigenvalues --   -0.28338  -0.21767
 Alpha virt. eigenvalues --    0.03440   0.05961   0.06668   0.08187   0.08772
 Alpha virt. eigenvalues --    0.11162   0.12342   0.13780   0.14720   0.15406
 Alpha virt. eigenvalues --    0.16167   0.16713   0.18033   0.20441   0.21487

 Mulliken charges:
               1
     1  Si   2.135911
     2  C   -1.813997
     3  Cl  -0.810670
     4  F   -0.705594
     5  F    0.553901
     6  F    0.640450
 Sum of Mulliken charges =  -0.00000

 Dipole moment (field-independent basis, Debye):
    X=             -5.6458    Y=              1.4394    Z=             -1.2978  Tot=              5.9692

 Test job not archived.
 1\1\GINC-SE094\SP\RHF\Aug-CC-pVDZ\C1Cl1F3Si1\OHZDE\08-Apr-2025\0\\#t h
 f aug-cc-pvdz iop(5/13=1,5/36=2,99/5=2) pseudo=read geom=check guess=(
 read,tcheck) scf=(maxcycle=1)\\title\\0,1\Si,0,0.35548,0.457678,0.4796
 15\C,0,-1.237313,-0.248412,-0.167093\Cl,0,1.913003,-0.753762,-0.16668\
 F,0,0.550927,1.898899,-0.210647\F,0,-1.558123,-1.500735,0.077836\F,0,-
 2.334348,0.479274,-0.187023\\Version=ES64L-G16RevC.01\State=1-A\HF=-10
 86.2210537\RMSD=4.394e-02\Dipole=-2.2212345,0.5663023,-0.5106093\Quadr
 upole=3.0113758,2.5957563,-5.607132,2.7089063,0.6845712,-0.6469555\PG=

 Normal termination of Gaussian 16 at Tue Apr  8 23:56:23 2025.
