 Gaussian 16, Revision C.01,

 ----------------------------------------------------------------------
 #t hf aug-cc-pvdz symm=none int=(grid=ultrafine) guess=(read,tcheck) s
 table=opt
 ----------------------------------------------------------------------
 -----
 title
 -----
 Symbolic Z-matrix:
 Charge =  0 Multiplicity = 2

 SCF Done:  E(UHF) =  -501.606720830     A.U. after   17 cycles

 1\1\GINC-SE454\Stability\UHF\Aug-CC-pVDZ\C9H19O2\OHZDE\08-Apr-2025\0\\
 #t hf aug-cc-pvdz symm=none int=(grid=ultrafine) guess=(read,tcheck) s
 table=opt\\title\\0,2\C,0,0.186495,-1.394159,0.072958\O,0,1.313133,-1.
 318711,-0.679372\O,0,-0.836031,-0.586186,-0.367457\H,0,-0.086896,-2.43
 1456,0.279977\C,0,1.897482,-0.012386,-0.843964\C,0,-2.026195,-0.671225
 ,0.418368\C,0,-3.117621,0.180642,-0.223817\H,0,-1.816999,-0.328171,1.4
 40841\H,0,-2.348767,-1.72062,0.474028\C,0,-2.718696,1.659745,-0.284502
 \H,0,-2.587366,2.068852,0.723446\H,0,-3.490091,2.250598,-0.786226\H,0,

 Normal termination of Gaussian 16 at Tue Apr  8 23:08:00 2025.
 Gaussian 16:  ES64L-G16RevC.01  3-Jul-2019

 ----------------------------------------------------------------------
 #t hf aug-cc-pvdz iop(5/13=1,5/36=2,99/5=2) pseudo=read geom=check gue
 ss=(read,tcheck) scf=(maxcycle=1)
 ----------------------------------------------------------------------
 -----
 title
 -----
 Structure from the checkpoint file:  "BDE49_expt_193_mol2.chk"
 Charge =  0 Multiplicity = 2

                         Standard orientation:
 ---------------------------------------------------------------------
 Center     Atomic      Atomic             Coordinates (Angstroms)
 Number     Number       Type             X           Y           Z
 ---------------------------------------------------------------------
      1          6           0        0.186495   -1.394159    0.072958
      2          8           0        1.313133   -1.318711   -0.679372
      3          8           0       -0.836031   -0.586186   -0.367457
      4          1           0       -0.086896   -2.431456    0.279977
      5          6           0        1.897482   -0.012386   -0.843964
      6          6           0       -2.026195   -0.671225    0.418368
      7          6           0       -3.117621    0.180642   -0.223817
      8          1           0       -1.816999   -0.328171    1.440841
      9          1           0       -2.348767   -1.720620    0.474028
     10          6           0       -2.718696    1.659745   -0.284502
     11          1           0       -2.587366    2.068852    0.723446
     12          1           0       -3.490091    2.250598   -0.786226
     13          1           0       -1.781517    1.791300   -0.827539
     14          6           0       -4.440555   -0.016744    0.527979
     15          1           0       -3.243564   -0.186001   -1.249785
     16          1           0       -4.356657    0.316005    1.568116
     17          1           0       -4.749007   -1.066346    0.535366
     18          1           0       -5.241239    0.562101    0.060775
     19          6           0        2.720811    0.418685    0.373710
     20          1           0        1.111042    0.714330   -1.059781
     21          1           0        2.536997   -0.103177   -1.725895
     22          6           0        3.232511    1.850624    0.171578
     23          1           0        3.891472    1.913921   -0.701479
     24          1           0        3.805333    2.186038    1.040261
     25          1           0        2.409817    2.556080    0.021610
     26          6           0        3.866668   -0.560296    0.651981
     27          1           0        2.042215    0.411386    1.235775
     28          1           0        4.400927   -0.289718    1.567131
     29          1           0        4.590469   -0.556009   -0.170873
     30          1           0        3.491612   -1.579266    0.763136
 ---------------------------------------------------------------------

 SCF Done:  E(UHF) =  -504.014570553     A.U. after    2 cycles

 The electronic state is 2-A.
 Alpha  occ. eigenvalues --  -21.05773 -21.05527 -11.44989 -11.44337 -11.43140
 Alpha  occ. eigenvalues --  -11.40616 -11.40004 -11.38343 -11.37905 -11.35189
 Alpha  occ. eigenvalues --  -11.34528  -1.82952  -1.70415  -1.23945  -1.22924
 Alpha  occ. eigenvalues --   -1.01588  -1.00138  -0.99626  -0.96901  -0.86328
 Alpha  occ. eigenvalues --   -0.81523  -0.79533  -0.68965  -0.65316  -0.62865
 Alpha  occ. eigenvalues --   -0.62098  -0.61426  -0.59639  -0.58755  -0.55876
 Alpha  occ. eigenvalues --   -0.53871  -0.53273  -0.52893  -0.52469  -0.51456
 Alpha  occ. eigenvalues --   -0.47123  -0.45831  -0.45390  -0.44778  -0.44168
 Alpha  occ. eigenvalues --   -0.43062  -0.39765  -0.36666  -0.31352  -0.21923
 Alpha virt. eigenvalues --    0.04005   0.04386   0.04845   0.05045   0.05190
 Alpha virt. eigenvalues --    0.05503   0.06038   0.06377   0.06382   0.06650
 Alpha virt. eigenvalues --    0.06949   0.07185   0.07289   0.07866   0.08954

  Beta  occ. eigenvalues --  -21.05299 -21.05148 -11.44953 -11.44325 -11.40954
  Beta  occ. eigenvalues --  -11.40538 -11.39991 -11.38342 -11.37907 -11.35191
  Beta  occ. eigenvalues --  -11.34519  -1.81390  -1.69413  -1.23834  -1.22859
  Beta  occ. eigenvalues --   -1.00262  -1.00046  -0.99625  -0.96811  -0.83288
  Beta  occ. eigenvalues --   -0.81446  -0.78083  -0.68009  -0.65205  -0.62010
  Beta  occ. eigenvalues --   -0.61545  -0.60391  -0.59464  -0.57686  -0.54874
  Beta  occ. eigenvalues --   -0.53713  -0.52991  -0.52675  -0.52225  -0.48246
  Beta  occ. eigenvalues --   -0.46058  -0.45602  -0.44917  -0.44329  -0.43093
  Beta  occ. eigenvalues --   -0.41512  -0.38309  -0.35411  -0.29414
  Beta virt. eigenvalues --    0.04017   0.04312   0.04844   0.05037   0.05125
  Beta virt. eigenvalues --    0.05488   0.06041   0.06358   0.06399   0.06658
  Beta virt. eigenvalues --    0.06953   0.07190   0.07285   0.07860   0.08959

 Mulliken charges and spin densities:
               1          2
     1  C    1.589741   1.160852
     2  O   -3.376689  -0.095750
     3  O   -3.657270   0.044067
     4  H    1.914056   0.035312
     5  C   -1.958530  -0.066518
     6  C   -1.005110  -0.017416
     7  C   -2.602370   0.000545
     8  H    1.911896  -0.039241
     9  H    1.742490   0.008884
    10  C   -3.902933  -0.007791
    11  H    1.352575  -0.000754
    12  H    1.209156  -0.000386
    13  H    1.571317  -0.001585
    14  C   -3.928562  -0.005612
    15  H    1.915422   0.009524
    16  H    1.313147   0.001760
    17  H    1.279806  -0.000654
    18  H    1.262854  -0.000186
    19  C   -1.852599  -0.012463
    20  H    2.135020  -0.016264
    21  H    1.380541   0.020869
    22  C   -4.328947  -0.009546
    23  H    1.273907  -0.000230
    24  H    1.228252  -0.000130
    25  H    1.332301   0.000127
    26  C   -3.858157   0.002101
    27  H    2.079521  -0.004264
    28  H    1.242646   0.002363
    29  H    1.353927   0.000141
    30  H    1.382595  -0.007754
 Sum of Mulliken charges =  -0.00000   1.00000

 Dipole moment (field-independent basis, Debye):
    X=             -0.6735    Y=              0.4621    Z=             -0.2549  Tot=              0.8556
                          Isotropic Fermi Contact Couplings
        Atom                 a.u.       MegaHertz       Gauss      10(-4) cm-1
     1  C(13)              0.18848     211.88820      75.60698      70.67829
     2  O(17)              0.02612     -15.83429      -5.65007      -5.28175
     3  O(17)              0.04305     -26.09771      -9.31231      -8.70526
     4  H(1)              -0.00201      -8.99736      -3.21048      -3.00120
     5  C(13)              0.00994      11.17765       3.98846       3.72846
     6  C(13)              0.00276       3.10317       1.10729       1.03511
     7  C(13)             -0.00121      -1.36425      -0.48680      -0.45507
     8  H(1)              -0.00019      -0.86258      -0.30779      -0.28772

 Normal termination of Gaussian 16 at Tue Apr  8 23:08:26 2025.
