 Gaussian 16, Revision C.01,

 ----------------------------------------------------------------------
 #t hf aug-cc-pvdz symm=none int=(grid=ultrafine) guess=(read,tcheck) s
 table=(opt,rrhf)
 ----------------------------------------------------------------------
 -----
 title
 -----
 Symbolic Z-matrix:
 Charge =  0 Multiplicity = 1

 SCF Done:  E(RHF) =  -763.659563761     A.U. after   13 cycles
 Normal termination of Gaussian 16 at Wed Apr  9 00:07:26 2025.
 Gaussian 16:  ES64L-G16RevC.01  3-Jul-2019

 ----------------------------------------------------------------------
 #t hf aug-cc-pvdz iop(5/13=1,5/36=2,99/5=2) pseudo=read geom=check gue
 ss=(read,tcheck) scf=(maxcycle=1)
 ----------------------------------------------------------------------
 -----
 title
 -----
 Structure from the checkpoint file:  "BDE49_nonexpt_2264_mol1.chk"
 Charge =  0 Multiplicity = 1

                         Standard orientation:
 ---------------------------------------------------------------------
 Center     Atomic      Atomic             Coordinates (Angstroms)
 Number     Number       Type             X           Y           Z
 ---------------------------------------------------------------------
      1         16           0       -1.478156   -0.135459   -0.091597
      2          8           0       -0.015999    0.707189    0.042409
      3          1           0       -1.680220   -0.361693    1.223684
      4         14           0        1.424233   -0.145359   -0.004458
      5          1           0        2.468595    0.894711    0.068646
      6          1           0        1.536767   -0.923778   -1.256331
      7          1           0        1.514093   -1.064389    1.152691
 ---------------------------------------------------------------------

 SCF Done:  E(RHF) =  -764.367771828     A.U. after    2 cycles

 The electronic state is 1-A.
 Alpha  occ. eigenvalues --  -76.24741 -75.74512 -21.07496 -13.20117 -13.13321
 Alpha  occ. eigenvalues --  -13.08370  -8.07878  -5.58251  -2.24316  -2.20037
 Alpha  occ. eigenvalues --   -2.19772  -1.71620  -1.06202  -0.76350  -0.57317
 Alpha  occ. eigenvalues --   -0.51952  -0.50305  -0.47229  -0.43576  -0.36957
 Alpha  occ. eigenvalues --   -0.23553
 Alpha virt. eigenvalues --    0.03234   0.04499   0.05933   0.06204   0.07481
 Alpha virt. eigenvalues --    0.09079   0.09650   0.10660   0.11671   0.13568
 Alpha virt. eigenvalues --    0.15408   0.16045   0.17471   0.18254   0.19151

 Mulliken charges:
               1
     1  S   -0.173424
     2  O   -2.286256
     3  H    0.948220
     4  Si   6.409124
     5  H   -1.573889
     6  H   -1.665708
     7  H   -1.658066
 Sum of Mulliken charges =  -0.00000

 Dipole moment (field-independent basis, Debye):
    X=             -0.6135    Y=              0.3521    Z=             -0.8423  Tot=              1.0999

 Test job not archived.
 1\1\GINC-SE080\SP\RHF\Aug-CC-pVDZ\H4O1S1Si1\OHZDE\09-Apr-2025\0\\#t hf
  aug-cc-pvdz iop(5/13=1,5/36=2,99/5=2) pseudo=read geom=check guess=(r
 ead,tcheck) scf=(maxcycle=1)\\title\\0,1\S,0,-1.478156,-0.135459,-0.09
 1597\O,0,-0.015999,0.707189,0.042409\H,0,-1.68022,-0.361693,1.223684\S
 i,0,1.424233,-0.145359,-0.004458\H,0,2.468595,0.894711,0.068646\H,0,1.
 536767,-0.923778,-1.256331\H,0,1.514093,-1.064389,1.152691\\Version=ES
 64L-G16RevC.01\State=1-A\HF=-764.3677718\RMSD=9.076e-02\Dipole=-0.2413
 594,0.1385072,-0.3313992\Quadrupole=1.666083,-2.1912009,0.5251179,0.72

 Normal termination of Gaussian 16 at Wed Apr  9 00:07:28 2025.
