 Gaussian 16, Revision C.01,

 ----------------------------------------------------------------------
 #t hf aug-cc-pvdz symm=none int=(grid=ultrafine) guess=(read,tcheck) s
 table=(opt,rrhf)
 ----------------------------------------------------------------------
 -----
 title
 -----
 Symbolic Z-matrix:
 Charge =  0 Multiplicity = 1

 SCF Done:  E(RHF) =  -1087.17704865     A.U. after   17 cycles
 Normal termination of Gaussian 16 at Tue Apr  8 23:16:21 2025.
 Gaussian 16:  ES64L-G16RevC.01  3-Jul-2019

 ----------------------------------------------------------------------
 #t hf aug-cc-pvdz iop(5/13=1,5/36=2,99/5=2) pseudo=read geom=check gue
 ss=(read,tcheck) scf=(maxcycle=1)
 ----------------------------------------------------------------------
 -----
 title
 -----
 Structure from the checkpoint file:  "BDE49_expt_851_mol1.chk"
 Charge =  0 Multiplicity = 1

                         Standard orientation:
 ---------------------------------------------------------------------
 Center     Atomic      Atomic             Coordinates (Angstroms)
 Number     Number       Type             X           Y           Z
 ---------------------------------------------------------------------
      1          6           0        2.423258    0.623939    0.000005
      2          6           0        1.241623    1.354255    0.000006
      3          6           0        0.013689    0.696881    0.000002
      4          6           0        2.370120   -0.769023    0.000000
      5          6           0        1.144710   -1.419597   -0.000004
      6          6           0       -0.061160   -0.702660   -0.000002
      7          1           0        3.374988    1.141026    0.000007
      8          1           0        1.257407    2.436558    0.000009
      9         17           0       -1.439150    1.688029    0.000004
     10          1           0        3.283698   -1.351666   -0.000001
     11          1           0        1.108414   -2.503148   -0.000008
     12         16           0       -1.558802   -1.656323   -0.000007
     13          1           0       -2.411553   -0.620881   -0.000008
 ---------------------------------------------------------------------

 SCF Done:  E(RHF) =  -1088.74567599     A.U. after    2 cycles

 The electronic state is 1-A.
 Alpha  occ. eigenvalues --  -99.90406 -75.70634 -13.18942 -13.15816 -13.02496
 Alpha  occ. eigenvalues --  -11.53160 -11.47186 -11.46401 -11.43520 -11.42701
 Alpha  occ. eigenvalues --  -11.38590 -10.47765  -9.67768  -9.67083  -9.66725
 Alpha  occ. eigenvalues --   -8.04681  -1.41993  -1.29301  -1.18541  -1.09650
 Alpha  occ. eigenvalues --   -1.04645  -0.88646  -0.85976  -0.72277  -0.66488
 Alpha  occ. eigenvalues --   -0.63987  -0.60540  -0.58584  -0.57048  -0.52587
 Alpha  occ. eigenvalues --   -0.50502  -0.48220  -0.45782  -0.40704  -0.38788
 Alpha  occ. eigenvalues --   -0.34657  -0.23565
 Alpha virt. eigenvalues --    0.02846   0.04462   0.05121   0.05552   0.05942
 Alpha virt. eigenvalues --    0.08765   0.09158   0.09204   0.09770   0.11345
 Alpha virt. eigenvalues --    0.12118   0.12717   0.13549   0.13584   0.14171

 Mulliken charges:
               1
     1  C   -0.972348
     2  C   -1.286888
     3  C   -1.830298
     4  C   -2.319821
     5  C   -2.912128
     6  C    3.211673
     7  H    1.527146
     8  H    1.735778
     9  Cl  -0.974237
    10  H    1.532033
    11  H    1.710994
    12  S   -0.437005
    13  H    1.015099
 Sum of Mulliken charges =   0.00000

 Dipole moment (field-independent basis, Debye):
    X=              1.7555    Y=             -2.4909    Z=             -0.0000  Tot=              3.0473

 Test job not archived.
 1\1\GINC-SE368\SP\RHF\Aug-CC-pVDZ\C6H5Cl1S1\OHZDE\08-Apr-2025\0\\#t hf
  aug-cc-pvdz iop(5/13=1,5/36=2,99/5=2) pseudo=read geom=check guess=(r
 ead,tcheck) scf=(maxcycle=1)\\title\\0,1\C,0,2.423258,0.62394,0.000005
 \C,0,1.241623,1.354255,0.000006\C,0,0.013689,0.696881,0.000002\C,0,2.3
 7012,-0.769022,0.\C,0,1.14471,-1.419597,-0.000004\C,0,-0.06116,-0.7026
 6,-0.000002\H,0,3.374988,1.141027,0.000007\H,0,1.257406,2.436558,0.000
 009\Cl,0,-1.439151,1.688029,0.000004\H,0,3.283698,-1.351665,-0.000001\
 H,0,1.108415,-2.503148,-0.000008\S,0,-1.558802,-1.656323,-0.000007\H,0

 Normal termination of Gaussian 16 at Tue Apr  8 23:16:25 2025.
