 Gaussian 16, Revision C.01,

 ----------------------------------------------------------------------
 #t hf aug-cc-pvdz symm=none int=(grid=ultrafine) guess=(read,tcheck) s
 table=(opt,rrhf)
 ----------------------------------------------------------------------
 -----
 title
 -----
 Symbolic Z-matrix:
 Charge =  0 Multiplicity = 1

 SCF Done:  E(RHF) =  -901.765051012     A.U. after   16 cycles
 Normal termination of Gaussian 16 at Wed Apr  9 00:02:57 2025.
 Gaussian 16:  ES64L-G16RevC.01  3-Jul-2019

 ----------------------------------------------------------------------
 #t hf aug-cc-pvdz iop(5/13=1,5/36=2,99/5=2) pseudo=read geom=check gue
 ss=(read,tcheck) scf=(maxcycle=1)
 ----------------------------------------------------------------------
 -----
 title
 -----
 Structure from the checkpoint file:  "BDE49_nonexpt_2157_mol1.chk"
 Charge =  0 Multiplicity = 1

                         Standard orientation:
 ---------------------------------------------------------------------
 Center     Atomic      Atomic             Coordinates (Angstroms)
 Number     Number       Type             X           Y           Z
 ---------------------------------------------------------------------
      1         14           0       -0.000005    0.000001   -0.636792
      2          7           0        1.442042   -0.908666    0.052303
      3          7           0        0.065876    1.703176    0.052347
      4          7           0       -1.507946   -0.794525    0.052328
      5          8           0       -2.479478   -0.271499   -0.502635
      6          8           0       -0.659749    2.149089    0.915173
      7          8           0        1.474727   -2.011600   -0.502577
      8          8           0        1.004870    2.282880   -0.502324
      9          8           0        2.190979   -0.503266    0.915195
     10          8           0       -1.531315   -1.645594    0.915449
     11          1           0       -0.000005    0.000023   -2.090003
 ---------------------------------------------------------------------

 SCF Done:  E(RHF) =  -904.436016385     A.U. after    2 cycles

 The electronic state is 1-A.
 Alpha  occ. eigenvalues --  -76.41696 -21.16310 -21.16288 -21.16288 -21.15203
 Alpha  occ. eigenvalues --  -21.15203 -21.15191 -16.03111 -16.03111 -16.03094
 Alpha  occ. eigenvalues --   -5.75387  -2.39938  -2.39938  -2.37963  -2.03812
 Alpha  occ. eigenvalues --   -2.03402  -2.03402  -1.74836  -1.74836  -1.74616
 Alpha  occ. eigenvalues --   -1.14224  -1.02286  -1.02285  -0.81410  -0.75963
 Alpha  occ. eigenvalues --   -0.75962  -0.73023  -0.70864  -0.70864  -0.66188
 Alpha  occ. eigenvalues --   -0.65902  -0.65902  -0.63618  -0.41785  -0.40312
 Alpha  occ. eigenvalues --   -0.40311  -0.37652  -0.37268  -0.35669  -0.35669
 Alpha  occ. eigenvalues --   -0.35359  -0.35359
 Alpha virt. eigenvalues --    0.03446   0.05826   0.05826   0.06055   0.06292
 Alpha virt. eigenvalues --    0.06292   0.08176   0.10437   0.13510   0.13511
 Alpha virt. eigenvalues --    0.13793   0.14977   0.14977   0.16241   0.16241

 Mulliken charges:
               1
     1  Si   5.059233
     2  N    3.440690
     3  N    3.440670
     4  N    3.440564
     5  O   -2.226080
     6  O   -2.289079
     7  O   -2.226124
     8  O   -2.226144
     9  O   -2.289115
    10  O   -2.289083
    11  H   -1.835531
 Sum of Mulliken charges =  -0.00000

 Dipole moment (field-independent basis, Debye):
    X=              0.0002    Y=              0.0002    Z=             -1.1332  Tot=              1.1332

 Test job not archived.
 1\1\GINC-SE073\SP\RHF\Aug-CC-pVDZ\H1N3O6Si1\OHZDE\09-Apr-2025\0\\#t hf
  aug-cc-pvdz iop(5/13=1,5/36=2,99/5=2) pseudo=read geom=check guess=(r
 ead,tcheck) scf=(maxcycle=1)\\title\\0,1\Si,0,0.000005,-0.000001,-0.63
 6792\N,0,-1.44277,0.907509,0.052303\N,0,-0.06451,-1.703228,0.052347\N,
 0,1.507308,0.795734,0.052328\O,0,2.47926,0.273487,-0.502635\O,0,0.6614
 72,-2.148559,0.915173\O,0,-1.476339,2.010417,-0.502577\O,0,-1.003039,-
 2.283685,-0.502324\O,0,-2.191382,0.501509,0.915195\O,0,1.529995,1.6468
 21,0.915449\H,0,0.000005,-0.000023,-2.090003\\Version=ES64L-G16RevC.01

 Normal termination of Gaussian 16 at Wed Apr  9 00:03:04 2025.
