 Gaussian 16, Revision C.01,

 ----------------------------------------------------------------------
 #t hf aug-cc-pvdz symm=none int=(grid=ultrafine) guess=(read,tcheck) s
 table=(opt,rrhf)
 ----------------------------------------------------------------------
 -----
 title
 -----
 Symbolic Z-matrix:
 Charge =  0 Multiplicity = 1

 SCF Done:  E(RHF) =  -1005.78373759     A.U. after   17 cycles
 Normal termination of Gaussian 16 at Tue Apr  8 23:21:06 2025.
 Gaussian 16:  ES64L-G16RevC.01  3-Jul-2019

 ----------------------------------------------------------------------
 #t hf aug-cc-pvdz iop(5/13=1,5/36=2,99/5=2) pseudo=read geom=check gue
 ss=(read,tcheck) scf=(maxcycle=1)
 ----------------------------------------------------------------------
 -----
 title
 -----
 Structure from the checkpoint file:  "BDE49_expt_418_mol1.chk"
 Charge =  0 Multiplicity = 1

                         Standard orientation:
 ---------------------------------------------------------------------
 Center     Atomic      Atomic             Coordinates (Angstroms)
 Number     Number       Type             X           Y           Z
 ---------------------------------------------------------------------
      1          6           0       -2.471532   -0.534608    1.022673
      2          6           0       -3.086328   -1.732450    0.676249
      3          6           0       -2.840823   -2.314987   -0.565497
      4          6           0       -1.985045   -1.678155   -1.461019
      5          6           0       -1.376173   -0.471161   -1.130439
      6          6           0       -1.611876    0.103736    0.121548
      7          7           0       -1.062706    1.354319    0.513057
      8          6           0       -0.000023    2.051231    0.000001
      9          7           0        1.062674    1.354342   -0.513056
     10          6           0        1.611872    0.103772   -0.121547
     11          6           0        1.376187   -0.471129    1.130442
     12          6           0        1.985090   -1.678109    1.461021
     13          6           0        2.840878   -2.314923    0.565497
     14          6           0        3.086365   -1.732381   -0.676252
     15          6           0        2.471539   -0.534554   -1.022675
     16          1           0       -3.752709   -2.213973    1.382774
     17          1           0       -3.313624   -3.252416   -0.833192
     18          1           0       -2.651833   -0.088098    1.994803
     19          1           0       -1.794585   -2.116205   -2.434153
     20          1           0       -0.730982    0.025014   -1.842214
     21          1           0       -1.704908    1.970338    0.991803
     22          1           0        1.704861    1.970375   -0.991804
     23         16           0       -0.000043    3.725753   -0.000002
     24          1           0        2.651826   -0.088042   -1.994806
     25          1           0        3.313700   -3.252341    0.833191
     26          1           0        3.752753   -2.213891   -1.382779
     27          1           0        0.730989    0.025032    1.842219
     28          1           0        1.794643   -2.116161    2.434157
 ---------------------------------------------------------------------

 SCF Done:  E(RHF) =  -1008.90345335     A.U. after    2 cycles

 The electronic state is 1-A.
 Alpha  occ. eigenvalues --  -75.62945 -15.79210 -15.79130 -13.12594 -12.99876
 Alpha  occ. eigenvalues --  -12.95871 -11.54760 -11.54567 -11.51865 -11.47361
 Alpha  occ. eigenvalues --  -11.47251 -11.44795 -11.44538 -11.42245 -11.42121
 Alpha  occ. eigenvalues --  -11.41985 -11.41905 -11.37752 -11.37727  -7.97066
 Alpha  occ. eigenvalues --   -1.53240  -1.42092  -1.33051  -1.29316  -1.14522
 Alpha  occ. eigenvalues --   -1.10708  -1.10692  -1.07835  -1.04263  -0.90861
 Alpha  occ. eigenvalues --   -0.88408  -0.87829  -0.87609  -0.81433  -0.73930
 Alpha  occ. eigenvalues --   -0.73853  -0.69192  -0.68507  -0.65064  -0.62380
 Alpha  occ. eigenvalues --   -0.61760  -0.59909  -0.59469  -0.58180  -0.58077
 Alpha  occ. eigenvalues --   -0.54401  -0.54210  -0.49832  -0.49747  -0.48026
 Alpha  occ. eigenvalues --   -0.47175  -0.45624  -0.45376  -0.40928  -0.34917
 Alpha  occ. eigenvalues --   -0.34287  -0.33106  -0.30127  -0.23749  -0.21369
 Alpha virt. eigenvalues --    0.02789   0.04155   0.04360   0.04687   0.05083
 Alpha virt. eigenvalues --    0.05441   0.06126   0.06263   0.07109   0.07318
 Alpha virt. eigenvalues --    0.07665   0.07969   0.08878   0.08888   0.10207

 Mulliken charges:
               1
     1  C   -3.203496
     2  C   -0.297113
     3  C   -3.005148
     4  C   -0.551460
     5  C   -3.058067
     6  C    5.006248
     7  N   -4.567210
     8  C   -0.837023
     9  N   -4.567212
    10  C    5.006276
    11  C   -3.058084
    12  C   -0.551408
    13  C   -3.005169
    14  C   -0.297135
    15  C   -3.203499
    16  H    1.579500
    17  H    1.600678
    18  H    1.791232
    19  H    1.580156
    20  H    2.203195
    21  H    0.700399
    22  H    0.700398
    23  S    1.279187
    24  H    1.791233
    25  H    1.600679
    26  H    1.579499
    27  H    2.203187
    28  H    1.580155
 Sum of Mulliken charges =   0.00000

 Dipole moment (field-independent basis, Debye):
    X=              0.0000    Y=             -2.4596    Z=             -0.0000  Tot=              2.4596

 Test job not archived.
 1\1\GINC-SE219\SP\RHF\Aug-CC-pVDZ\C13H12N2S1\OHZDE\08-Apr-2025\0\\#t h
 f aug-cc-pvdz iop(5/13=1,5/36=2,99/5=2) pseudo=read geom=check guess=(
 read,tcheck) scf=(maxcycle=1)\\title\\0,1\C,0,-2.471531,-0.534611,1.02
 2673\C,0,-3.086326,-1.732454,0.676249\C,0,-2.84082,-2.314991,-0.565497
 \C,0,-1.985043,-1.678158,-1.461019\C,0,-1.376172,-0.471163,-1.130439\C
 ,0,-1.611876,0.103734,0.121548\N,0,-1.062708,1.354318,0.513057\C,0,-0.
 000026,2.051231,0.000001\N,0,1.062672,1.354344,-0.513056\C,0,1.611872,
 0.103774,-0.121547\C,0,1.376188,-0.471127,1.130442\C,0,1.985092,-1.678

 Normal termination of Gaussian 16 at Tue Apr  8 23:21:44 2025.
