 Gaussian 16, Revision C.01,

 ----------------------------------------------------------------------
 #t hf aug-cc-pvdz symm=none int=(grid=ultrafine) guess=(read,tcheck) s
 table=(opt,rrhf)
 ----------------------------------------------------------------------
 -----
 title
 -----
 Symbolic Z-matrix:
 Charge =  0 Multiplicity = 1

 SCF Done:  E(RHF) =  -986.268524206     A.U. after   15 cycles
 Normal termination of Gaussian 16 at Tue Apr  8 22:47:18 2025.
 Gaussian 16:  ES64L-G16RevC.01  3-Jul-2019

 ----------------------------------------------------------------------
 #t hf aug-cc-pvdz iop(5/13=1,5/36=2,99/5=2) pseudo=read geom=check gue
 ss=(read,tcheck) scf=(maxcycle=1)
 ----------------------------------------------------------------------
 -----
 title
 -----
 Structure from the checkpoint file:  "BDE49_expt_1534_mol1.chk"
 Charge =  0 Multiplicity = 1

                         Standard orientation:
 ---------------------------------------------------------------------
 Center     Atomic      Atomic             Coordinates (Angstroms)
 Number     Number       Type             X           Y           Z
 ---------------------------------------------------------------------
      1          6           0       -0.644708   -0.037587    0.432491
      2          6           0        0.892916   -0.003296    0.671461
      3          7           0        1.742342    0.138464   -0.627965
      4          8           0        2.671184   -0.615141   -0.753847
      5          8           0        1.392781    1.054915   -1.343970
      6          9           0        1.247559   -1.120787    1.293798
      7          7           0       -1.053002   -1.318224   -0.319909
      8          7           0       -1.193244    1.181821   -0.387024
      9          8           0       -0.266436   -1.680948   -1.171161
     10          8           0       -2.103669   -1.811128    0.003945
     11          8           0       -1.183851    2.219771    0.228068
     12          8           0       -1.600772    0.952202   -1.499553
     13          9           0        1.196894    1.052062    1.426552
     14          9           0       -1.248433   -0.011996    1.614398
 ---------------------------------------------------------------------

 SCF Done:  E(RHF) =  -990.160608342     A.U. after    2 cycles

 The electronic state is 1-A.
 Alpha  occ. eigenvalues --  -29.40278 -29.39459 -29.39216 -21.17604 -21.16922
 Alpha  occ. eigenvalues --  -21.16867 -21.16737 -21.16658 -21.15769 -16.07814
 Alpha  occ. eigenvalues --  -16.07689 -16.06551 -11.72982 -11.64573  -2.08543
 Alpha  occ. eigenvalues --   -2.06707  -2.06346  -1.77893  -1.77524  -1.76892
 Alpha  occ. eigenvalues --   -1.51616  -1.34859  -1.09277  -1.07977  -0.98476
 Alpha  occ. eigenvalues --   -0.95168  -0.91590  -0.81979  -0.80122  -0.79370
 Alpha  occ. eigenvalues --   -0.72503  -0.71693  -0.70818  -0.66996  -0.66573
 Alpha  occ. eigenvalues --   -0.65624  -0.55097  -0.52695  -0.50529  -0.48696
 Alpha  occ. eigenvalues --   -0.47938  -0.45041  -0.44122  -0.41778  -0.39540
 Alpha  occ. eigenvalues --   -0.38737  -0.38019  -0.37186  -0.36017  -0.35324
 Alpha  occ. eigenvalues --   -0.34470  -0.33574  -0.32312  -0.30241
 Alpha virt. eigenvalues --    0.07343   0.08301   0.08840   0.09032   0.09790
 Alpha virt. eigenvalues --    0.10564   0.10967   0.11524   0.12401   0.12863
 Alpha virt. eigenvalues --    0.14557   0.14918   0.16076   0.16303   0.16687

 Mulliken charges:
               1
     1  C    1.639375
     2  C    1.020781
     3  N    4.773954
     4  O   -2.992350
     5  O   -3.239371
     6  F    0.673374
     7  N    4.403798
     8  N    4.554753
     9  O   -3.104593
    10  O   -2.898571
    11  O   -3.041803
    12  O   -2.929164
    13  F    0.384471
    14  F    0.755345
 Sum of Mulliken charges =  -0.00000

 Dipole moment (field-independent basis, Debye):
    X=              0.2649    Y=             -0.2382    Z=              6.1044  Tot=              6.1148

 Test job not archived.
 1\1\GINC-SE453\SP\RHF\Aug-CC-pVDZ\C2F3N3O6\OHZDE\08-Apr-2025\0\\#t hf
 aug-cc-pvdz iop(5/13=1,5/36=2,99/5=2) pseudo=read geom=check guess=(re
 ad,tcheck) scf=(maxcycle=1)\\title\\0,1\C,0,-0.644708,-0.037587,0.4324
 91\C,0,0.892916,-0.003296,0.671461\N,0,1.742342,0.138463,-0.627965\O,0
 ,2.671184,-0.615142,-0.753847\O,0,1.392781,1.054915,-1.34397\F,0,1.247
 559,-1.120787,1.293798\N,0,-1.053002,-1.318224,-0.319909\N,0,-1.193244
 ,1.181821,-0.387024\O,0,-0.266436,-1.680948,-1.171161\O,0,-2.10367,-1.
 811128,0.003945\O,0,-1.18385,2.219771,0.228068\O,0,-1.600772,0.952202,

 Normal termination of Gaussian 16 at Tue Apr  8 22:47:26 2025.
