 Gaussian 16, Revision C.01,

 ----------------------------------------------------------------------
 #t hf aug-cc-pvdz symm=none int=(grid=ultrafine) guess=(read,tcheck) s
 table=(opt,rrhf)
 ----------------------------------------------------------------------
 -----
 title
 -----
 Symbolic Z-matrix:
 Charge =  0 Multiplicity = 1

 SCF Done:  E(RHF) =  -574.411645678     A.U. after   13 cycles
 Normal termination of Gaussian 16 at Wed Apr  9 00:22:37 2025.
 Gaussian 16:  ES64L-G16RevC.01  3-Jul-2019

 ----------------------------------------------------------------------
 #t hf aug-cc-pvdz iop(5/13=1,5/36=2,99/5=2) pseudo=read geom=check gue
 ss=(read,tcheck) scf=(maxcycle=1)
 ----------------------------------------------------------------------
 -----
 title
 -----
 Structure from the checkpoint file:  "BDE49_nonexpt_2652_mol1.chk"
 Charge =  0 Multiplicity = 1

                         Standard orientation:
 ---------------------------------------------------------------------
 Center     Atomic      Atomic             Coordinates (Angstroms)
 Number     Number       Type             X           Y           Z
 ---------------------------------------------------------------------
      1          9           0        1.083707    1.047724   -0.000001
      2         16           0        0.768954   -0.584271    0.000000
      3          6           0       -0.974822   -0.563549    0.000000
      4          6           0       -1.772517    0.500680    0.000000
      5          1           0       -1.349095   -1.585910    0.000001
      6          1           0       -1.375956    1.506947   -0.000001
      7          1           0       -2.847544    0.374994    0.000000
 ---------------------------------------------------------------------

 SCF Done:  E(RHF) =  -575.348565715     A.U. after    2 cycles

 The electronic state is 1-A.
 Alpha  occ. eigenvalues --  -75.76959 -29.27903 -13.21145 -13.18040 -13.07309
 Alpha  occ. eigenvalues --  -11.44214 -11.39550  -8.11081  -1.28638  -1.09162
 Alpha  occ. eigenvalues --   -0.85397  -0.65923  -0.65531  -0.56687  -0.46954
 Alpha  occ. eigenvalues --   -0.46741  -0.36644  -0.34368  -0.29423  -0.18234
 Alpha virt. eigenvalues --    0.03151   0.04945   0.06769   0.07158   0.10097
 Alpha virt. eigenvalues --    0.11860   0.12416   0.13574   0.14611   0.15764
 Alpha virt. eigenvalues --    0.15842   0.16588   0.19610   0.20806   0.21782

 Mulliken charges:
               1
     1  F   -0.156693
     2  S    1.056683
     3  C   -2.408798
     4  C   -2.469285
     5  H    1.258849
     6  H    1.354683
     7  H    1.364561
 Sum of Mulliken charges =  -0.00000

 Dipole moment (field-independent basis, Debye):
    X=              1.6494    Y=              1.6782    Z=             -0.0000  Tot=              2.3530

 Test job not archived.
 1\1\GINC-SE049\SP\RHF\Aug-CC-pVDZ\C2H3F1S1\OHZDE\09-Apr-2025\0\\#t hf
 aug-cc-pvdz iop(5/13=1,5/36=2,99/5=2) pseudo=read geom=check guess=(re
 ad,tcheck) scf=(maxcycle=1)\\title\\0,1\F,0,1.083707,1.047723,-0.00000
 1\S,0,0.768954,-0.584271,0.\C,0,-0.974822,-0.563549,0.\C,0,-1.772517,0
 .500681,0.\H,0,-1.349096,-1.58591,0.000001\H,0,-1.375955,1.506947,-0.0
 00001\H,0,-2.847544,0.374995,0.\\Version=ES64L-G16RevC.01\State=1-A\HF
 =-575.3485657\RMSD=3.406e-01\Dipole=0.6489214,0.6602418,-0.0000004\Qua
 drupole=1.7799381,1.8821072,-3.6620453,1.4600273,-0.0000009,-0.0000041

 Normal termination of Gaussian 16 at Wed Apr  9 00:22:39 2025.
