 Gaussian 16, Revision C.01,

 ----------------------------------------------------------------------
 #t hf aug-cc-pvdz symm=none int=(grid=ultrafine) guess=(read,tcheck) s
 table=opt
 ----------------------------------------------------------------------
 -----
 title
 -----
 Symbolic Z-matrix:
 Charge =  0 Multiplicity = 2

 SCF Done:  E(UHF) =  -297.881560277     A.U. after   17 cycles

 1\1\GINC-SE339\Stability\UHF\Aug-CC-pVDZ\C7H14B1\OHZDE\09-Apr-2025\0\\
 #t hf aug-cc-pvdz symm=none int=(grid=ultrafine) guess=(read,tcheck) s
 table=opt\\title\\0,2\C,0,0.23287,-1.34514,0.162378\C,0,1.685676,-1.10
 8037,-0.274233\C,0,2.214177,0.241199,0.232415\C,0,1.295219,1.395236,-0
 .192131\C,0,-0.155849,1.150123,0.244001\C,0,-2.149314,-0.425823,0.2033
 14\C,0,-0.698962,-0.197021,-0.263812\B,0,-3.2693,0.49269,-0.321116\H,0
 ,-4.413542,0.528402,0.01325\H,0,0.194146,-1.445442,1.256114\H,0,-0.134
 248,-2.293121,-0.24759\H,0,1.740112,-1.127424,-1.370485\H,0,2.323372,-

 Normal termination of Gaussian 16 at Wed Apr  9 00:38:53 2025.
 Gaussian 16:  ES64L-G16RevC.01  3-Jul-2019

 ----------------------------------------------------------------------
 #t hf aug-cc-pvdz iop(5/13=1,5/36=2,99/5=2) pseudo=read geom=check gue
 ss=(read,tcheck) scf=(maxcycle=1)
 ----------------------------------------------------------------------
 -----
 title
 -----
 Structure from the checkpoint file:  "BDE49_nonexpt_540_mol2.chk"
 Charge =  0 Multiplicity = 2

                         Standard orientation:
 ---------------------------------------------------------------------
 Center     Atomic      Atomic             Coordinates (Angstroms)
 Number     Number       Type             X           Y           Z
 ---------------------------------------------------------------------
      1          6           0        0.232870   -1.345140    0.162378
      2          6           0        1.685676   -1.108037   -0.274233
      3          6           0        2.214177    0.241199    0.232415
      4          6           0        1.295219    1.395236   -0.192131
      5          6           0       -0.155849    1.150123    0.244001
      6          6           0       -2.149314   -0.425823    0.203314
      7          6           0       -0.698962   -0.197021   -0.263812
      8          5           0       -3.269300    0.492690   -0.321116
      9          1           0       -4.413542    0.528402    0.013250
     10          1           0        0.194146   -1.445442    1.256114
     11          1           0       -0.134248   -2.293121   -0.247590
     12          1           0        1.740112   -1.127424   -1.370485
     13          1           0        2.323372   -1.923784    0.081838
     14          1           0        3.231787    0.411709   -0.133801
     15          1           0        2.277409    0.215032    1.328202
     16          1           0        1.329964    1.501487   -1.284064
     17          1           0        1.657393    2.341511    0.222855
     18          1           0       -0.801974    1.961394   -0.110423
     19          1           0       -0.210994    1.162527    1.341934
     20          1           0       -2.193874   -0.467149    1.305418
     21          1           0       -2.491119   -1.433428   -0.107307
     22          1           0       -0.704838   -0.158382   -1.361955
 ---------------------------------------------------------------------

 SCF Done:  E(UHF) =  -299.381800169     A.U. after    2 cycles

 The electronic state is 2-A.
 Alpha  occ. eigenvalues --  -11.43202 -11.42866 -11.41551 -11.38820 -11.37184
 Alpha  occ. eigenvalues --  -11.35569 -11.33033  -7.62794  -1.32836  -1.15411
 Alpha  occ. eigenvalues --   -1.09591  -1.01748  -0.87813  -0.86002  -0.77673
 Alpha  occ. eigenvalues --   -0.72655  -0.65449  -0.61444  -0.60841  -0.59570
 Alpha  occ. eigenvalues --   -0.54763  -0.53687  -0.51743  -0.48427  -0.46338
 Alpha  occ. eigenvalues --   -0.45261  -0.43837  -0.43420  -0.37954  -0.36958
 Alpha  occ. eigenvalues --   -0.28313
 Alpha virt. eigenvalues --    0.03488   0.03751   0.04040   0.04431   0.05289
 Alpha virt. eigenvalues --    0.05612   0.05810   0.05943   0.06442   0.07377
 Alpha virt. eigenvalues --    0.08352   0.08617   0.09007   0.09194   0.09975

  Beta  occ. eigenvalues --  -11.43201 -11.42834 -11.41542 -11.38810 -11.37185
  Beta  occ. eigenvalues --  -11.35567 -11.33024  -7.61112  -1.32710  -1.15026
  Beta  occ. eigenvalues --   -1.09582  -1.00989  -0.87792  -0.85512  -0.77557
  Beta  occ. eigenvalues --   -0.68713  -0.65268  -0.61373  -0.60758  -0.59294
  Beta  occ. eigenvalues --   -0.54626  -0.52798  -0.51672  -0.48008  -0.46330
  Beta  occ. eigenvalues --   -0.45206  -0.43423  -0.43332  -0.37771  -0.36588
  Beta virt. eigenvalues --    0.03571   0.03764   0.03879   0.04367   0.05295
  Beta virt. eigenvalues --    0.05616   0.05779   0.05941   0.06444   0.07033
  Beta virt. eigenvalues --    0.08046   0.08593   0.09067   0.09271   0.10062

 Mulliken charges and spin densities:
               1          2
     1  C   -3.239486   0.056753
     2  C   -3.074529   0.006206
     3  C   -2.697058   0.000970
     4  C   -3.029183   0.025288
     5  C   -3.666008   0.059513
     6  C   -3.801269  -0.105085
     7  C    0.972676  -0.115881
     8  B    1.426839   0.988650
     9  H   -2.021533   0.011105
    10  H    1.413100  -0.001038
    11  H    1.430849   0.002703
    12  H    1.420547  -0.000327
    13  H    1.259587   0.001467
    14  H    1.347259   0.000604
    15  H    1.382126   0.000790
    16  H    1.365236  -0.000232
    17  H    1.222089   0.001525
    18  H    1.512345   0.039234
    19  H    1.416872   0.000833
    20  H    1.577207   0.031381
    21  H    1.808545   0.004186
    22  H    1.973789  -0.008644
 Sum of Mulliken charges =   0.00000   1.00000

 Dipole moment (field-independent basis, Debye):
    X=              0.5762    Y=             -0.7295    Z=              0.5443  Tot=              1.0773
                          Isotropic Fermi Contact Couplings
        Atom                 a.u.       MegaHertz       Gauss      10(-4) cm-1
     1  C(13)             -0.00078      -0.88123      -0.31445      -0.29395
     2  C(13)             -0.00027      -0.29880      -0.10662      -0.09967
     3  C(13)              0.00044       0.49302       0.17592       0.16445
     4  C(13)             -0.00014      -0.15730      -0.05613      -0.05247
     5  C(13)              0.00073       0.82525       0.29447       0.27527
     6  C(13)              0.01185      13.32031       4.75302       4.44318
     7  C(13)              0.01542      17.33394       6.18518       5.78198
     8  B(11)              0.15685     224.97412      80.27636      75.04329

 Normal termination of Gaussian 16 at Wed Apr  9 00:39:04 2025.
