 Gaussian 16, Revision C.01,

 ----------------------------------------------------------------------
 #t hf aug-cc-pvdz symm=none int=(grid=ultrafine) guess=(read,tcheck) s
 table=opt
 ----------------------------------------------------------------------
 -----
 title
 -----
 Symbolic Z-matrix:
 Charge =  0 Multiplicity = 2

 SCF Done:  E(UHF) =  -414.783655148     A.U. after   14 cycles
 Normal termination of Gaussian 16 at Wed Apr  9 00:35:18 2025.
 Gaussian 16:  ES64L-G16RevC.01  3-Jul-2019

 ----------------------------------------------------------------------
 #t hf aug-cc-pvdz iop(5/13=1,5/36=2,99/5=2) pseudo=read geom=check gue
 ss=(read,tcheck) scf=(maxcycle=1)
 ----------------------------------------------------------------------
 -----
 title
 -----
 Structure from the checkpoint file:  "BDE49_nonexpt_458_mol2.chk"
 Charge =  0 Multiplicity = 2

                         Standard orientation:
 ---------------------------------------------------------------------
 Center     Atomic      Atomic             Coordinates (Angstroms)
 Number     Number       Type             X           Y           Z
 ---------------------------------------------------------------------
      1          1           0       -2.575501   -1.247075   -0.000011
      2          5           0       -1.793259   -0.362755   -0.000004
      3         14           0       -0.002435    0.422164    0.000003
      4          9           0        1.259628   -0.595431   -0.000003
      5          1           0        0.119621    1.254729   -1.218018
      6          1           0        0.119618    1.254711    1.218036
 ---------------------------------------------------------------------

 SCF Done:  E(UHF) =  -415.374216666     A.U. after    2 cycles

 The electronic state is 2-A.
 Alpha  occ. eigenvalues --  -76.25271 -29.25778  -7.65871  -5.59504  -2.24379
 Alpha  occ. eigenvalues --   -2.20869  -2.20504  -0.91282  -0.76300  -0.59499
 Alpha  occ. eigenvalues --   -0.51238  -0.46672  -0.36575  -0.32387  -0.31811
 Alpha  occ. eigenvalues --   -0.26094
 Alpha virt. eigenvalues --    0.01103   0.03399   0.04663   0.05722   0.06632
 Alpha virt. eigenvalues --    0.08267   0.09274   0.09647   0.10895   0.11056
 Alpha virt. eigenvalues --    0.13585   0.16881   0.18197   0.21436   0.22710

  Beta  occ. eigenvalues --  -76.25278 -29.25655  -7.64399  -5.59507  -2.24473
  Beta  occ. eigenvalues --   -2.20764  -2.20471  -0.89220  -0.71812  -0.59126
  Beta  occ. eigenvalues --   -0.51287  -0.45426  -0.33007  -0.31786  -0.31518
  Beta virt. eigenvalues --    0.02045   0.03346   0.03535   0.05135   0.07252
  Beta virt. eigenvalues --    0.08256   0.09335   0.09656   0.10420   0.11067
  Beta virt. eigenvalues --    0.11278   0.14385   0.17518   0.18886   0.22819

 Mulliken charges and spin densities:
               1          2
     1  H   -0.495845  -0.038352
     2  B   -1.410155   1.124913
     3  Si   6.326162  -0.053849
     4  F   -1.010377  -0.009757
     5  H   -1.704892  -0.011477
     6  H   -1.704893  -0.011477
 Sum of Mulliken charges =  -0.00000   1.00000

 Dipole moment (field-independent basis, Debye):
    X=              1.4860    Y=             -2.0411    Z=             -0.0000  Tot=              2.5247
                          Isotropic Fermi Contact Couplings
        Atom                 a.u.       MegaHertz       Gauss      10(-4) cm-1
     1  H(1)              -0.01332     -59.55727     -21.25151     -19.86617
     2  B(11)              0.07792     111.76906      39.88198      37.28215
     3  Si(29)            -0.01923      17.08790       6.09739       5.69991
     4  F(19)              0.02410     101.40456      36.18367      33.82492
     5  H(1)              -0.00188      -8.39831      -2.99673      -2.80138
     6  H(1)              -0.00188      -8.39829      -2.99672      -2.80137
 --------------------------------------------------------
       Center         ----  Spin Dipole Couplings  ----

 Normal termination of Gaussian 16 at Wed Apr  9 00:35:20 2025.
