 Gaussian 16, Revision C.01,

 ----------------------------------------------------------------------
 #t hf aug-cc-pvdz symm=none int=(grid=ultrafine) guess=(read,tcheck) s
 table=opt
 ----------------------------------------------------------------------
 -----
 title
 -----
 Symbolic Z-matrix:
 Charge =  0 Multiplicity = 2

 SCF Done:  E(UHF) =  -2165.47102581     A.U. after   16 cycles
 Normal termination of Gaussian 16 at Tue Apr  8 23:49:34 2025.
 Gaussian 16:  ES64L-G16RevC.01  3-Jul-2019

 ----------------------------------------------------------------------
 #t hf aug-cc-pvdz iop(5/13=1,5/36=2,99/5=2) pseudo=read geom=check gue
 ss=(read,tcheck) scf=(maxcycle=1)
 ----------------------------------------------------------------------
 -----
 title
 -----
 Structure from the checkpoint file:  "BDE49_nonexpt_1818_mol2.chk"
 Charge =  0 Multiplicity = 2

                         Standard orientation:
 ---------------------------------------------------------------------
 Center     Atomic      Atomic             Coordinates (Angstroms)
 Number     Number       Type             X           Y           Z
 ---------------------------------------------------------------------
      1          6           0       -0.926202   -0.576302   -0.431884
      2         14           0        0.733839    0.366839   -0.634393
      3          1           0       -0.985737   -1.387446   -1.153656
      4         17           0       -2.279554    0.549765   -0.807357
      5         17           0       -1.109069   -1.322690    1.192487
      6         17           0        2.259942   -1.030185   -0.494321
      7         17           0        0.909222    1.786022    0.851924
 ---------------------------------------------------------------------

 SCF Done:  E(UHF) =  -2166.75905747     A.U. after    2 cycles

 The electronic state is 2-A.
 Alpha  occ. eigenvalues --  -99.91790 -99.91527 -99.91425 -99.91284 -76.33882
 Alpha  occ. eigenvalues --  -11.49645 -10.49059 -10.48834 -10.48756 -10.48707
 Alpha  occ. eigenvalues --   -9.68878  -9.68789  -9.68693  -9.68631  -9.68216
 Alpha  occ. eigenvalues --   -9.68174  -9.68070  -9.68017  -9.67920  -9.67869
 Alpha  occ. eigenvalues --   -9.67852  -9.67794  -5.67349  -2.29607  -2.29400
 Alpha  occ. eigenvalues --   -2.27580  -1.40787  -1.33116  -1.30854  -1.30049
 Alpha  occ. eigenvalues --   -1.01489  -0.80058  -0.70653  -0.66761  -0.64623
 Alpha  occ. eigenvalues --   -0.61114  -0.58854  -0.56712  -0.55741  -0.54306
 Alpha  occ. eigenvalues --   -0.53200  -0.51906  -0.50987  -0.47137  -0.34930
 Alpha virt. eigenvalues --    0.01835   0.03567   0.04837   0.05720   0.05902
 Alpha virt. eigenvalues --    0.07235   0.08805   0.09363   0.10833   0.10960
 Alpha virt. eigenvalues --    0.11842   0.12295   0.13112   0.13406   0.14501

  Beta  occ. eigenvalues --  -99.91798 -99.91483 -99.91310 -99.91172 -76.33280
  Beta  occ. eigenvalues --  -11.49369 -10.49064 -10.48713 -10.48707 -10.48583
  Beta  occ. eigenvalues --   -9.68912  -9.68556  -9.68487  -9.68373  -9.68212
  Beta  occ. eigenvalues --   -9.68128  -9.67998  -9.67886  -9.67840  -9.67777
  Beta  occ. eigenvalues --   -9.67739  -9.67615  -5.66340  -2.28976  -2.28761
  Beta  occ. eigenvalues --   -2.24251  -1.40485  -1.32138  -1.30014  -1.29810
  Beta  occ. eigenvalues --   -1.00636  -0.76958  -0.70232  -0.66258  -0.63689
  Beta  occ. eigenvalues --   -0.59760  -0.57849  -0.56310  -0.54927  -0.53990
  Beta  occ. eigenvalues --   -0.52985  -0.51742  -0.50904  -0.45666
  Beta virt. eigenvalues --   -0.02499   0.03087   0.04205   0.05305   0.05984
  Beta virt. eigenvalues --    0.06395   0.07639   0.09431   0.09781   0.11094
  Beta virt. eigenvalues --    0.11921   0.12240   0.12532   0.13743   0.14477

 Mulliken charges and spin densities:
               1          2
     1  C   -3.395575   0.027434
     2  Si   2.773560   0.812145
     3  H    1.765036   0.020323
     4  Cl   0.225484  -0.013347
     5  Cl   0.197482   0.035226
     6  Cl  -0.826440   0.068703
     7  Cl  -0.739546   0.049516
 Sum of Mulliken charges =  -0.00000   1.00000

 Dipole moment (field-independent basis, Debye):
    X=              0.2702    Y=             -0.1447    Z=             -2.0129  Tot=              2.0361
                          Isotropic Fermi Contact Couplings
        Atom                 a.u.       MegaHertz       Gauss      10(-4) cm-1
     1  C(13)              0.07642      85.90667      30.65364      28.65538
     2  Si(29)             0.88088    -782.86069    -279.34416    -261.13422
     3  H(1)              -0.00109      -4.86672      -1.73657      -1.62336
     4  Cl(35)            -0.00302      -1.32370      -0.47233      -0.44154
     5  Cl(35)             0.00935       4.09810       1.46230       1.36698
     6  Cl(35)             0.08560      37.53273      13.39261      12.51957
     7  Cl(35)             0.08258      36.20937      12.92040      12.07815
 --------------------------------------------------------

 Normal termination of Gaussian 16 at Tue Apr  8 23:49:38 2025.
