 Gaussian 16, Revision C.01,

 ----------------------------------------------------------------------
 #t hf aug-cc-pvdz symm=none int=(grid=ultrafine) guess=(read,tcheck) s
 table=(opt,rrhf)
 ----------------------------------------------------------------------
 -----
 title
 -----
 Symbolic Z-matrix:
 Charge =  0 Multiplicity = 1

 SCF Done:  E(RHF) =  -806.769715502     A.U. after   16 cycles
 Normal termination of Gaussian 16 at Tue Apr  8 22:52:35 2025.
 Gaussian 16:  ES64L-G16RevC.01  3-Jul-2019

 ----------------------------------------------------------------------
 #t hf aug-cc-pvdz iop(5/13=1,5/36=2,99/5=2) pseudo=read geom=check gue
 ss=(read,tcheck) scf=(maxcycle=1)
 ----------------------------------------------------------------------
 -----
 title
 -----
 Structure from the checkpoint file:  "BDE49_expt_1701_mol1.chk"
 Charge =  0 Multiplicity = 1

                         Standard orientation:
 ---------------------------------------------------------------------
 Center     Atomic      Atomic             Coordinates (Angstroms)
 Number     Number       Type             X           Y           Z
 ---------------------------------------------------------------------
      1          6           0        2.288388   -1.274194    0.205022
      2          6           0        0.912012   -1.112988    0.299262
      3          6           0        3.103981   -0.185565   -0.103775
      4          6           0        2.525058    1.059119   -0.319711
      5          6           0        1.141888    1.218732   -0.227004
      6          6           0        0.313821    0.137182    0.086439
      7          1           0        0.289962   -1.973359    0.514980
      8          1           0        2.725947   -2.252898    0.367036
      9          1           0        4.178152   -0.310744   -0.179085
     10          1           0        3.145544    1.913844   -0.564842
     11          1           0        0.720397    2.199652   -0.401883
     12          6           0       -1.193582    0.301780    0.250340
     13          6           0       -1.732383    1.671199   -0.156395
     14          1           0       -1.337284    2.443171    0.510701
     15          1           0       -2.819645    1.677773   -0.074484
     16          1           0       -1.464555    1.920496   -1.183524
     17          6           0       -1.645217   -0.056541    1.668890
     18         17           0       -2.027290   -0.927261   -0.899074
     19          1           0       -1.185987    0.641971    2.375459
     20          1           0       -1.341753   -1.066170    1.944679
     21          1           0       -2.730643    0.017347    1.756799
 ---------------------------------------------------------------------

 SCF Done:  E(RHF) =  -808.746885295     A.U. after    2 cycles

 The electronic state is 1-A.
 Alpha  occ. eigenvalues --  -99.86206 -11.52711 -11.48810 -11.44330 -11.43770
 Alpha  occ. eigenvalues --  -11.41363 -11.41044 -11.40603 -11.39274 -11.36603
 Alpha  occ. eigenvalues --  -10.43415  -9.63463  -9.62878  -9.62750  -1.39489
 Alpha  occ. eigenvalues --   -1.29468  -1.17494  -1.09728  -1.07924  -1.02688
 Alpha  occ. eigenvalues --   -0.90052  -0.86633  -0.80227  -0.71996  -0.66431
 Alpha  occ. eigenvalues --   -0.63969  -0.62404  -0.61453  -0.58521  -0.56819
 Alpha  occ. eigenvalues --   -0.55363  -0.52482  -0.51344  -0.50185  -0.48994
 Alpha  occ. eigenvalues --   -0.47805  -0.46252  -0.43070  -0.42074  -0.33378
 Alpha  occ. eigenvalues --   -0.32723
 Alpha virt. eigenvalues --    0.03322   0.04765   0.05026   0.05648   0.05893
 Alpha virt. eigenvalues --    0.06012   0.06507   0.07049   0.07397   0.08249
 Alpha virt. eigenvalues --    0.08764   0.09144   0.10960   0.11257   0.11745

 Mulliken charges:
               1
     1  C   -1.739312
     2  C   -2.189857
     3  C   -3.409891
     4  C   -2.095999
     5  C   -2.472380
     6  C    6.464459
     7  H    1.922810
     8  H    1.467650
     9  H    1.558034
    10  H    1.511541
    11  H    1.869829
    12  C   -1.255521
    13  C   -4.569868
    14  H    1.311813
    15  H    1.003225
    16  H    1.230831
    17  C   -4.356054
    18  Cl  -0.136862
    19  H    1.301581
    20  H    1.235886
    21  H    1.348082
 Sum of Mulliken charges =   0.00000

 Dipole moment (field-independent basis, Debye):
    X=              1.5443    Y=              1.7186    Z=              1.6560  Tot=              2.8427

 Test job not archived.
 1\1\GINC-SE250\SP\RHF\Aug-CC-pVDZ\C9H11Cl1\OHZDE\08-Apr-2025\0\\#t hf
 aug-cc-pvdz iop(5/13=1,5/36=2,99/5=2) pseudo=read geom=check guess=(re
 ad,tcheck) scf=(maxcycle=1)\\title\\0,1\C,0,2.288388,-1.274194,0.20502
 2\C,0,0.912012,-1.112988,0.299262\C,0,3.103981,-0.185565,-0.103775\C,0
 ,2.525058,1.059119,-0.319711\C,0,1.141888,1.218732,-0.227004\C,0,0.313
 821,0.137182,0.086439\H,0,0.289962,-1.973359,0.51498\H,0,2.725947,-2.2
 52898,0.367036\H,0,4.178152,-0.310744,-0.179085\H,0,3.145544,1.913844,
 -0.564842\H,0,0.720397,2.199652,-0.401883\C,0,-1.193582,0.30178,0.2503

 Normal termination of Gaussian 16 at Tue Apr  8 22:52:48 2025.
