 Gaussian 16, Revision C.01,

 ----------------------------------------------------------------------
 #t hf aug-cc-pvdz symm=none int=(grid=ultrafine) guess=(read,tcheck) s
 table=(opt,rrhf)
 ----------------------------------------------------------------------
 -----
 title
 -----
 Symbolic Z-matrix:
 Charge =  0 Multiplicity = 1

 SCF Done:  E(RHF) =  -257.238126625     A.U. after   15 cycles
 Normal termination of Gaussian 16 at Wed Apr  9 00:36:51 2025.
 Gaussian 16:  ES64L-G16RevC.01  3-Jul-2019

 ----------------------------------------------------------------------
 #t hf aug-cc-pvdz iop(5/13=1,5/36=2,99/5=2) pseudo=read geom=check gue
 ss=(read,tcheck) scf=(maxcycle=1)
 ----------------------------------------------------------------------
 -----
 title
 -----
 Structure from the checkpoint file:  "BDE49_nonexpt_542_mol1.chk"
 Charge =  0 Multiplicity = 1

                         Standard orientation:
 ---------------------------------------------------------------------
 Center     Atomic      Atomic             Coordinates (Angstroms)
 Number     Number       Type             X           Y           Z
 ---------------------------------------------------------------------
      1          9           0        2.225759    0.129394    0.220551
      2          6           0       -0.080170    0.489928   -0.179192
      3          6           0        1.047913   -0.514315   -0.143998
      4          1           0        1.193286   -0.947237   -1.140184
      5          1           0        0.835644   -1.310927    0.572586
      6          7           0       -1.277541    0.179843   -0.027175
      7          5           0       -2.577983   -0.176894    0.136056
      8          1           0       -3.049817   -0.152118    1.231590
      9          1           0       -3.210318   -0.505780   -0.820975
     10          1           0        0.225621    1.523400   -0.378890
 ---------------------------------------------------------------------

 SCF Done:  E(RHF) =  -258.320583671     A.U. after    2 cycles

 The electronic state is 1-A.
 Alpha  occ. eigenvalues --  -29.26979 -15.73308 -11.48965 -11.44754  -7.62094
 Alpha  occ. eigenvalues --   -1.40862  -1.19302  -0.97788  -0.76821  -0.70103
 Alpha  occ. eigenvalues --   -0.67085  -0.61649  -0.56811  -0.54622  -0.41591
 Alpha  occ. eigenvalues --   -0.40004  -0.36721  -0.26818  -0.26385
 Alpha virt. eigenvalues --    0.03882   0.03910   0.04295   0.05014   0.06364
 Alpha virt. eigenvalues --    0.07141   0.08825   0.10327   0.11075   0.12387
 Alpha virt. eigenvalues --    0.13210   0.13434   0.13991   0.15248   0.16114

 Mulliken charges:
               1
     1  F    0.311298
     2  C    2.140952
     3  C   -2.696744
     4  H    1.360753
     5  H    1.450702
     6  N   -5.108280
     7  B    6.544048
     8  H   -2.808653
     9  H   -2.854379
    10  H    1.660302
 Sum of Mulliken charges =  -0.00000

 Dipole moment (field-independent basis, Debye):
    X=              2.8168    Y=              0.6891    Z=             -0.0217  Tot=              2.8999

 Test job not archived.
 1\1\GINC-SE366\SP\RHF\Aug-CC-pVDZ\C2H5B1F1N1\OHZDE\09-Apr-2025\0\\#t h
 f aug-cc-pvdz iop(5/13=1,5/36=2,99/5=2) pseudo=read geom=check guess=(
 read,tcheck) scf=(maxcycle=1)\\title\\0,1\F,0,-2.225759,0.129394,-0.22
 0551\C,0,0.08017,0.489928,0.179192\C,0,-1.047913,-0.514315,0.143998\H,
 0,-1.193286,-0.947237,1.140184\H,0,-0.835644,-1.310927,-0.572586\N,0,1
 .277541,0.179843,0.027175\B,0,2.577983,-0.176894,-0.136056\H,0,3.04981
 7,-0.152118,-1.23159\H,0,3.210318,-0.50578,0.820975\H,0,-0.225621,1.52
 34,0.37889\\Version=ES64L-G16RevC.01\State=1-A\HF=-258.3205837\RMSD=2.

 Normal termination of Gaussian 16 at Wed Apr  9 00:36:53 2025.
