 Gaussian 16, Revision C.01,

 ----------------------------------------------------------------------
 #t hf aug-cc-pvdz symm=none int=(grid=ultrafine) guess=(read,tcheck) s
 table=opt
 ----------------------------------------------------------------------
 -----
 title
 -----
 Symbolic Z-matrix:
 Charge =  0 Multiplicity = 2

 SCF Done:  E(UHF) =  -808.598110051     A.U. after   18 cycles
 Normal termination of Gaussian 16 at Tue Apr  8 23:16:53 2025.
 Gaussian 16:  ES64L-G16RevC.01  3-Jul-2019

 ----------------------------------------------------------------------
 #t hf aug-cc-pvdz iop(5/13=1,5/36=2,99/5=2) pseudo=read geom=check gue
 ss=(read,tcheck) scf=(maxcycle=1)
 ----------------------------------------------------------------------
 -----
 title
 -----
 Structure from the checkpoint file:  "BDE49_nonexpt_1014_mol2.chk"
 Charge =  0 Multiplicity = 2

                         Standard orientation:
 ---------------------------------------------------------------------
 Center     Atomic      Atomic             Coordinates (Angstroms)
 Number     Number       Type             X           Y           Z
 ---------------------------------------------------------------------
      1         16           0       -1.911796   -0.008335   -0.000005
      2          8           0       -0.439112    0.777450   -0.000042
      3          6           0        0.714593    0.006726    0.000002
      4          9           0        1.734033    0.856600   -0.000040
      5          9           0        0.789324   -0.768723   -1.082691
      6          9           0        0.789318   -0.768611    1.082775
 ---------------------------------------------------------------------

 SCF Done:  E(UHF) =  -810.253177260     A.U. after    2 cycles

 The electronic state is 2-A.
 Alpha  occ. eigenvalues --  -75.78655 -29.33390 -29.33384 -29.33313 -21.14580
 Alpha  occ. eigenvalues --  -13.22964 -13.11630 -13.11361 -11.62461  -8.11929
 Alpha  occ. eigenvalues --   -1.89579  -1.37134  -1.08819  -0.94014  -0.93834
 Alpha  occ. eigenvalues --   -0.73689  -0.53554  -0.51523  -0.50157  -0.46194
 Alpha  occ. eigenvalues --   -0.45446  -0.37019  -0.36962  -0.36224  -0.29074
 Alpha  occ. eigenvalues --   -0.28381  -0.26770  -0.26355  -0.23414
 Alpha virt. eigenvalues --    0.05446   0.09149   0.11241   0.12327   0.12952
 Alpha virt. eigenvalues --    0.13211   0.13897   0.19019   0.19234   0.20748
 Alpha virt. eigenvalues --    0.21664   0.22750   0.24379   0.25710   0.27443

  Beta  occ. eigenvalues --  -75.77675 -29.33387 -29.33386 -29.33314 -21.14099
  Beta  occ. eigenvalues --  -13.22577 -13.11067 -13.05334 -11.62486  -8.10831
  Beta  occ. eigenvalues --   -1.88570  -1.36591  -1.01601  -0.93814  -0.92931
  Beta  occ. eigenvalues --   -0.72339  -0.50715  -0.50125  -0.49594  -0.45924
  Beta  occ. eigenvalues --   -0.45436  -0.36820  -0.35843  -0.35580  -0.27993
  Beta  occ. eigenvalues --   -0.26914  -0.25456  -0.23538
  Beta virt. eigenvalues --    0.03513   0.05807   0.09321   0.12127   0.12426
  Beta virt. eigenvalues --    0.13003   0.14056   0.16206   0.19305   0.19637
  Beta virt. eigenvalues --    0.21712   0.22015   0.23246   0.24415   0.26156

 Mulliken charges and spin densities:
               1          2
     1  S    0.569445   0.965099
     2  O   -2.465402   0.040555
     3  C   -0.005376  -0.015593
     4  F    0.658274  -0.000558
     5  F    0.621529   0.005248
     6  F    0.621530   0.005248
 Sum of Mulliken charges =  -0.00000   1.00000

 Dipole moment (field-independent basis, Debye):
    X=              1.0658    Y=             -1.4944    Z=              0.0001  Tot=              1.8355
                          Isotropic Fermi Contact Couplings
        Atom                 a.u.       MegaHertz       Gauss      10(-4) cm-1
     1  S(33)              0.30436     104.53905      37.30213      34.87047
     2  O(17)              0.03058     -18.53465      -6.61362      -6.18249
     3  C(13)             -0.00160      -1.79437      -0.64028      -0.59854
     4  F(19)             -0.00132      -5.57223      -1.98831      -1.85869
     5  F(19)             -0.00058      -2.44771      -0.87340      -0.81647
     6  F(19)             -0.00058      -2.44772      -0.87341      -0.81647
 --------------------------------------------------------
       Center         ----  Spin Dipole Couplings  ----

 Normal termination of Gaussian 16 at Tue Apr  8 23:16:56 2025.
