 Gaussian 16, Revision C.01,

 ----------------------------------------------------------------------
 #t hf aug-cc-pvdz symm=none int=(grid=ultrafine) guess=(read,tcheck) s
 table=(opt,rrhf)
 ----------------------------------------------------------------------
 -----
 title
 -----
 Symbolic Z-matrix:
 Charge =  0 Multiplicity = 1

 SCF Done:  E(RHF) =  -1082.26837984     A.U. after   12 cycles
 Normal termination of Gaussian 16 at Tue Apr  8 23:45:14 2025.
 Gaussian 16:  ES64L-G16RevC.01  3-Jul-2019

 ----------------------------------------------------------------------
 #t hf aug-cc-pvdz iop(5/13=1,5/36=2,99/5=2) pseudo=read geom=check gue
 ss=(read,tcheck) scf=(maxcycle=1)
 ----------------------------------------------------------------------
 -----
 title
 -----
 Structure from the checkpoint file:  "BDE49_nonexpt_174_mol1.chk"
 Charge =  0 Multiplicity = 1

                         Standard orientation:
 ---------------------------------------------------------------------
 Center     Atomic      Atomic             Coordinates (Angstroms)
 Number     Number       Type             X           Y           Z
 ---------------------------------------------------------------------
      1         17           0       -0.311889    1.609764   -0.000025
      2         17           0        1.856535   -0.523052   -0.000073
      3          5           0        0.151300   -0.073881    0.000210
      4          6           0       -0.909718   -1.231024    0.000069
      5          9           0       -2.226230   -0.775356    0.000014
      6          1           0       -0.760612   -1.870229    0.880311
      7          1           0       -0.760502   -1.870123   -0.880232
 ---------------------------------------------------------------------

 SCF Done:  E(RHF) =  -1083.38971589     A.U. after    2 cycles

 The electronic state is 1-A.
 Alpha  occ. eigenvalues --  -99.91369 -99.90980 -29.26356 -11.42861 -10.48702
 Alpha  occ. eigenvalues --  -10.48270  -9.68644  -9.68208  -9.68164  -9.67959
 Alpha  occ. eigenvalues --   -9.67784  -9.67586  -7.72056  -1.41823  -1.31025
 Alpha  occ. eigenvalues --   -1.17792  -0.82175  -0.71851  -0.65999  -0.65408
 Alpha  occ. eigenvalues --   -0.60389  -0.57813  -0.53685  -0.51835  -0.50387
 Alpha  occ. eigenvalues --   -0.37188  -0.26140  -0.25258
 Alpha virt. eigenvalues --    0.03071   0.03581   0.04040   0.05079   0.05092
 Alpha virt. eigenvalues --    0.08751   0.09228   0.10969   0.13159   0.14239
 Alpha virt. eigenvalues --    0.14870   0.15790   0.15965   0.16653   0.17628

 Mulliken charges:
               1
     1  Cl  -1.158074
     2  Cl  -1.235234
     3  B    3.330922
     4  C   -3.947953
     5  F    0.076431
     6  H    1.467072
     7  H    1.466836
 Sum of Mulliken charges =  -0.00000

 Dipole moment (field-independent basis, Debye):
    X=             -1.9460    Y=             -0.4701    Z=              0.0003  Tot=              2.0019

 Test job not archived.
 1\1\GINC-SE457\SP\RHF\Aug-CC-pVDZ\C1H2B1Cl2F1\OHZDE\08-Apr-2025\0\\#t
 hf aug-cc-pvdz iop(5/13=1,5/36=2,99/5=2) pseudo=read geom=check guess=
 (read,tcheck) scf=(maxcycle=1)\\title\\0,1\Cl,0,0.311888,1.609764,0.00
 0025\Cl,0,-1.856535,-0.523053,0.000073\B,0,-0.1513,-0.073881,-0.00021\
 C,0,0.909718,-1.231024,-0.000069\F,0,2.22623,-0.775355,-0.000014\H,0,0
 .760612,-1.870229,-0.880311\H,0,0.760502,-1.870123,0.880232\\Version=E
 S64L-G16RevC.01\State=1-A\HF=-1083.3897159\RMSD=4.687e-02\Dipole=0.765
 6068,-0.1849376,-0.0001017\Quadrupole=0.3154722,-0.522889,0.2074168,-0

 Normal termination of Gaussian 16 at Tue Apr  8 23:45:16 2025.
