 Gaussian 16, Revision C.01,

 ----------------------------------------------------------------------
 #t hf aug-cc-pvdz symm=none int=(grid=ultrafine) guess=(read,tcheck) s
 table=opt
 ----------------------------------------------------------------------
 -----
 title
 -----
 Symbolic Z-matrix:
 Charge =  0 Multiplicity = 2

 SCF Done:  E(UHF) =  -601.872751807     A.U. after   15 cycles
 Normal termination of Gaussian 16 at Tue Apr  8 23:50:31 2025.
 Gaussian 16:  ES64L-G16RevC.01  3-Jul-2019

 ----------------------------------------------------------------------
 #t hf aug-cc-pvdz iop(5/13=1,5/36=2,99/5=2) pseudo=read geom=check gue
 ss=(read,tcheck) scf=(maxcycle=1)
 ----------------------------------------------------------------------
 -----
 title
 -----
 Structure from the checkpoint file:  "BDE49_nonexpt_183_mol2.chk"
 Charge =  0 Multiplicity = 2

                         Standard orientation:
 ---------------------------------------------------------------------
 Center     Atomic      Atomic             Coordinates (Angstroms)
 Number     Number       Type             X           Y           Z
 ---------------------------------------------------------------------
      1         17           0        2.102449   -0.358328   -0.000001
      2          5           0        0.993108    0.991856    0.000002
      3          6           0       -0.558767    0.939440    0.000001
      4          6           0       -1.252995   -0.438323    0.000001
      5          1           0       -0.891349    1.536013    0.863742
      6          6           0       -2.780449   -0.334775   -0.000001
      7          1           0       -0.922148   -1.008446    0.873951
      8          1           0       -0.922147   -1.008447   -0.873949
      9          1           0       -3.141102    0.201976    0.883044
     10          1           0       -3.244707   -1.324829   -0.000001
     11          1           0       -0.891347    1.536012   -0.863742
     12          1           0       -3.141101    0.201976   -0.883046
 ---------------------------------------------------------------------

 SCF Done:  E(UHF) =  -602.818821724     A.U. after    2 cycles

 The electronic state is 2-A.
 Alpha  occ. eigenvalues --  -99.89524 -11.41366 -11.37607 -11.34621 -10.46806
 Alpha  occ. eigenvalues --   -9.66778  -9.66367  -9.66074  -7.67400  -1.34929
 Alpha  occ. eigenvalues --   -1.21518  -1.02803  -0.86449  -0.75137  -0.64119
 Alpha  occ. eigenvalues --   -0.60133  -0.58076  -0.55330  -0.53013  -0.50758
 Alpha  occ. eigenvalues --   -0.49043  -0.46906  -0.45297  -0.30543
 Alpha virt. eigenvalues --    0.03437   0.04103   0.04207   0.04440   0.06108
 Alpha virt. eigenvalues --    0.06407   0.06583   0.07517   0.08552   0.09782
 Alpha virt. eigenvalues --    0.10831   0.11468   0.12884   0.13798   0.14267

  Beta  occ. eigenvalues --  -99.89445 -11.41266 -11.37559 -11.34526 -10.46713
  Beta  occ. eigenvalues --   -9.66681  -9.66093  -9.66056  -7.65464  -1.33885
  Beta  occ. eigenvalues --   -1.21124  -1.02087  -0.85842  -0.72379  -0.64035
  Beta  occ. eigenvalues --   -0.59211  -0.56015  -0.55193  -0.53117  -0.50049
  Beta  occ. eigenvalues --   -0.46950  -0.46870  -0.44347
  Beta virt. eigenvalues --    0.02952   0.03921   0.04279   0.04371   0.06066
  Beta virt. eigenvalues --    0.06577   0.06607   0.07552   0.07976   0.09843
  Beta virt. eigenvalues --    0.10206   0.11642   0.12089   0.13755   0.14201

 Mulliken charges and spin densities:
               1          2
     1  Cl  -1.108285   0.020560
     2  B    1.035667   0.983497
     3  C   -3.649615  -0.109732
     4  C   -3.284332   0.089350
     5  H    1.936779   0.014643
     6  C   -3.356569  -0.003472
     7  H    1.370026  -0.006026
     8  H    1.370026  -0.006026
     9  H    1.295802  -0.001139
    10  H    1.157922   0.004839
    11  H    1.936776   0.014643
    12  H    1.295803  -0.001139
 Sum of Mulliken charges =  -0.00000   1.00000

 Dipole moment (field-independent basis, Debye):
    X=             -1.6783    Y=              0.0415    Z=              0.0000  Tot=              1.6788
                          Isotropic Fermi Contact Couplings
        Atom                 a.u.       MegaHertz       Gauss      10(-4) cm-1
     1  Cl(35)             0.12425      54.48100      19.44018      18.17291
     2  B(11)              0.23812     341.55404     121.87497     113.93016
     3  C(13)              0.03108      34.93972      12.46736      11.65464
     4  C(13)              0.01783      20.04223       7.15157       6.68537
     5  H(1)               0.00025       1.09534       0.39084       0.36537
     6  C(13)              0.00365       4.10790       1.46580       1.37025
     7  H(1)              -0.00058      -2.61487      -0.93305      -0.87223
     8  H(1)              -0.00058      -2.61487      -0.93305      -0.87223

 Normal termination of Gaussian 16 at Tue Apr  8 23:50:36 2025.
