 Gaussian 16, Revision C.01,

 ----------------------------------------------------------------------
 #t hf aug-cc-pvdz symm=none int=(grid=ultrafine) guess=(read,tcheck) s
 table=(opt,rrhf)
 ----------------------------------------------------------------------
 -----
 title
 -----
 Symbolic Z-matrix:
 Charge =  0 Multiplicity = 1

 SCF Done:  E(RHF) =  -838.660405047     A.U. after   16 cycles
 Normal termination of Gaussian 16 at Wed Apr  9 00:12:40 2025.
 Gaussian 16:  ES64L-G16RevC.01  3-Jul-2019

 ----------------------------------------------------------------------
 #t hf aug-cc-pvdz iop(5/13=1,5/36=2,99/5=2) pseudo=read geom=check gue
 ss=(read,tcheck) scf=(maxcycle=1)
 ----------------------------------------------------------------------
 -----
 title
 -----
 Structure from the checkpoint file:  "BDE49_nonexpt_2406_mol1.chk"
 Charge =  0 Multiplicity = 1

                         Standard orientation:
 ---------------------------------------------------------------------
 Center     Atomic      Atomic             Coordinates (Angstroms)
 Number     Number       Type             X           Y           Z
 ---------------------------------------------------------------------
      1         14           0       -1.047846   -0.867599   -0.548459
      2         14           0        1.047845   -0.867599    0.548459
      3          7           0        2.016558    0.673708    0.051093
      4          8           0        1.550633    1.284003   -0.883917
      5          1           0        1.929098   -1.975403    0.105686
      6          1           0        0.984223   -0.866194    2.026088
      7          7           0       -2.016558    0.673709   -0.051094
      8          1           0       -1.929099   -1.975403   -0.105685
      9          1           0       -0.984224   -0.866195   -2.026088
     10          8           0       -1.550632    1.284003    0.883917
 ---------------------------------------------------------------------

 SCF Done:  E(RHF) =  -840.017223774     A.U. after    2 cycles

 The electronic state is 1-A.
 Alpha  occ. eigenvalues --  -76.26490 -76.26489 -21.14153 -21.14130 -15.84708
 Alpha  occ. eigenvalues --  -15.84707  -5.60035  -5.60033  -2.23393  -2.23220
 Alpha  occ. eigenvalues --   -2.21936  -2.21857  -2.21701  -2.20777  -1.84999
 Alpha  occ. eigenvalues --   -1.84986  -1.02100  -1.01263  -0.79738  -0.71933
 Alpha  occ. eigenvalues --   -0.60532  -0.59819  -0.54920  -0.54060  -0.53965
 Alpha  occ. eigenvalues --   -0.53927  -0.48819  -0.48613  -0.39824  -0.26094
 Alpha  occ. eigenvalues --   -0.25053
 Alpha virt. eigenvalues --    0.03777   0.04279   0.05449   0.05476   0.07078
 Alpha virt. eigenvalues --    0.07503   0.07641   0.08744   0.09024   0.09277
 Alpha virt. eigenvalues --    0.10052   0.10165   0.10959   0.11502   0.13652

 Mulliken charges:
               1
     1  Si   4.453210
     2  Si   4.453213
     3  N    0.247271
     4  O   -1.315338
     5  H   -1.753982
     6  H   -1.631164
     7  N    0.247269
     8  H   -1.753981
     9  H   -1.631164
    10  O   -1.315335
 Sum of Mulliken charges =  -0.00000

 Dipole moment (field-independent basis, Debye):
    X=             -0.0000    Y=             -1.2920    Z=              0.0000  Tot=              1.2920

 Test job not archived.
 1\1\GINC-SE412\SP\RHF\Aug-CC-pVDZ\H4N2O2Si2\OHZDE\09-Apr-2025\0\\#t hf
  aug-cc-pvdz iop(5/13=1,5/36=2,99/5=2) pseudo=read geom=check guess=(r
 ead,tcheck) scf=(maxcycle=1)\\title\\0,1\Si,0,1.047846,-0.867599,0.548
 459\Si,0,-1.047845,-0.867599,-0.548459\N,0,-2.016558,0.673708,-0.05109
 3\O,0,-1.550633,1.284003,0.883917\H,0,-1.929098,-1.975403,-0.105686\H,
 0,-0.984223,-0.866194,-2.026088\N,0,2.016558,0.673709,0.051094\H,0,1.9
 29099,-1.975403,0.105685\H,0,0.984224,-0.866195,2.026088\O,0,1.550632,
 1.284003,-0.883917\\Version=ES64L-G16RevC.01\State=1-A\HF=-840.0172238

 Normal termination of Gaussian 16 at Wed Apr  9 00:12:44 2025.
