 Gaussian 16, Revision C.01,

 ----------------------------------------------------------------------
 #t hf aug-cc-pvdz symm=none int=(grid=ultrafine) guess=(read,tcheck) s
 table=(opt,rrhf)
 ----------------------------------------------------------------------
 -----
 title
 -----
 Symbolic Z-matrix:
 Charge =  0 Multiplicity = 1

 SCF Done:  E(RHF) =  -672.196750447     A.U. after   12 cycles
 Normal termination of Gaussian 16 at Wed Apr  9 00:04:35 2025.
 Gaussian 16:  ES64L-G16RevC.01  3-Jul-2019

 ----------------------------------------------------------------------
 #t hf aug-cc-pvdz iop(5/13=1,5/36=2,99/5=2) pseudo=read geom=check gue
 ss=(read,tcheck) scf=(maxcycle=1)
 ----------------------------------------------------------------------
 -----
 title
 -----
 Structure from the checkpoint file:  "BDE49_nonexpt_2176_mol1.chk"
 Charge =  0 Multiplicity = 1

                         Standard orientation:
 ---------------------------------------------------------------------
 Center     Atomic      Atomic             Coordinates (Angstroms)
 Number     Number       Type             X           Y           Z
 ---------------------------------------------------------------------
      1         14           0       -0.833394   -0.204691    0.018635
      2          8           0       -0.791385   -0.344284    1.655555
      3          8           0       -2.213105    0.573325   -0.426995
      4          1           0       -1.602291   -0.601068    2.101637
      5          6           0        0.706768    0.754885   -0.450784
      6          6           0        2.011618    0.231033    0.190414
      7          6           0        2.366130   -1.226007   -0.128057
      8          1           0        1.948506    0.356704    1.276242
      9          1           0        2.835252    0.873612   -0.145546
     10          1           0        1.678843   -1.926604    0.358063
     11          1           0        3.367976   -1.472613    0.233249
     12          1           0        2.348666   -1.416793   -1.206144
     13          6           0        0.516189    2.255384   -0.141603
     14          1           0        0.800329    0.644920   -1.541289
     15          1           0        0.423895    2.424286    0.935340
     16          1           0       -0.383488    2.652017   -0.616563
     17          1           0        1.374370    2.836539   -0.495997
     18          1           0       -2.719283    0.160128   -1.130504
     19          8           0       -0.967307   -1.663628   -0.748862
     20          1           0       -0.235113   -2.280529   -0.686796
 ---------------------------------------------------------------------

 SCF Done:  E(RHF) =  -674.104838286     A.U. after    2 cycles

 The electronic state is 1-A.
 Alpha  occ. eigenvalues --  -76.23236 -21.07087 -21.06849 -21.06651 -11.41851
 Alpha  occ. eigenvalues --  -11.39270 -11.37324 -11.33914  -5.58346  -2.26425
 Alpha  occ. eigenvalues --   -2.25137  -2.22767  -1.69939  -1.63823  -1.63240
 Alpha  occ. eigenvalues --   -1.23276  -1.07441  -0.91723  -0.82763  -0.71315
 Alpha  occ. eigenvalues --   -0.64395  -0.61725  -0.59933  -0.58459  -0.57690
 Alpha  occ. eigenvalues --   -0.56283  -0.50745  -0.49139  -0.47639  -0.47235
 Alpha  occ. eigenvalues --   -0.44521  -0.43305  -0.42210  -0.39519  -0.37005
 Alpha  occ. eigenvalues --   -0.35088  -0.33559
 Alpha virt. eigenvalues --    0.03967   0.05008   0.05601   0.05763   0.05957
 Alpha virt. eigenvalues --    0.06320   0.06368   0.06850   0.07166   0.08477
 Alpha virt. eigenvalues --    0.08557   0.08937   0.09147   0.09861   0.11430

 Mulliken charges:
               1
     1  Si   8.505882
     2  O   -3.221555
     3  O   -3.216494
     4  H    1.050026
     5  C   -2.850857
     6  C   -2.817396
     7  C   -3.981086
     8  H    1.474810
     9  H    1.344557
    10  H    1.222388
    11  H    1.049282
    12  H    1.330812
    13  C   -4.125492
    14  H    1.619584
    15  H    1.342088
    16  H    1.265346
    17  H    1.198364
    18  H    0.973356
    19  O   -3.314589
    20  H    1.150975
 Sum of Mulliken charges =  -0.00000

 Dipole moment (field-independent basis, Debye):
    X=              0.1914    Y=             -0.4745    Z=             -0.2030  Tot=              0.5505

 Test job not archived.
 1\1\GINC-SE364\SP\RHF\Aug-CC-pVDZ\C4H12O3Si1\OHZDE\09-Apr-2025\0\\#t h
 f aug-cc-pvdz iop(5/13=1,5/36=2,99/5=2) pseudo=read geom=check guess=(
 read,tcheck) scf=(maxcycle=1)\\title\\0,1\Si,0,-0.833394,-0.204691,0.0
 18635\O,0,-0.791385,-0.344284,1.655555\O,0,-2.213105,0.573325,-0.42699
 5\H,0,-1.602291,-0.601068,2.101637\C,0,0.706768,0.754885,-0.450784\C,0
 ,2.011618,0.231033,0.190414\C,0,2.36613,-1.226007,-0.128057\H,0,1.9485
 06,0.356704,1.276242\H,0,2.835252,0.873612,-0.145546\H,0,1.678843,-1.9
 26604,0.358063\H,0,3.367976,-1.472613,0.233249\H,0,2.348666,-1.416793,

 Normal termination of Gaussian 16 at Wed Apr  9 00:04:45 2025.
