 Gaussian 16, Revision C.01,

 ----------------------------------------------------------------------
 #t hf aug-cc-pvdz symm=none int=(grid=ultrafine) guess=(read,tcheck) s
 table=opt
 ----------------------------------------------------------------------
 -----
 title
 -----
 Symbolic Z-matrix:
 Charge =  0 Multiplicity = 2

 SCF Done:  E(UHF) =  -396.823553751     A.U. after   17 cycles
 Normal termination of Gaussian 16 at Wed Apr  9 00:37:22 2025.
 Gaussian 16:  ES64L-G16RevC.01  3-Jul-2019

 ----------------------------------------------------------------------
 #t hf aug-cc-pvdz iop(5/13=1,5/36=2,99/5=2) pseudo=read geom=check gue
 ss=(read,tcheck) scf=(maxcycle=1)
 ----------------------------------------------------------------------
 -----
 title
 -----
 Structure from the checkpoint file:  "BDE49_nonexpt_443_mol2.chk"
 Charge =  0 Multiplicity = 2

                         Standard orientation:
 ---------------------------------------------------------------------
 Center     Atomic      Atomic             Coordinates (Angstroms)
 Number     Number       Type             X           Y           Z
 ---------------------------------------------------------------------
      1          6           0       -0.859574    1.405543    0.000561
      2          6           0       -2.168196    0.830879   -0.560984
      3          6           0       -2.533847   -0.499711    0.110743
      4          6           0       -1.380466   -1.507429    0.014102
      5          6           0       -0.072845   -0.927519    0.572946
      6          6           0        1.605591    0.995888    0.494606
      7          6           0        0.307064    0.405387   -0.098157
      8          5           0        2.931508    0.208376    0.233472
      9          9           0        3.038304   -0.778494   -0.638797
     10          1           0       -1.005088    1.676320    1.055437
     11          1           0       -0.598826    2.331689   -0.523825
     12          1           0       -2.057277    0.671171   -1.641315
     13          1           0       -2.979389    1.555644   -0.436532
     14          1           0       -3.440156   -0.916007   -0.340742
     15          1           0       -2.767242   -0.318065    1.168018
     16          1           0       -1.230310   -1.785053   -1.037119
     17          1           0       -1.636486   -2.430282    0.544476
     18          1           0        0.737952   -1.652301    0.448878
     19          1           0       -0.183644   -0.759873    1.653359
     20          1           0        1.497715    1.171944    1.572791
     21          1           0        1.791072    1.999822    0.078780
     22          1           0        0.483044    0.201332   -1.163301
 ---------------------------------------------------------------------

 SCF Done:  E(UHF) =  -398.647119377     A.U. after    2 cycles

 The electronic state is 2-A.
 Alpha  occ. eigenvalues --  -29.25460 -11.43614 -11.43314 -11.41891 -11.39344
 Alpha  occ. eigenvalues --  -11.37510 -11.36092 -11.33506  -7.67058  -1.33370
 Alpha  occ. eigenvalues --   -1.16746  -1.09931  -1.04445  -0.91042  -0.88079
 Alpha  occ. eigenvalues --   -0.84436  -0.77983  -0.65786  -0.62427  -0.61229
 Alpha  occ. eigenvalues --   -0.60951  -0.57014  -0.54475  -0.52644  -0.52037
 Alpha  occ. eigenvalues --   -0.46864  -0.46212  -0.45870  -0.45415  -0.43939
 Alpha  occ. eigenvalues --   -0.40881  -0.39359  -0.38235  -0.36220  -0.20159
 Alpha virt. eigenvalues --    0.03888   0.04119   0.04389   0.04667   0.05286
 Alpha virt. eigenvalues --    0.05552   0.05714   0.05868   0.06378   0.07886
 Alpha virt. eigenvalues --    0.08353   0.08654   0.09063   0.09283   0.10399

  Beta  occ. eigenvalues --  -29.25156 -11.43610 -11.43259 -11.41878 -11.39208
  Beta  occ. eigenvalues --  -11.37505 -11.35976 -11.33451  -7.65217  -1.33165
  Beta  occ. eigenvalues --   -1.15996  -1.09909  -1.03053  -0.89251  -0.87906
  Beta  occ. eigenvalues --   -0.83956  -0.77926  -0.65623  -0.62207  -0.61112
  Beta  occ. eigenvalues --   -0.60694  -0.56490  -0.53239  -0.52233  -0.51011
  Beta  occ. eigenvalues --   -0.46693  -0.45785  -0.45652  -0.43944  -0.40557
  Beta  occ. eigenvalues --   -0.39895  -0.38687  -0.38069  -0.33864
  Beta virt. eigenvalues --    0.03577   0.03986   0.04264   0.04723   0.05285
  Beta virt. eigenvalues --    0.05555   0.05716   0.05871   0.06375   0.07903
  Beta virt. eigenvalues --    0.08398   0.08565   0.09049   0.09275   0.10182

 Mulliken charges and spin densities:
               1          2
     1  C   -2.873415  -0.037848
     2  C   -2.988789   0.011305
     3  C   -2.701361  -0.004936
     4  C   -3.158211   0.006416
     5  C   -3.658991   0.026350
     6  C   -4.818169   0.068632
     7  C    1.062071  -0.049863
     8  B    0.629752   1.136847
     9  F   -0.958798  -0.111882
    10  H    1.434778  -0.001323
    11  H    1.463619  -0.001331
    12  H    1.415656   0.001045
    13  H    1.262681  -0.000441
    14  H    1.342669  -0.000648
    15  H    1.379868   0.000246
    16  H    1.363700   0.000461
    17  H    1.230943   0.000078
    18  H    1.534206  -0.012102
    19  H    1.436148  -0.004389
    20  H    1.997699  -0.021198
    21  H    1.650861  -0.006063
    22  H    1.953086   0.000646
 Sum of Mulliken charges =  -0.00000   1.00000

 Dipole moment (field-independent basis, Debye):
    X=             -0.9469    Y=             -2.2789    Z=             -2.3538  Tot=              3.4103
                          Isotropic Fermi Contact Couplings
        Atom                 a.u.       MegaHertz       Gauss      10(-4) cm-1
     1  C(13)              0.00419       4.70589       1.67918       1.56971
     2  C(13)              0.00282       3.16690       1.13003       1.05636
     3  C(13)             -0.00011      -0.12827      -0.04577      -0.04279
     4  C(13)              0.00091       1.01945       0.36377       0.34005
     5  C(13)             -0.00111      -1.24522      -0.44432      -0.41536
     6  C(13)              0.06740      75.77387      27.03800      25.27544
     7  C(13)              0.01435      16.12853       5.75506       5.37990
     8  B(11)              0.18549     266.05991      94.93679      88.74803

 Normal termination of Gaussian 16 at Wed Apr  9 00:37:35 2025.
