 Gaussian 16, Revision C.01,

 ----------------------------------------------------------------------
 #t hf aug-cc-pvdz symm=none int=(grid=ultrafine) guess=(read,tcheck) s
 table=(opt,rrhf)
 ----------------------------------------------------------------------
 -----
 title
 -----
 Symbolic Z-matrix:
 Charge =  0 Multiplicity = 1

 SCF Done:  E(RHF) =  -201.526026751     A.U. after   13 cycles
 Normal termination of Gaussian 16 at Wed Apr  9 00:12:32 2025.
 Gaussian 16:  ES64L-G16RevC.01  3-Jul-2019

 ----------------------------------------------------------------------
 #t hf aug-cc-pvdz iop(5/13=1,5/36=2,99/5=2) pseudo=read geom=check gue
 ss=(read,tcheck) scf=(maxcycle=1)
 ----------------------------------------------------------------------
 -----
 title
 -----
 Structure from the checkpoint file:  "BDE49_nonexpt_23_mol1.chk"
 Charge =  0 Multiplicity = 1

                         Standard orientation:
 ---------------------------------------------------------------------
 Center     Atomic      Atomic             Coordinates (Angstroms)
 Number     Number       Type             X           Y           Z
 ---------------------------------------------------------------------
      1          5           0       -0.008711   -0.006063   -0.000024
      2          5           0       -1.702874   -0.035274    0.000001
      3          8           0        0.769857    1.129608   -0.000005
      4          1           0        0.278011    1.953930    0.000001
      5          8           0        0.648826   -1.202028    0.000014
      6          1           0        1.607639   -1.087837    0.000024
      7          1           0       -2.338608   -0.040019   -1.012060
      8          1           0       -2.338581   -0.040029    1.012079
 ---------------------------------------------------------------------

 SCF Done:  E(RHF) =  -202.368460650     A.U. after    2 cycles

 The electronic state is 1-A.
 Alpha  occ. eigenvalues --  -21.06516 -21.05212  -7.61908  -7.60241  -1.81083
 Alpha  occ. eigenvalues --   -1.64805  -0.88654  -0.72404  -0.62539  -0.54134
 Alpha  occ. eigenvalues --   -0.50608  -0.44792  -0.42598  -0.36274  -0.35177
 Alpha virt. eigenvalues --    0.01565   0.02895   0.03335   0.04308   0.08295
 Alpha virt. eigenvalues --    0.08648   0.08929   0.09916   0.10227   0.10988
 Alpha virt. eigenvalues --    0.12005   0.13260   0.14389   0.18838   0.20928

 Mulliken charges:
               1
     1  B    6.599563
     2  B    2.465629
     3  O   -3.418961
     4  H    1.291286
     5  O   -3.508666
     6  H    1.242003
     7  H   -2.335428
     8  H   -2.335427
 Sum of Mulliken charges =   0.00000

 Dipole moment (field-independent basis, Debye):
    X=              0.2779    Y=              1.1245    Z=             -0.0000  Tot=              1.1583

 Test job not archived.
 1\1\GINC-SE126\SP\RHF\Aug-CC-pVDZ\B2H4O2\OHZDE\09-Apr-2025\0\\#t hf au
 g-cc-pvdz iop(5/13=1,5/36=2,99/5=2) pseudo=read geom=check guess=(read
 ,tcheck) scf=(maxcycle=1)\\title\\0,1\B,0,-0.008711,-0.006063,-0.00002
 4\B,0,-1.702874,-0.035272,0.000001\O,0,0.769858,1.129607,-0.000005\H,0
 ,0.278013,1.95393,0.000001\O,0,0.648825,-1.202028,0.000014\H,0,1.60763
 8,-1.087838,0.000024\H,0,-2.338608,-0.040017,-1.01206\H,0,-2.338581,-0
 .040027,1.012079\\Version=ES64L-G16RevC.01\State=1-A\HF=-202.3684606\R
 MSD=1.732e-01\Dipole=0.1093321,0.4424168,-0.0000012\Quadrupole=-1.2127

 Normal termination of Gaussian 16 at Wed Apr  9 00:12:34 2025.
