 Gaussian 16, Revision C.01,

 ----------------------------------------------------------------------
 #t hf aug-cc-pvdz symm=none int=(grid=ultrafine) guess=(read,tcheck) s
 table=opt
 ----------------------------------------------------------------------
 -----
 title
 -----
 Symbolic Z-matrix:
 Charge =  0 Multiplicity = 2

 SCF Done:  E(UHF) =  -428.659454990     A.U. after   17 cycles
 Normal termination of Gaussian 16 at Wed Apr  9 00:46:58 2025.
 Gaussian 16:  ES64L-G16RevC.01  3-Jul-2019

 ----------------------------------------------------------------------
 #t hf aug-cc-pvdz iop(5/13=1,5/36=2,99/5=2) pseudo=read geom=check gue
 ss=(read,tcheck) scf=(maxcycle=1)
 ----------------------------------------------------------------------
 -----
 title
 -----
 Structure from the checkpoint file:  "BDE49_nonexpt_825_mol3.chk"
 Charge =  0 Multiplicity = 2

                         Standard orientation:
 ---------------------------------------------------------------------
 Center     Atomic      Atomic             Coordinates (Angstroms)
 Number     Number       Type             X           Y           Z
 ---------------------------------------------------------------------
      1          6           0       -1.397492    0.174038    0.000000
      2          5           0       -0.117513    0.882219   -0.000046
      3         14           0        1.576680   -0.194978   -0.000005
      4          8           0       -2.380757   -0.426315    0.000038
      5          1           0       -0.146535    2.069343   -0.000020
      6          1           0        1.317789   -1.655289    0.000011
      7          1           0        2.386882    0.135435    1.199413
      8          1           0        2.386916    0.135402   -1.199409
 ---------------------------------------------------------------------

 SCF Done:  E(UHF) =  -429.383496152     A.U. after    2 cycles

 The electronic state is 2-A.
 Alpha  occ. eigenvalues --  -76.21350 -21.18173 -11.52675  -7.62386  -5.54777
 Alpha  occ. eigenvalues --   -2.17406  -2.16791  -2.16718  -1.81429  -1.04519
 Alpha  occ. eigenvalues --   -0.77492  -0.67636  -0.59764  -0.57546  -0.52568
 Alpha  occ. eigenvalues --   -0.47316  -0.46621  -0.38529  -0.28790
 Alpha virt. eigenvalues --    0.03570   0.04047   0.04366   0.04917   0.07911
 Alpha virt. eigenvalues --    0.08193   0.08597   0.09965   0.10451   0.10708
 Alpha virt. eigenvalues --    0.12146   0.12530   0.13707   0.13963   0.15536

  Beta  occ. eigenvalues --  -76.21395 -21.16848 -11.52487  -7.61694  -5.54847
  Beta  occ. eigenvalues --   -2.17598  -2.16847  -2.16779  -1.78944  -0.98769
  Beta  occ. eigenvalues --   -0.76994  -0.66403  -0.56784  -0.51779  -0.51373
  Beta  occ. eigenvalues --   -0.46730  -0.46432  -0.37406
  Beta virt. eigenvalues --    0.02983   0.03633   0.04146   0.04418   0.06365
  Beta virt. eigenvalues --    0.07920   0.08270   0.08603   0.10023   0.10712
  Beta virt. eigenvalues --    0.10923   0.12677   0.12758   0.14320   0.15728

 Mulliken charges and spin densities:
               1          2
     1  C    0.343319   0.231931
     2  B    2.686828   0.566306
     3  Si   5.929164  -0.045424
     4  O   -2.267852   0.347107
     5  H   -1.885992  -0.122532
     6  H   -1.577234   0.000655
     7  H   -1.614120   0.010979
     8  H   -1.614112   0.010978
 Sum of Mulliken charges =  -0.00000   1.00000

 Dipole moment (field-independent basis, Debye):
    X=             -2.0957    Y=             -0.4670    Z=              0.0001  Tot=              2.1471
                          Isotropic Fermi Contact Couplings
        Atom                 a.u.       MegaHertz       Gauss      10(-4) cm-1
     1  C(13)             -0.01789     -20.11547      -7.17770      -6.70980
     2  B(11)              0.03869      55.49930      19.80353      18.51257
     3  Si(29)            -0.04606      40.93285      14.60586      13.65373
     4  O(17)              0.07587     -45.99028     -16.41048     -15.34071
     5  H(1)              -0.01187     -53.06783     -18.93592     -17.70152
     6  H(1)               0.00001       0.02684       0.00958       0.00895
     7  H(1)               0.00386      17.26566       6.16082       5.75920
     8  H(1)               0.00386      17.26553       6.16077       5.75916

 1\1\GINC-SE072\SP\UHF\Aug-CC-pVDZ\C1H4B1O1Si1(2)\OHZDE\09-Apr-2025\0\\
 #t hf aug-cc-pvdz iop(5/13=1,5/36=2,99/5=2) pseudo=read geom=check gue
 ss=(read,tcheck) scf=(maxcycle=1)\\title\\0,2\C,0,1.397492,0.174038,0.
 \B,0,0.117513,0.882219,0.000046\Si,0,-1.57668,-0.194978,0.000005\O,0,2
 .380757,-0.426315,-0.000038\H,0,0.146535,2.069343,0.00002\H,0,-1.31778
 9,-1.655289,-0.000011\H,0,-2.386882,0.135435,-1.199413\H,0,-2.386916,0
 .135402,1.199409\\Version=ES64L-G16RevC.01\State=2-A\HF=-429.3834962\S
 2=0.763276\S2-1=0.\S2A=0.750118\RMSD=1.063e-01\Dipole=0.8245103,-0.183

 Normal termination of Gaussian 16 at Wed Apr  9 00:47:00 2025.
