 Gaussian 16, Revision C.01,

 ----------------------------------------------------------------------
 #t hf aug-cc-pvdz symm=none int=(grid=ultrafine) guess=(read,tcheck) s
 table=(opt,rrhf)
 ----------------------------------------------------------------------
 -----
 title
 -----
 Symbolic Z-matrix:
 Charge =  0 Multiplicity = 1

 SCF Done:  E(RHF) =  -819.554403628     A.U. after   14 cycles
 Normal termination of Gaussian 16 at Tue Apr  8 23:53:23 2025.
 Gaussian 16:  ES64L-G16RevC.01  3-Jul-2019

 ----------------------------------------------------------------------
 #t hf aug-cc-pvdz iop(5/13=1,5/36=2,99/5=2) pseudo=read geom=check gue
 ss=(read,tcheck) scf=(maxcycle=1)
 ----------------------------------------------------------------------
 -----
 title
 -----
 Structure from the checkpoint file:  "BDE49_nonexpt_1936_mol1.chk"
 Charge =  0 Multiplicity = 1

                         Standard orientation:
 ---------------------------------------------------------------------
 Center     Atomic      Atomic             Coordinates (Angstroms)
 Number     Number       Type             X           Y           Z
 ---------------------------------------------------------------------
      1         14           0        2.353736   -0.536722    0.005285
      2          6           0        1.217242    0.991880   -0.148669
      3          1           0        3.712577   -0.135415   -0.426347
      4          1           0        1.840273   -1.615543   -0.864871
      5          1           0        2.379677   -0.987575    1.412467
      6          7           0       -0.124534    0.703510    0.246099
      7          6           0       -1.206934    0.247288    0.082334
      8         16           0       -2.682020   -0.328886   -0.051428
      9          1           0        1.227825    1.361670   -1.180719
     10          1           0        1.609559    1.793560    0.483653
 ---------------------------------------------------------------------

 SCF Done:  E(RHF) =  -820.549823331     A.U. after    2 cycles

 The electronic state is 1-A.
 Alpha  occ. eigenvalues --  -76.23736 -75.67832 -15.79436 -13.20286 -12.99277
 Alpha  occ. eigenvalues --  -12.99072 -11.53317 -11.43049  -8.02069  -5.57231
 Alpha  occ. eigenvalues --   -2.20862  -2.19562  -2.19437  -1.43566  -1.16643
 Alpha  occ. eigenvalues --   -1.04526  -0.79276  -0.71616  -0.65550  -0.58153
 Alpha  occ. eigenvalues --   -0.54498  -0.50751  -0.49029  -0.48474  -0.44167
 Alpha  occ. eigenvalues --   -0.25836  -0.24223
 Alpha virt. eigenvalues --    0.02540   0.04100   0.05052   0.05629   0.07066
 Alpha virt. eigenvalues --    0.07523   0.07781   0.08884   0.09403   0.09830
 Alpha virt. eigenvalues --    0.10962   0.12855   0.13612   0.13889   0.14622

 Mulliken charges:
               1
     1  Si   6.026727
     2  C   -3.587614
     3  H   -1.630263
     4  H   -1.660938
     5  H   -1.658108
     6  N   -3.085045
     7  C    1.251195
     8  S    1.415136
     9  H    1.502096
    10  H    1.426814
 Sum of Mulliken charges =  -0.00000

 Dipole moment (field-independent basis, Debye):
    X=              0.4678    Y=              0.0156    Z=             -0.6840  Tot=              0.8288

 Test job not archived.
 1\1\GINC-SE072\SP\RHF\Aug-CC-pVDZ\C2H5N1S1Si1\OHZDE\08-Apr-2025\0\\#t
 hf aug-cc-pvdz iop(5/13=1,5/36=2,99/5=2) pseudo=read geom=check guess=
 (read,tcheck) scf=(maxcycle=1)\\title\\0,1\Si,0,2.353736,-0.536722,0.0
 05285\C,0,1.217242,0.99188,-0.148669\H,0,3.712577,-0.135415,-0.426347\
 H,0,1.840273,-1.615543,-0.864871\H,0,2.379677,-0.987575,1.412467\N,0,-
 0.124534,0.70351,0.246099\C,0,-1.206934,0.247288,0.082334\S,0,-2.68202
 ,-0.328886,-0.051428\H,0,1.227825,1.36167,-1.180719\H,0,1.609559,1.793
 56,0.483653\\Version=ES64L-G16RevC.01\State=1-A\HF=-820.5498233\RMSD=1

 Normal termination of Gaussian 16 at Tue Apr  8 23:53:26 2025.
