 Gaussian 16, Revision C.01,

 ----------------------------------------------------------------------
 #t hf aug-cc-pvdz symm=none int=(grid=ultrafine) guess=(read,tcheck) s
 table=(opt,rrhf)
 ----------------------------------------------------------------------
 -----
 title
 -----
 Symbolic Z-matrix:
 Charge =  0 Multiplicity = 1

 SCF Done:  E(RHF) =  -1331.43354881     A.U. after   16 cycles
 Normal termination of Gaussian 16 at Wed Apr  9 00:53:03 2025.
 Gaussian 16:  ES64L-G16RevC.01  3-Jul-2019

 ----------------------------------------------------------------------
 #t hf aug-cc-pvdz iop(5/13=1,5/36=2,99/5=2) pseudo=read geom=check gue
 ss=(read,tcheck) scf=(maxcycle=1)
 ----------------------------------------------------------------------
 -----
 title
 -----
 Structure from the checkpoint file:  "BDE49_nonexpt_944_mol1.chk"
 Charge =  0 Multiplicity = 1

                         Standard orientation:
 ---------------------------------------------------------------------
 Center     Atomic      Atomic             Coordinates (Angstroms)
 Number     Number       Type             X           Y           Z
 ---------------------------------------------------------------------
      1         17           0        2.623833   -0.888183   -0.205399
      2         17           0       -2.726794   -0.679354    0.072957
      3          8           0       -0.080347   -2.235819    0.217900
      4          8           0       -1.467410    2.128422   -0.340229
      5          7           0        1.086600   -0.206719    0.175902
      6          7           0       -1.115539   -0.152356   -0.060875
      7          6           0       -0.021750   -1.049095    0.118463
      8          6           0       -0.749773    1.175362   -0.234053
      9          6           0        0.788447    1.160762   -0.267420
     10          1           0        1.083794    1.287148   -1.316863
     11          6           0        1.410611    2.244479    0.600955
     12          1           0        1.132719    2.105173    1.647146
     13          1           0        1.054780    3.220560    0.268055
     14          1           0        2.498453    2.218874    0.518936
 ---------------------------------------------------------------------

 SCF Done:  E(RHF) =  -1333.71930279     A.U. after    2 cycles

 The electronic state is 1-A.
 Alpha  occ. eigenvalues --  -99.95695 -99.95290 -21.08498 -21.07936 -15.83686
 Alpha  occ. eigenvalues --  -15.82154 -11.57093 -11.56043 -11.49254 -11.41426
 Alpha  occ. eigenvalues --  -10.52812 -10.52387  -9.73022  -9.72427  -9.71862
 Alpha  occ. eigenvalues --   -9.71559  -9.71491  -9.71234  -1.78593  -1.75255
 Alpha  occ. eigenvalues --   -1.57814  -1.48749  -1.32975  -1.22100  -1.15228
 Alpha  occ. eigenvalues --   -0.99798  -0.88434  -0.86013  -0.75322  -0.71378
 Alpha  occ. eigenvalues --   -0.68298  -0.66268  -0.63091  -0.59628  -0.58542
 Alpha  occ. eigenvalues --   -0.57559  -0.56255  -0.54035  -0.53277  -0.52564
 Alpha  occ. eigenvalues --   -0.51845  -0.50349  -0.37731  -0.36873  -0.36036
 Alpha  occ. eigenvalues --   -0.31773
 Alpha virt. eigenvalues --    0.01785   0.03068   0.04802   0.05420   0.06028
 Alpha virt. eigenvalues --    0.06329   0.08323   0.09436   0.09757   0.10165
 Alpha virt. eigenvalues --    0.10809   0.11432   0.12150   0.13235   0.13646

 Mulliken charges:
               1
     1  Cl   0.406516
     2  Cl   0.663566
     3  O   -3.168076
     4  O   -3.375841
     5  N   -2.009032
     6  N   -2.100547
     7  C    5.285596
     8  C    5.208781
     9  C   -3.002017
    10  H    1.614909
    11  C   -3.241353
    12  H    1.242873
    13  H    1.263019
    14  H    1.211606
 Sum of Mulliken charges =  -0.00000

 Dipole moment (field-independent basis, Debye):
    X=              1.0046    Y=              1.9160    Z=             -0.1810  Tot=              2.1709

 Test job not archived.
 1\1\GINC-SE460\SP\RHF\Aug-CC-pVDZ\C4H4Cl2N2O2\OHZDE\09-Apr-2025\0\\#t
 hf aug-cc-pvdz iop(5/13=1,5/36=2,99/5=2) pseudo=read geom=check guess=
 (read,tcheck) scf=(maxcycle=1)\\title\\0,1\Cl,0,2.623833,-0.888183,-0.
 205399\Cl,0,-2.726794,-0.679354,0.072957\O,0,-0.080347,-2.235819,0.217
 9\O,0,-1.46741,2.128422,-0.340229\N,0,1.0866,-0.206719,0.175902\N,0,-1
 .115539,-0.152356,-0.060875\C,0,-0.02175,-1.049095,0.118463\C,0,-0.749
 773,1.175362,-0.234053\C,0,0.788447,1.160762,-0.26742\H,0,1.083794,1.2
 87148,-1.316863\C,0,1.410611,2.244479,0.600955\H,0,1.132719,2.105173,1

 Normal termination of Gaussian 16 at Wed Apr  9 00:53:10 2025.
