 Gaussian 16, Revision C.01,

 ----------------------------------------------------------------------
 #t hf aug-cc-pvdz symm=none int=(grid=ultrafine) guess=(read,tcheck) s
 table=(opt,rrhf)
 ----------------------------------------------------------------------
 -----
 title
 -----
 Symbolic Z-matrix:
 Charge =  0 Multiplicity = 1

 SCF Done:  E(RHF) =  -658.812311543     A.U. after   15 cycles
 Normal termination of Gaussian 16 at Tue Apr  8 23:14:59 2025.
 Gaussian 16:  ES64L-G16RevC.01  3-Jul-2019

 ----------------------------------------------------------------------
 #t hf aug-cc-pvdz iop(5/13=1,5/36=2,99/5=2) pseudo=read geom=check gue
 ss=(read,tcheck) scf=(maxcycle=1)
 ----------------------------------------------------------------------
 -----
 title
 -----
 Structure from the checkpoint file:  "BDE49_expt_806_mol1.chk"
 Charge =  0 Multiplicity = 1

                         Standard orientation:
 ---------------------------------------------------------------------
 Center     Atomic      Atomic             Coordinates (Angstroms)
 Number     Number       Type             X           Y           Z
 ---------------------------------------------------------------------
      1         14           0       -1.640734   -0.393821   -0.140427
      2          1           0       -1.911565   -1.680071   -0.820551
      3          9           0       -2.220042   -0.541725    1.368749
      4          6           0       -2.553638    1.014871   -0.948939
      5          6           0        0.204600   -0.134285   -0.068895
      6          1           0       -3.631429    0.830610   -0.939219
      7          1           0       -2.236961    1.128325   -1.990060
      8          1           0       -2.370632    1.962989   -0.435677
      9          6           0        1.078765   -1.190435   -0.371261
     10          6           0        2.460543   -1.019082   -0.319198
     11          6           0        2.994130    0.216265    0.040152
     12          6           0        2.144303    1.278608    0.345740
     13          6           0        0.764713    1.103556    0.289503
     14          1           0        0.119443    1.942633    0.530690
     15          1           0        0.675438   -2.158450   -0.651786
     16          1           0        3.118898   -1.847259   -0.557050
     17          1           0        4.069185    0.352210    0.082001
     18          1           0        2.557773    2.241046    0.626289
 ---------------------------------------------------------------------

 SCF Done:  E(RHF) =  -660.628047854     A.U. after    2 cycles

 The electronic state is 1-A.
 Alpha  occ. eigenvalues --  -76.23503 -29.24618 -11.51674 -11.43480 -11.42958
 Alpha  occ. eigenvalues --  -11.41115 -11.40731 -11.36497 -11.35514  -5.58176
 Alpha  occ. eigenvalues --   -2.23532  -2.21874  -2.20825  -1.34112  -1.09900
 Alpha  occ. eigenvalues --   -1.09536  -1.04910  -0.87463  -0.86610  -0.81071
 Alpha  occ. eigenvalues --   -0.71425  -0.64562  -0.60050  -0.58885  -0.57703
 Alpha  occ. eigenvalues --   -0.56445  -0.55104  -0.52403  -0.50430  -0.46635
 Alpha  occ. eigenvalues --   -0.44797  -0.41682  -0.34834  -0.33481  -0.31492
 Alpha  occ. eigenvalues --   -0.30454  -0.29220
 Alpha virt. eigenvalues --    0.03111   0.04715   0.05144   0.05393   0.06127
 Alpha virt. eigenvalues --    0.06257   0.07144   0.07631   0.08139   0.08214
 Alpha virt. eigenvalues --    0.09430   0.10436   0.10950   0.11399   0.12451

 Mulliken charges:
               1
     1  Si   4.403239
     2  H   -2.046641
     3  F   -1.100035
     4  C   -5.336086
     5  C    0.959728
     6  H    1.240216
     7  H    1.215832
     8  H    1.396566
     9  C   -2.871995
    10  C   -0.880377
    11  C   -2.092187
    12  C   -0.969758
    13  C   -2.212342
    14  H    1.813145
    15  H    1.888801
    16  H    1.552226
    17  H    1.510604
    18  H    1.529061
 Sum of Mulliken charges =   0.00000

 Dipole moment (field-independent basis, Debye):
    X=              0.2096    Y=              0.4976    Z=              1.5287  Tot=              1.6213

 Test job not archived.
 1\1\GINC-SE094\SP\RHF\Aug-CC-pVDZ\C7H9F1Si1\OHZDE\08-Apr-2025\0\\#t hf
  aug-cc-pvdz iop(5/13=1,5/36=2,99/5=2) pseudo=read geom=check guess=(r
 ead,tcheck) scf=(maxcycle=1)\\title\\0,1\Si,0,-1.640734,-0.393821,-0.1
 40427\H,0,-1.911565,-1.680071,-0.820551\F,0,-2.220042,-0.541725,1.3687
 49\C,0,-2.553638,1.014871,-0.948939\C,0,0.2046,-0.134285,-0.068895\H,0
 ,-3.631429,0.83061,-0.939219\H,0,-2.236961,1.128325,-1.99006\H,0,-2.37
 0632,1.962989,-0.435677\C,0,1.078765,-1.190435,-0.371261\C,0,2.460543,
 -1.019082,-0.319198\C,0,2.99413,0.216265,0.040152\C,0,2.144303,1.27860

 Normal termination of Gaussian 16 at Tue Apr  8 23:15:08 2025.
