 Gaussian 16, Revision C.01,

 ----------------------------------------------------------------------
 #t hf aug-cc-pvdz symm=none int=(grid=ultrafine) guess=(read,tcheck) s
 table=opt
 ----------------------------------------------------------------------
 -----
 title
 -----
 Symbolic Z-matrix:
 Charge =  0 Multiplicity = 2

 SCF Done:  E(UHF) =  -664.871370525     A.U. after   21 cycles
 Normal termination of Gaussian 16 at Tue Apr  8 23:02:13 2025.
 Gaussian 16:  ES64L-G16RevC.01  3-Jul-2019

 ----------------------------------------------------------------------
 #t hf aug-cc-pvdz iop(5/13=1,5/36=2,99/5=2) pseudo=read geom=check gue
 ss=(read,tcheck) scf=(maxcycle=1)
 ----------------------------------------------------------------------
 -----
 title
 -----
 Structure from the checkpoint file:  "BDE49_expt_1982_mol2.chk"
 Charge =  0 Multiplicity = 2

                         Standard orientation:
 ---------------------------------------------------------------------
 Center     Atomic      Atomic             Coordinates (Angstroms)
 Number     Number       Type             X           Y           Z
 ---------------------------------------------------------------------
      1         16           0        0.927321    0.103094   -0.262255
      2          8           0        2.084630   -0.798567   -0.294176
      3          8           0        0.998990    1.415446    0.391422
      4          6           0       -0.435690   -0.845553    0.587758
      5          6           0       -1.745380   -0.070636    0.623628
      6          1           0       -0.018362   -1.036748    1.579380
      7          1           0       -0.495482   -1.783307    0.032918
      8          6           0       -2.377917    0.145075   -0.753660
      9          1           0       -1.575672    0.888366    1.119516
     10          1           0       -2.434321   -0.635144    1.262599
     11          1           0       -1.729660    0.742411   -1.400788
     12          1           0       -3.329274    0.673816   -0.664917
     13          1           0       -2.569404   -0.807248   -1.256953
 ---------------------------------------------------------------------

 SCF Done:  E(UHF) =  -666.335786911     A.U. after    2 cycles

 The electronic state is 2-A.
 Alpha  occ. eigenvalues --  -75.86335 -21.08168 -21.08054 -13.47391 -13.33921
 Alpha  occ. eigenvalues --  -13.23168 -11.46406 -11.42509 -11.38306  -8.21304
 Alpha  occ. eigenvalues --   -1.83052  -1.67278  -1.26070  -1.07801  -0.94728
 Alpha  occ. eigenvalues --   -0.85757  -0.67970  -0.65938  -0.60339  -0.58417
 Alpha  occ. eigenvalues --   -0.54475  -0.52174  -0.50029  -0.49389  -0.47072
 Alpha  occ. eigenvalues --   -0.42098  -0.38289  -0.37460  -0.27823
 Alpha virt. eigenvalues --    0.02990   0.04502   0.05001   0.05935   0.06175
 Alpha virt. eigenvalues --    0.06642   0.06755   0.09210   0.10274   0.12564
 Alpha virt. eigenvalues --    0.13753   0.13907   0.14372   0.14633   0.14919

  Beta  occ. eigenvalues --  -75.85951 -21.06787 -21.06708 -13.47431 -13.33697
  Beta  occ. eigenvalues --  -13.20992 -11.46086 -11.42405 -11.38287  -8.20808
  Beta  occ. eigenvalues --   -1.80441  -1.63723  -1.25246  -1.06069  -0.91983
  Beta  occ. eigenvalues --   -0.83268  -0.67201  -0.65458  -0.60072  -0.55875
  Beta  occ. eigenvalues --   -0.52147  -0.51767  -0.49716  -0.47965  -0.44221
  Beta  occ. eigenvalues --   -0.36577  -0.35884  -0.34545
  Beta virt. eigenvalues --    0.01922   0.04312   0.04827   0.05247   0.06210
  Beta virt. eigenvalues --    0.06641   0.06717   0.07828   0.09439   0.10448
  Beta virt. eigenvalues --    0.13068   0.13851   0.14045   0.14408   0.14788

 Mulliken charges and spin densities:
               1          2
     1  S    5.183959   0.329726
     2  O   -2.293229   0.254349
     3  O   -2.284553   0.247740
     4  C   -3.678515   0.285273
     5  C   -2.951950  -0.090279
     6  H    1.544874  -0.002530
     7  H    1.556471  -0.022599
     8  C   -3.656469   0.014264
     9  H    1.476701  -0.011967
    10  H    1.277438   0.004980
    11  H    1.398999  -0.008977
    12  H    1.144816   0.001006
    13  H    1.281459  -0.000987
 Sum of Mulliken charges =  -0.00000   1.00000

 Dipole moment (field-independent basis, Debye):
    X=             -2.5116    Y=             -0.6982    Z=             -0.0072  Tot=              2.6068
                          Isotropic Fermi Contact Couplings
        Atom                 a.u.       MegaHertz       Gauss      10(-4) cm-1
     1  S(33)              0.69662     239.27159      85.37805      79.81241
     2  O(17)              0.07953     -48.20808     -17.20184     -16.08049
     3  O(17)              0.07900     -47.89193     -17.08903     -15.97503
     4  C(13)              0.06984      78.51590      28.01643      26.19009
     5  C(13)             -0.00581      -6.53569      -2.33210      -2.18007
     6  H(1)               0.00175       7.83898       2.79714       2.61480
     7  H(1)              -0.00290     -12.95162      -4.62146      -4.32020
     8  C(13)              0.00066       0.74009       0.26408       0.24687

 Normal termination of Gaussian 16 at Tue Apr  8 23:02:17 2025.
