 Gaussian 16, Revision C.01,

 ----------------------------------------------------------------------
 #t hf aug-cc-pvdz symm=none int=(grid=ultrafine) guess=(read,tcheck) s
 table=(opt,rrhf)
 ----------------------------------------------------------------------
 -----
 title
 -----
 Symbolic Z-matrix:
 Charge =  0 Multiplicity = 1

 SCF Done:  E(RHF) =  -468.285798584     A.U. after   11 cycles
 Normal termination of Gaussian 16 at Tue Apr  8 23:55:21 2025.
 Gaussian 16:  ES64L-G16RevC.01  3-Jul-2019

 ----------------------------------------------------------------------
 #t hf aug-cc-pvdz iop(5/13=1,5/36=2,99/5=2) pseudo=read geom=check gue
 ss=(read,tcheck) scf=(maxcycle=1)
 ----------------------------------------------------------------------
 -----
 title
 -----
 Structure from the checkpoint file:  "BDE49_nonexpt_1973_mol1.chk"
 Charge =  0 Multiplicity = 1

                         Standard orientation:
 ---------------------------------------------------------------------
 Center     Atomic      Atomic             Coordinates (Angstroms)
 Number     Number       Type             X           Y           Z
 ---------------------------------------------------------------------
      1         14           0        0.259288    0.255676    0.000000
      2          6           0        0.259288   -0.777155    1.552298
      3          9           0       -1.081296    1.169120   -0.000000
      4          1           0       -0.596510   -1.457960    1.577103
      5          1           0        0.217544   -0.147059    2.444854
      6          6           0        0.259288   -0.777155   -1.552298
      7          1           0       -0.596510   -1.457960   -1.577103
      8          1           0        1.171417   -1.379983   -1.610331
      9          1           0        0.217544   -0.147059   -2.444854
     10          1           0        1.171417   -1.379983    1.610331
     11          1           0        1.405279    1.194315    0.000000
 ---------------------------------------------------------------------

 SCF Done:  E(RHF) =  -469.212389193     A.U. after    2 cycles

 The electronic state is 1-A'.
 Alpha  occ. eigenvalues --  -76.23070 -29.24666 -11.35177 -11.35097  -5.57752
 Alpha  occ. eigenvalues --   -2.22749  -2.20710  -2.19329  -1.07641  -1.02116
 Alpha  occ. eigenvalues --   -0.80853  -0.59893  -0.57709  -0.55857  -0.55534
 Alpha  occ. eigenvalues --   -0.53805  -0.46241  -0.43489  -0.31726  -0.30697
 Alpha  occ. eigenvalues --   -0.30188
 Alpha virt. eigenvalues --    0.03237   0.05071   0.05805   0.06156   0.07035
 Alpha virt. eigenvalues --    0.07207   0.07486   0.08736   0.09374   0.09795
 Alpha virt. eigenvalues --    0.14015   0.15529   0.15993   0.17415   0.18154

 Mulliken charges:
               1
     1  Si   5.863556
     2  C   -5.103307
     3  F   -1.052958
     4  H    1.242295
     5  H    1.240719
     6  C   -5.103307
     7  H    1.242295
     8  H    1.280033
     9  H    1.240719
    10  H    1.280033
    11  H   -2.130079
 Sum of Mulliken charges =  -0.00000

 Dipole moment (field-independent basis, Debye):
    X=             -1.5263    Y=              0.2683    Z=             -0.0000  Tot=              1.5497

 Test job not archived.
 1\1\GINC-SE461\SP\RHF\Aug-CC-pVDZ\C2H7F1Si1\OHZDE\08-Apr-2025\0\\#t hf
  aug-cc-pvdz iop(5/13=1,5/36=2,99/5=2) pseudo=read geom=check guess=(r
 ead,tcheck) scf=(maxcycle=1)\\title\\0,1\Si,0,0.259288,0.255676,0.\C,0
 ,0.259288,-0.777155,1.552298\F,0,-1.081296,1.16912,0.\H,0,-0.59651,-1.
 45796,1.577103\H,0,0.217544,-0.147059,2.444854\C,0,0.259288,-0.777155,
 -1.552298\H,0,-0.59651,-1.45796,-1.577103\H,0,1.171417,-1.379983,-1.61
 0331\H,0,0.217544,-0.147059,-2.444854\H,0,1.171417,-1.379983,1.610331\
 H,0,1.405279,1.194315,0.\\Version=ES64L-G16RevC.01\State=1-A'\HF=-469.

 Normal termination of Gaussian 16 at Tue Apr  8 23:55:23 2025.
