 Gaussian 16, Revision C.01,

 ----------------------------------------------------------------------
 #t hf aug-cc-pvdz symm=none int=(grid=ultrafine) guess=(read,tcheck) s
 table=opt
 ----------------------------------------------------------------------
 -----
 title
 -----
 Symbolic Z-matrix:
 Charge =  0 Multiplicity = 2

 SCF Done:  E(UHF) =  -266.239032826     a.u. after   13 cycles
 Normal termination of Gaussian 16 at Tue Apr  8 22:58:15 2025.
 Gaussian 16:  ES64L-G16RevC.01  3-Jul-2019

 ----------------------------------------------------------------------
 #t hf aug-cc-pvdz iop(5/13=1,5/36=2,99/5=2) pseudo=read geom=check gue
 ss=(read,tcheck) scf=(maxcycle=1)
 ----------------------------------------------------------------------
 -----
 title
 -----
 Structure from the checkpoint file:  "BDE49_expt_1876_mol2.chk"
 Charge =  0 Multiplicity = 2

                         Standard orientation:
 ---------------------------------------------------------------------
 Center     Atomic      Atomic             Coordinates (Angstroms)
 Number     Number       Type             X           Y           Z
 ---------------------------------------------------------------------
      1          8           0        1.742095   -0.593681   -0.000104
      2          6           0        0.620281   -0.015485    0.000160
      3          8           0        0.743675    1.231309   -0.000079
      4          6           0       -1.907782    0.177686    0.000027
      5          1           0       -2.825666   -0.413147   -0.000052
      6          1           0       -1.916328    0.820812   -0.881813
      7          1           0       -1.916418    0.820718    0.881935
      8          6           0       -0.689033   -0.747817    0.000042
      9          1           0       -0.684235   -1.407815   -0.874086
     10          1           0       -0.684316   -1.407900    0.874105
 ---------------------------------------------------------------------

 SCF Done:  E(UHF) =  -267.358097635     A.U. after    2 cycles

 The electronic state is 2-A.
 Alpha  occ. eigenvalues --  -21.19140 -21.04621 -11.53214 -11.44078 -11.38711
 Alpha  occ. eigenvalues --   -1.87832  -1.62565  -1.20704  -0.97101  -0.76520
 Alpha  occ. eigenvalues --   -0.67233  -0.66932  -0.60670  -0.56740  -0.54067
 Alpha  occ. eigenvalues --   -0.50283  -0.49831  -0.42320  -0.33839  -0.30825
 Alpha virt. eigenvalues --    0.03116   0.05157   0.05608   0.06017   0.06773
 Alpha virt. eigenvalues --    0.10049   0.11126   0.11698   0.12147   0.13335
 Alpha virt. eigenvalues --    0.13873   0.15044   0.16941   0.17803   0.18117

  Beta  occ. eigenvalues --  -21.15305 -21.04153 -11.53467 -11.44038 -11.38688
  Beta  occ. eigenvalues --   -1.80389  -1.56751  -1.20267  -0.96490  -0.75255
  Beta  occ. eigenvalues --   -0.66806  -0.63896  -0.55898  -0.55480  -0.52638
  Beta  occ. eigenvalues --   -0.49817  -0.47802  -0.31829  -0.30180
  Beta virt. eigenvalues --    0.03127   0.04849   0.05608   0.06002   0.06777
  Beta virt. eigenvalues --    0.09389   0.10182   0.11375   0.11707   0.12673
  Beta virt. eigenvalues --    0.13690   0.14893   0.16424   0.16927   0.17876

 Mulliken charges and spin densities:
               1          2
     1  O   -2.313129   1.165099
     2  C    5.146313  -0.387782
     3  O   -2.594182   0.054473
     4  C   -3.424909   0.005534
     5  H    1.111887   0.002294
     6  H    1.274583  -0.000665
     7  H    1.274467  -0.000658
     8  C   -3.296584   0.131355
     9  H    1.410666   0.015172
    10  H    1.410889   0.015178
 Sum of Mulliken charges =  -0.00000   1.00000

 Dipole moment (field-independent basis, Debye):
    X=             -1.4199    Y=             -1.6496    Z=             -0.0000  Tot=              2.1765
                          Isotropic Fermi Contact Couplings
        Atom                 a.u.       MegaHertz       Gauss      10(-4) cm-1
     1  O(17)              0.19676    -119.27767     -42.56124     -39.78675
     2  C(13)             -0.03162     -35.54312     -12.68267     -11.85591
     3  O(17)              0.03482     -21.10714      -7.53155      -7.04058
     4  C(13)              0.00387       4.34946       1.55200       1.45082
     5  H(1)               0.00090       4.02414       1.43591       1.34231
     6  H(1)              -0.00004      -0.16474      -0.05879      -0.05495
     7  H(1)              -0.00004      -0.16477      -0.05879      -0.05496
     8  C(13)              0.00628       7.06032       2.51930       2.35507

 Normal termination of Gaussian 16 at Tue Apr  8 22:58:18 2025.
