 Gaussian 16, Revision C.01,

 ----------------------------------------------------------------------
 #t hf aug-cc-pvdz symm=none int=(grid=ultrafine) guess=(read,tcheck) s
 table=opt
 ----------------------------------------------------------------------
 -----
 title
 -----
 Symbolic Z-matrix:
 Charge =  0 Multiplicity = 2

 SCF Done:  E(UHF) =  -262.531011116     A.U. after   16 cycles
 Normal termination of Gaussian 16 at Wed Apr  9 00:34:58 2025.
 Gaussian 16:  ES64L-G16RevC.01  3-Jul-2019

 ----------------------------------------------------------------------
 #t hf aug-cc-pvdz iop(5/13=1,5/36=2,99/5=2) pseudo=read geom=check gue
 ss=(read,tcheck) scf=(maxcycle=1)
 ----------------------------------------------------------------------
 -----
 title
 -----
 Structure from the checkpoint file:  "BDE49_nonexpt_456_mol2.chk"
 Charge =  0 Multiplicity = 2

                         Standard orientation:
 ---------------------------------------------------------------------
 Center     Atomic      Atomic             Coordinates (Angstroms)
 Number     Number       Type             X           Y           Z
 ---------------------------------------------------------------------
      1          1           0        0.869810    1.883359   -0.954479
      2          5           0        0.856654    1.298723    0.076363
      3          6           0       -0.013535    0.025716    0.412862
      4          9           0       -1.257752    0.075878   -0.179114
      5          9           0        0.712927   -0.994916   -0.194159
      6          1           0       -0.168443   -0.259927    1.454950
 ---------------------------------------------------------------------

 SCF Done:  E(UHF) =  -263.471603156     A.U. after    2 cycles

 The electronic state is 2-A.
 Alpha  occ. eigenvalues --  -29.28604 -29.28341 -11.48688  -7.66905  -1.29235
 Alpha  occ. eigenvalues --   -0.84517  -0.78658  -0.72800  -0.58132  -0.44722
 Alpha  occ. eigenvalues --   -0.38946  -0.36414  -0.30801  -0.29598  -0.23493
 Alpha  occ. eigenvalues --   -0.22205
 Alpha virt. eigenvalues --    0.03053   0.03779   0.04661   0.06259   0.09297
 Alpha virt. eigenvalues --    0.10610   0.11668   0.13757   0.15451   0.17220
 Alpha virt. eigenvalues --    0.21791   0.23222   0.23597   0.25520   0.26574

  Beta  occ. eigenvalues --  -29.28586 -29.28184 -11.48653  -7.65063  -1.28453
  Beta  occ. eigenvalues --   -0.81061  -0.78096  -0.71932  -0.56636  -0.44253
  Beta  occ. eigenvalues --   -0.38273  -0.30641  -0.30494  -0.25228  -0.22829
  Beta virt. eigenvalues --    0.02465   0.04109   0.04140   0.06080   0.08108
  Beta virt. eigenvalues --    0.09782   0.12360   0.12922   0.15371   0.16106
  Beta virt. eigenvalues --    0.18235   0.22307   0.23616   0.24340   0.25871

 Mulliken charges and spin densities:
               1          2
     1  H   -1.400307  -0.008232
     2  B    2.124242   1.022199
     3  C   -2.635344  -0.039696
     4  F    0.128343   0.025043
     5  F    0.154091  -0.001468
     6  H    1.628974   0.002154
 Sum of Mulliken charges =  -0.00000   1.00000

 Dipole moment (field-independent basis, Debye):
    X=             -1.0379    Y=             -1.5652    Z=             -1.1587  Tot=              2.2067
                          Isotropic Fermi Contact Couplings
        Atom                 a.u.       MegaHertz       Gauss      10(-4) cm-1
     1  H(1)               0.00746      33.35562      11.90211      11.12624
     2  B(11)              0.16132     231.38938      82.56549      77.18319
     3  C(13)              0.01244      13.98983       4.99192       4.66650
     4  F(19)              0.01731      72.83153      25.98810      24.29398
     5  F(19)              0.00090       3.76707       1.34418       1.25656
     6  H(1)               0.00108       4.81468       1.71800       1.60601
 --------------------------------------------------------
       Center         ----  Spin Dipole Couplings  ----

 Normal termination of Gaussian 16 at Wed Apr  9 00:35:00 2025.
