 Gaussian 16, Revision C.01,

 ----------------------------------------------------------------------
 #t hf aug-cc-pvdz symm=none int=(grid=ultrafine) guess=(read,tcheck) s
 table=(opt,rrhf)
 ----------------------------------------------------------------------
 -----
 title
 -----
 Symbolic Z-matrix:
 Charge =  0 Multiplicity = 1

 SCF Done:  E(RHF) =  -390.927653471     A.U. after   13 cycles
 Normal termination of Gaussian 16 at Wed Apr  9 00:33:16 2025.
 Gaussian 16:  ES64L-G16RevC.01  3-Jul-2019

 ----------------------------------------------------------------------
 #t hf aug-cc-pvdz iop(5/13=1,5/36=2,99/5=2) pseudo=read geom=check gue
 ss=(read,tcheck) scf=(maxcycle=1)
 ----------------------------------------------------------------------
 -----
 title
 -----
 Structure from the checkpoint file:  "BDE49_nonexpt_409_mol1.chk"
 Charge =  0 Multiplicity = 1

                         Standard orientation:
 ---------------------------------------------------------------------
 Center     Atomic      Atomic             Coordinates (Angstroms)
 Number     Number       Type             X           Y           Z
 ---------------------------------------------------------------------
      1          9           0       -0.801375    1.331305    0.000000
      2          5           0       -0.853190    0.020851    0.000001
      3          6           0        1.492838   -0.244593   -0.000001
      4          7           0        2.581842    0.136928    0.000000
      5          8           0        0.297218   -0.745623    0.000000
      6          9           0       -1.992150   -0.623550    0.000000
 ---------------------------------------------------------------------

 SCF Done:  E(RHF) =  -392.384077377     A.U. after    2 cycles

 The electronic state is 1-A.
 Alpha  occ. eigenvalues --  -29.30810 -29.30429 -21.17403 -15.78369 -11.51493
 Alpha  occ. eigenvalues --   -7.79099  -1.93808  -1.32187  -1.15859  -0.86494
 Alpha  occ. eigenvalues --   -0.80811  -0.66452  -0.66041  -0.55859  -0.54012
 Alpha  occ. eigenvalues --   -0.52640  -0.50995  -0.44623  -0.39807  -0.38843
 Alpha  occ. eigenvalues --   -0.35894  -0.31255
 Alpha virt. eigenvalues --   -0.04036   0.03233   0.04420   0.05420   0.08057
 Alpha virt. eigenvalues --    0.12458   0.12837   0.12987   0.13944   0.15618
 Alpha virt. eigenvalues --    0.17821   0.18506   0.18578   0.20249   0.20400

 Mulliken charges:
               1
     1  F   -0.335283
     2  B    1.819640
     3  C    4.084850
     4  N   -2.520713
     5  O   -3.184425
     6  F    0.135930
 Sum of Mulliken charges =  -0.00000

 Dipole moment (field-independent basis, Debye):
    X=             -5.3884    Y=              1.2025    Z=              0.0000  Tot=              5.5209

 Test job not archived.
 1\1\GINC-SE132\SP\RHF\Aug-CC-pVDZ\C1B1F2N1O1\OHZDE\09-Apr-2025\0\\#t h
 f aug-cc-pvdz iop(5/13=1,5/36=2,99/5=2) pseudo=read geom=check guess=(
 read,tcheck) scf=(maxcycle=1)\\title\\0,1\F,0,-0.801375,1.331305,0.\B,
 0,-0.85319,0.020851,0.000001\C,0,1.492838,-0.244593,-0.000001\N,0,2.58
 1842,0.136928,0.\O,0,0.297218,-0.745623,0.\F,0,-1.99215,-0.62355,0.\\V
 ersion=ES64L-G16RevC.01\State=1-A\HF=-392.3840774\RMSD=2.388e-01\Dipol
 e=-2.1199637,0.4730854,0.\Quadrupole=-2.5577154,3.3007337,-0.7430183,0
 .4005065,0.0000007,0.\PG=C01 [X(C1B1F2N1O1)]\\@

 Normal termination of Gaussian 16 at Wed Apr  9 00:33:18 2025.
