 Gaussian 16, Revision C.01,

 ----------------------------------------------------------------------
 #t hf aug-cc-pvdz symm=none int=(grid=ultrafine) guess=(read,tcheck) s
 table=opt
 ----------------------------------------------------------------------
 -----
 title
 -----
 Symbolic Z-matrix:
 Charge =  0 Multiplicity = 2

 SCF Done:  E(UHF) =  -588.919189626     A.U. after   20 cycles
 Normal termination of Gaussian 16 at Tue Apr  8 23:17:02 2025.
 Gaussian 16:  ES64L-G16RevC.01  3-Jul-2019

 ----------------------------------------------------------------------
 #t hf aug-cc-pvdz iop(5/13=1,5/36=2,99/5=2) pseudo=read geom=check gue
 ss=(read,tcheck) scf=(maxcycle=1)
 ----------------------------------------------------------------------
 -----
 title
 -----
 Structure from the checkpoint file:  "BDE49_nonexpt_1005_mol2.chk"
 Charge =  0 Multiplicity = 2

                         Standard orientation:
 ---------------------------------------------------------------------
 Center     Atomic      Atomic             Coordinates (Angstroms)
 Number     Number       Type             X           Y           Z
 ---------------------------------------------------------------------
      1          6           0       -0.989368   -0.762376    0.000087
      2          6           0        0.139225    0.239337    0.000175
      3         16           0        1.822028   -0.313701   -0.000115
      4          8           0        0.010411    1.443792   -0.000018
      5          6           0       -2.376000   -0.117875    0.000032
      6          1           0       -0.847939   -1.408635    0.873935
      7          1           0       -0.847853   -1.408597   -0.873777
      8          1           0       -2.517332    0.510553    0.880916
      9          1           0       -3.148506   -0.889542   -0.000024
     10          1           0       -2.517245    0.510594   -0.880837
 ---------------------------------------------------------------------

 SCF Done:  E(UHF) =  -589.984635034     A.U. after    2 cycles

 The electronic state is 2-A.
 Alpha  occ. eigenvalues --  -75.73129 -21.06968 -13.16938 -13.08534 -13.04205
 Alpha  occ. eigenvalues --  -11.51626 -11.43045 -11.38012  -8.06979  -1.73234
 Alpha  occ. eigenvalues --   -1.22361  -1.13944  -0.95489  -0.74361  -0.65036
 Alpha  occ. eigenvalues --   -0.63262  -0.55393  -0.52612  -0.52351  -0.47068
 Alpha  occ. eigenvalues --   -0.46133  -0.32681  -0.26775  -0.26643
 Alpha virt. eigenvalues --    0.02937   0.05257   0.05828   0.05993   0.06769
 Alpha virt. eigenvalues --    0.07092   0.09883   0.12010   0.12575   0.12663
 Alpha virt. eigenvalues --    0.14186   0.14489   0.14843   0.15923   0.17906

  Beta  occ. eigenvalues --  -75.72117 -21.06774 -13.16368 -13.03574 -13.02464
  Beta  occ. eigenvalues --  -11.51726 -11.43045 -11.38001  -8.05845  -1.72830
  Beta  occ. eigenvalues --   -1.21167  -1.07768  -0.94274  -0.73444  -0.65045
  Beta  occ. eigenvalues --   -0.62024  -0.54893  -0.52602  -0.51551  -0.46725
  Beta  occ. eigenvalues --   -0.46057  -0.27515  -0.25223
  Beta virt. eigenvalues --    0.02728   0.03285   0.05838   0.05905   0.06242
  Beta virt. eigenvalues --    0.06939   0.07097   0.10301   0.12202   0.12559
  Beta virt. eigenvalues --    0.13131   0.14214   0.14512   0.15781   0.17753

 Mulliken charges and spin densities:
               1          2
     1  C   -3.512180   0.008455
     2  C    1.963205  -0.069962
     3  S    0.819987   1.094300
     4  O   -2.779623  -0.018621
     5  C   -3.174201  -0.008001
     6  H    1.514417  -0.003270
     7  H    1.514423  -0.003284
     8  H    1.253209  -0.000062
     9  H    1.147519   0.000508
    10  H    1.253244  -0.000063
 Sum of Mulliken charges =   0.00000   1.00000

 Dipole moment (field-independent basis, Debye):
    X=              0.0872    Y=             -1.1977    Z=             -0.0005  Tot=              1.2009
                          Isotropic Fermi Contact Couplings
        Atom                 a.u.       MegaHertz       Gauss      10(-4) cm-1
     1  C(13)             -0.00021      -0.23333      -0.08326      -0.07783
     2  C(13)             -0.01103     -12.40375      -4.42596      -4.13744
     3  S(33)              0.31692     108.85511      38.84221      36.31016
     4  O(17)              0.02913     -17.65750      -6.30064      -5.88991
     5  C(13)              0.00298       3.34859       1.19486       1.11697
     6  H(1)               0.00014       0.61863       0.22074       0.20635
     7  H(1)               0.00014       0.61946       0.22104       0.20663
     8  H(1)              -0.00006      -0.25841      -0.09221      -0.08620

 Normal termination of Gaussian 16 at Tue Apr  8 23:17:08 2025.
