 Gaussian 16, Revision C.01,

 ----------------------------------------------------------------------
 #t hf aug-cc-pvdz symm=none int=(grid=ultrafine) guess=(read,tcheck) s
 table=(opt,rrhf)
 ----------------------------------------------------------------------
 -----
 title
 -----
 Symbolic Z-matrix:
 Charge =  0 Multiplicity = 1

 SCF Done:  E(RHF) =  -371.319714241     A.U. after   12 cycles
 Normal termination of Gaussian 16 at Wed Apr  9 00:35:06 2025.
 Gaussian 16:  ES64L-G16RevC.01  3-Jul-2019

 ----------------------------------------------------------------------
 #t hf aug-cc-pvdz iop(5/13=1,5/36=2,99/5=2) pseudo=read geom=check gue
 ss=(read,tcheck) scf=(maxcycle=1)
 ----------------------------------------------------------------------
 -----
 title
 -----
 Structure from the checkpoint file:  "BDE49_nonexpt_446_mol1.chk"
 Charge =  0 Multiplicity = 1

                         Standard orientation:
 ---------------------------------------------------------------------
 Center     Atomic      Atomic             Coordinates (Angstroms)
 Number     Number       Type             X           Y           Z
 ---------------------------------------------------------------------
      1          9           0       -2.373881    0.012930   -0.109345
      2          8           0       -0.421925   -1.224084    0.014723
      3          7           0       -0.316676    1.203623    0.084107
      4          6           0        1.705261   -0.069317   -0.389028
      5          6           0        1.141550    1.246570    0.154205
      6          6           0        0.992435   -1.269310    0.231193
      7          5           0       -1.032618   -0.003831   -0.001020
      8          1           0        1.350404   -2.202889   -0.207337
      9          1           0        1.181708   -1.310619    1.310971
     10          1           0        2.778006   -0.134230   -0.183986
     11          1           0        1.572485   -0.100467   -1.475447
     12          1           0       -0.803718    2.084715    0.111598
     13          1           0        1.522083    2.084506   -0.438454
     14          1           0        1.483703    1.401427    1.187110
 ---------------------------------------------------------------------

 SCF Done:  E(RHF) =  -372.894636762     A.U. after    2 cycles

 The electronic state is 1-A.
 Alpha  occ. eigenvalues --  -29.21862 -21.01985 -15.70574 -11.44782 -11.43684
 Alpha  occ. eigenvalues --  -11.37700  -7.65476  -1.79448  -1.38191  -1.19088
 Alpha  occ. eigenvalues --   -0.96701  -0.94222  -0.79023  -0.73517  -0.66183
 Alpha  occ. eigenvalues --   -0.60909  -0.59784  -0.59154  -0.54822  -0.52607
 Alpha  occ. eigenvalues --   -0.46946  -0.45438  -0.42802  -0.34111  -0.32956
 Alpha  occ. eigenvalues --   -0.30616  -0.26430
 Alpha virt. eigenvalues --    0.02983   0.04539   0.04976   0.05703   0.05865
 Alpha virt. eigenvalues --    0.06389   0.06619   0.06839   0.07025   0.08614
 Alpha virt. eigenvalues --    0.10135   0.12735   0.13363   0.13906   0.14204

 Mulliken charges:
               1
     1  F   -1.443169
     2  O   -3.595781
     3  N   -3.136388
     4  C   -2.550416
     5  C   -1.610832
     6  C   -0.794619
     7  B    3.872481
     8  H    1.295614
     9  H    1.533097
    10  H    1.343900
    11  H    1.263597
    12  H    1.058772
    13  H    1.382517
    14  H    1.381228
 Sum of Mulliken charges =  -0.00000

 Dipole moment (field-independent basis, Debye):
    X=             -0.2855    Y=              1.0145    Z=             -0.0568  Tot=              1.0554

 Test job not archived.
 1\1\GINC-SE250\SP\RHF\Aug-CC-pVDZ\C3H7B1F1N1O1\OHZDE\09-Apr-2025\0\\#t
  hf aug-cc-pvdz iop(5/13=1,5/36=2,99/5=2) pseudo=read geom=check guess
 =(read,tcheck) scf=(maxcycle=1)\\title\\0,1\F,0,-2.373881,0.01293,-0.1
 09345\O,0,-0.421925,-1.224084,0.014723\N,0,-0.316676,1.203623,0.084107
 \C,0,1.705261,-0.069317,-0.389028\C,0,1.14155,1.24657,0.154205\C,0,0.9
 92435,-1.26931,0.231193\B,0,-1.032618,-0.003831,-0.00102\H,0,1.350404,
 -2.202889,-0.207337\H,0,1.181708,-1.310619,1.310971\H,0,2.778006,-0.13
 423,-0.183986\H,0,1.572485,-0.100467,-1.475447\H,0,-0.803718,2.084715,

 Normal termination of Gaussian 16 at Wed Apr  9 00:35:10 2025.
