 Gaussian 16, Revision C.01,

 ----------------------------------------------------------------------
 #t hf aug-cc-pvdz symm=none int=(grid=ultrafine) guess=(read,tcheck) s
 table=(opt,rrhf)
 ----------------------------------------------------------------------
 -----
 title
 -----
 Symbolic Z-matrix:
 Charge =  0 Multiplicity = 1

 SCF Done:  E(RHF) =  -773.235122577     A.U. after   16 cycles
 Normal termination of Gaussian 16 at Tue Apr  8 23:13:44 2025.
 Gaussian 16:  ES64L-G16RevC.01  3-Jul-2019

 ----------------------------------------------------------------------
 #t hf aug-cc-pvdz iop(5/13=1,5/36=2,99/5=2) pseudo=read geom=check gue
 ss=(read,tcheck) scf=(maxcycle=1)
 ----------------------------------------------------------------------
 -----
 title
 -----
 Structure from the checkpoint file:  "BDE49_expt_490_mol1.chk"
 Charge =  0 Multiplicity = 1

                         Standard orientation:
 ---------------------------------------------------------------------
 Center     Atomic      Atomic             Coordinates (Angstroms)
 Number     Number       Type             X           Y           Z
 ---------------------------------------------------------------------
      1          6           0        0.679681   -1.046760   -0.033975
      2          6           0       -0.702040   -0.897123   -0.021683
      3          6           0        1.523348    0.062477   -0.037618
      4          6           0        0.971353    1.343835   -0.027251
      5          6           0       -0.404634    1.505110   -0.014930
      6          6           0       -1.257119    0.390192   -0.010173
      7          1           0       -1.353581   -1.756267   -0.023297
      8          1           0        1.103506   -2.043003   -0.049674
      9          1           0        1.617269    2.212572   -0.038372
     10          1           0       -0.825769    2.505557   -0.011846
     11          7           0       -2.641639    0.635424    0.001853
     12          6           0       -3.684702   -0.271855    0.007089
     13          8           0       -3.535665   -1.476928    0.000773
     14          6           0       -5.066390    0.361410    0.022896
     15          1           0       -5.062774    1.453167    0.017078
     16          1           0       -5.594959    0.012388    0.912133
     17          1           0       -5.619329    0.002635   -0.847271
     18          1           0       -2.901113    1.609592    0.007826
     19          6           0        3.012389   -0.113950    0.004494
     20          9           0        3.406942   -1.269367   -0.573832
     21          9           0        3.661115    0.892437   -0.625575
     22          9           0        3.485523   -0.137427    1.275094
 ---------------------------------------------------------------------

 SCF Done:  E(RHF) =  -776.428347612     A.U. after    2 cycles

 The electronic state is 1-A.
 Alpha  occ. eigenvalues --  -29.30124 -29.30057 -29.29574 -21.04291 -15.79891
 Alpha  occ. eigenvalues --  -11.61249 -11.54983 -11.53041 -11.48639 -11.46611
 Alpha  occ. eigenvalues --  -11.45090 -11.43103 -11.40806 -11.38700  -1.72591
 Alpha  occ. eigenvalues --   -1.47247  -1.42376  -1.29110  -1.13382  -1.12056
 Alpha  occ. eigenvalues --   -1.07082  -0.92820  -0.91321  -0.86800  -0.84975
 Alpha  occ. eigenvalues --   -0.80670  -0.76707  -0.73080  -0.67285  -0.63174
 Alpha  occ. eigenvalues --   -0.62906  -0.60128  -0.58526  -0.57377  -0.56260
 Alpha  occ. eigenvalues --   -0.52234  -0.50100  -0.49853  -0.47238  -0.46514
 Alpha  occ. eigenvalues --   -0.42815  -0.42639  -0.40596  -0.36001  -0.35068
 Alpha  occ. eigenvalues --   -0.34428  -0.30672  -0.29194  -0.29017  -0.24643
 Alpha  occ. eigenvalues --   -0.23234  -0.20472
 Alpha virt. eigenvalues --    0.02588   0.04151   0.04766   0.05914   0.06340
 Alpha virt. eigenvalues --    0.06938   0.07730   0.08748   0.09314   0.10070
 Alpha virt. eigenvalues --    0.10508   0.11460   0.11593   0.11707   0.11980

 Mulliken charges:
               1
     1  C   -1.564443
     2  C   -2.303567
     3  C    1.728698
     4  C   -2.669503
     5  C   -2.457848
     6  C    2.923324
     7  H    2.062423
     8  H    1.840358
     9  H    1.883947
    10  H    1.987347
    11  N   -4.773347
    12  C    5.302416
    13  O   -3.596829
    14  C   -5.045610
    15  H    1.497676
    16  H    1.265417
    17  H    1.260473
    18  H    0.827909
    19  C   -0.833318
    20  F    0.276123
    21  F    0.249046
    22  F    0.139309
 Sum of Mulliken charges =   0.00000

 Dipole moment (field-independent basis, Debye):
    X=             -0.1638    Y=              1.9524    Z=              0.1023  Tot=              1.9619

 Test job not archived.
 1\1\GINC-SE141\SP\RHF\Aug-CC-pVDZ\C9H8F3N1O1\OHZDE\08-Apr-2025\0\\#t h
 f aug-cc-pvdz iop(5/13=1,5/36=2,99/5=2) pseudo=read geom=check guess=(
 read,tcheck) scf=(maxcycle=1)\\title\\0,1\C,0,0.679681,-1.04676,-0.033
 975\C,0,-0.70204,-0.897123,-0.021683\C,0,1.523348,0.062477,-0.037618\C
 ,0,0.971353,1.343835,-0.027251\C,0,-0.404634,1.50511,-0.01493\C,0,-1.2
 57119,0.390192,-0.010173\H,0,-1.353581,-1.756267,-0.023297\H,0,1.10350
 6,-2.043003,-0.049674\H,0,1.617269,2.212572,-0.038372\H,0,-0.825769,2.
 505557,-0.011846\N,0,-2.641639,0.635424,0.001853\C,0,-3.684702,-0.2718

 Normal termination of Gaussian 16 at Tue Apr  8 23:14:01 2025.
