 Gaussian 16, Revision C.01,

 ----------------------------------------------------------------------
 #t hf aug-cc-pvdz symm=none int=(grid=ultrafine) guess=(read,tcheck) s
 table=opt
 ----------------------------------------------------------------------
 -----
 title
 -----
 Symbolic Z-matrix:
 Charge =  0 Multiplicity = 2

 SCF Done:  E(UHF) =  -586.791241316     A.U. after   18 cycles
 Normal termination of Gaussian 16 at Tue Apr  8 22:47:30 2025.
 Gaussian 16:  ES64L-G16RevC.01  3-Jul-2019

 ----------------------------------------------------------------------
 #t hf aug-cc-pvdz iop(5/13=1,5/36=2,99/5=2) pseudo=read geom=check gue
 ss=(read,tcheck) scf=(maxcycle=1)
 ----------------------------------------------------------------------
 -----
 title
 -----
 Structure from the checkpoint file:  "BDE49_expt_1597_mol2.chk"
 Charge =  0 Multiplicity = 2

                         Standard orientation:
 ---------------------------------------------------------------------
 Center     Atomic      Atomic             Coordinates (Angstroms)
 Number     Number       Type             X           Y           Z
 ---------------------------------------------------------------------
      1         16           0       -0.212621    0.000000   -0.274190
      2          8           0       -0.737716    1.281284    0.207361
      3          8           0       -0.737718   -1.281283    0.207361
      4          6           0        1.585044   -0.000001    0.094345
      5          1           0        2.009484    0.903201   -0.338876
      6          1           0        2.009482   -0.903203   -0.338875
      7          1           0        1.676178   -0.000001    1.180952
 ---------------------------------------------------------------------

 SCF Done:  E(UHF) =  -587.848147411     A.U. after    2 cycles

 The electronic state is 2-A.
 Alpha  occ. eigenvalues --  -75.87390 -21.08867 -21.08831 -13.48349 -13.33298
 Alpha  occ. eigenvalues --  -13.23110 -11.44321  -8.22375  -1.83840  -1.67960
 Alpha  occ. eigenvalues --   -1.15941  -0.92030  -0.65469  -0.64324  -0.59719
 Alpha  occ. eigenvalues --   -0.54315  -0.48012  -0.42991  -0.40121  -0.38129
 Alpha  occ. eigenvalues --   -0.29010
 Alpha virt. eigenvalues --    0.02632   0.05208   0.05409   0.07734   0.10681
 Alpha virt. eigenvalues --    0.11530   0.11680   0.14073   0.15201   0.15507
 Alpha virt. eigenvalues --    0.19961   0.21507   0.22354   0.22371   0.25031

  Beta  occ. eigenvalues --  -75.86991 -21.07476 -21.07440 -13.48398 -13.33006
  Beta  occ. eigenvalues --  -13.20942 -11.43880  -8.21855  -1.81168  -1.64325
  Beta  occ. eigenvalues --   -1.13460  -0.86995  -0.64361  -0.64023  -0.57070
  Beta  occ. eigenvalues --   -0.50274  -0.45081  -0.38050  -0.37126  -0.35213
  Beta virt. eigenvalues --    0.00458   0.05232   0.05297   0.06472   0.08881
  Beta virt. eigenvalues --    0.10974   0.11727   0.11924   0.15005   0.15627
  Beta virt. eigenvalues --    0.15876   0.20542   0.21998   0.23027   0.24617

 Mulliken charges and spin densities:
               1          2
     1  S    5.033457   0.366776
     2  O   -2.204842   0.256092
     3  O   -2.204839   0.256093
     4  C   -4.672137   0.152221
     5  H    1.343612  -0.017992
     6  H    1.343612  -0.017992
     7  H    1.361138   0.004803
 Sum of Mulliken charges =  -0.00000   1.00000

 Dipole moment (field-independent basis, Debye):
    X=              1.9512    Y=             -0.0000    Z=             -0.7015  Tot=              2.0735
                          Isotropic Fermi Contact Couplings
        Atom                 a.u.       MegaHertz       Gauss      10(-4) cm-1
     1  S(33)              0.74824     256.99957      91.70384      85.72583
     2  O(17)              0.08087     -49.02263     -17.49249     -16.35219
     3  O(17)              0.08087     -49.02264     -17.49250     -16.35219
     4  C(13)              0.07951      89.38869      31.89611      29.81686
     5  H(1)              -0.00260     -11.63039      -4.15001      -3.87948
     6  H(1)              -0.00260     -11.63038      -4.15001      -3.87948
     7  H(1)               0.00255      11.39870       4.06734       3.80220
 --------------------------------------------------------

 Normal termination of Gaussian 16 at Tue Apr  8 22:47:32 2025.
