 Gaussian 16, Revision C.01,

 ----------------------------------------------------------------------
 #t hf aug-cc-pvdz symm=none int=(grid=ultrafine) guess=(read,tcheck) s
 table=(opt,rrhf)
 ----------------------------------------------------------------------
 -----
 title
 -----
 Symbolic Z-matrix:
 Charge =  0 Multiplicity = 1

 SCF Done:  E(RHF) =  -790.298674796     A.U. after   13 cycles
 Normal termination of Gaussian 16 at Wed Apr  9 00:32:18 2025.
 Gaussian 16:  ES64L-G16RevC.01  3-Jul-2019

 ----------------------------------------------------------------------
 #t hf aug-cc-pvdz iop(5/13=1,5/36=2,99/5=2) pseudo=read geom=check gue
 ss=(read,tcheck) scf=(maxcycle=1)
 ----------------------------------------------------------------------
 -----
 title
 -----
 Structure from the checkpoint file:  "BDE49_nonexpt_375_mol1.chk"
 Charge =  0 Multiplicity = 1

                         Standard orientation:
 ---------------------------------------------------------------------
 Center     Atomic      Atomic             Coordinates (Angstroms)
 Number     Number       Type             X           Y           Z
 ---------------------------------------------------------------------
      1          9           0       -1.880903   -1.172246   -0.065955
      2          9           0       -1.972232    1.091392    0.029648
      3          5           0       -1.258422   -0.011489   -0.002781
      4         15           0        0.677277    0.006126    0.128824
      5          8           0        1.190693   -0.269969    1.479065
      6          8           0        1.214810   -1.027970   -0.989779
      7          1           0        1.471603   -1.871963   -0.597332
      8          8           0        1.017219    1.414078   -0.545266
      9          1           0        1.957794    1.636091   -0.546512
 ---------------------------------------------------------------------

 SCF Done:  E(RHF) =  -792.190888205     A.U. after    2 cycles

 The electronic state is 1-A.
 Alpha  occ. eigenvalues -- -105.31679 -29.28831 -29.28646 -21.13281 -21.12884
 Alpha  occ. eigenvalues --  -21.03709  -7.74281  -2.93936  -1.98988  -1.90735
 Alpha  occ. eigenvalues --   -1.81459  -1.56469  -1.41248  -1.27218  -1.10952
 Alpha  occ. eigenvalues --   -0.78958  -0.72795  -0.62011  -0.56618  -0.53660
 Alpha  occ. eigenvalues --   -0.49001  -0.47766  -0.45898  -0.44872  -0.42584
 Alpha  occ. eigenvalues --   -0.36662  -0.36160  -0.35541  -0.34917  -0.30728
 Alpha  occ. eigenvalues --   -0.21147  -0.12812
 Alpha virt. eigenvalues --    0.03459   0.04798   0.04971   0.06044   0.07401
 Alpha virt. eigenvalues --    0.11040   0.12449   0.12694   0.13061   0.15318
 Alpha virt. eigenvalues --    0.15815   0.17551   0.18381   0.20387   0.20794

 Mulliken charges:
               1
     1  F    0.252492
     2  F    0.226254
     3  B   -0.279872
     4  P    6.129938
     5  O   -2.855196
     6  O   -2.594470
     7  H    0.845781
     8  O   -2.600516
     9  H    0.875590
 Sum of Mulliken charges =   0.00000

 Dipole moment (field-independent basis, Debye):
    X=             -1.1479    Y=              0.3745    Z=             -2.6415  Tot=              2.9044

 Test job not archived.
 1\1\GINC-SE343\SP\RHF\Aug-CC-pVDZ\B1F2H2O3P1\OHZDE\09-Apr-2025\0\\#t h
 f aug-cc-pvdz iop(5/13=1,5/36=2,99/5=2) pseudo=read geom=check guess=(
 read,tcheck) scf=(maxcycle=1)\\title\\0,1\F,0,-1.880903,-1.172246,-0.0
 65955\F,0,-1.972232,1.091392,0.029648\B,0,-1.258422,-0.011489,-0.00278
 1\P,0,0.677277,0.006126,0.128824\O,0,1.190693,-0.269969,1.479065\O,0,1
 .21481,-1.02797,-0.989779\H,0,1.471603,-1.871963,-0.597332\O,0,1.01721
 9,1.414078,-0.545266\H,0,1.957794,1.636091,-0.546512\\Version=ES64L-G1
 6RevC.01\State=1-A\HF=-792.1908882\RMSD=2.837e-01\Dipole=-0.4516127,0.

 Normal termination of Gaussian 16 at Wed Apr  9 00:32:22 2025.
