 Gaussian 16, Revision C.01,

 ----------------------------------------------------------------------
 #t hf aug-cc-pvdz symm=none int=(grid=ultrafine) guess=(read,tcheck) s
 table=(opt,rrhf)
 ----------------------------------------------------------------------
 -----
 title
 -----
 Symbolic Z-matrix:
 Charge =  0 Multiplicity = 1

 SCF Done:  E(RHF) =  -688.815312751     A.U. after   11 cycles

 1\1\GINC-SE458\Stability\RHF\Aug-CC-pVDZ\H4S1Si1\OHZDE\08-Apr-2025\0\\
 #t hf aug-cc-pvdz symm=none int=(grid=ultrafine) guess=(read,tcheck) s
 table=(opt,rrhf)\\title\\0,1\S,0,1.118894,0.081694,0.\Si,0,-1.043845,-
 0.00515,0.\H,0,1.297018,-1.251926,0.000001\H,0,-1.475284,1.407254,-0.0
 00002\H,0,-1.555104,-0.695162,1.204292\H,0,-1.555104,-0.695165,-1.2042
 9\\Version=ES64L-G16RevC.01\HF=-688.8153128\RMSD=3.857e-09\Dipole=-0.3
 814848,-0.35132,0.0000002\Quadrupole=-0.0815541,1.3981526,-1.3165986,-
 1.2905857,0.0000014,-0.000002\PG=Unknown\\@

 Normal termination of Gaussian 16 at Tue Apr  8 23:56:18 2025.
 Gaussian 16:  ES64L-G16RevC.01  3-Jul-2019

 ----------------------------------------------------------------------
 #t hf aug-cc-pvdz iop(5/13=1,5/36=2,99/5=2) pseudo=read geom=check gue
 ss=(read,tcheck) scf=(maxcycle=1)
 ----------------------------------------------------------------------
 -----
 title
 -----
 Structure from the checkpoint file:  "BDE49_nonexpt_2007_mol1.chk"
 Charge =  0 Multiplicity = 1

                         Standard orientation:
 ---------------------------------------------------------------------
 Center     Atomic      Atomic             Coordinates (Angstroms)
 Number     Number       Type             X           Y           Z
 ---------------------------------------------------------------------
      1         16           0        1.118894    0.081694   -0.000000
      2         14           0       -1.043845   -0.005150   -0.000000
      3          1           0        1.297018   -1.251926    0.000001
      4          1           0       -1.475284    1.407254   -0.000002
      5          1           0       -1.555104   -0.695162    1.204292
      6          1           0       -1.555104   -0.695165   -1.204290
 ---------------------------------------------------------------------

 SCF Done:  E(RHF) =  -689.213471546     A.U. after    2 cycles

 The electronic state is 1-A.
 Alpha  occ. eigenvalues --  -76.24943 -75.68768 -13.12808 -13.06250 -13.01551
 Alpha  occ. eigenvalues --   -8.02747  -5.58232  -2.20232  -2.20020  -2.19958
 Alpha  occ. eigenvalues --   -1.10747  -0.76870  -0.52487  -0.48927  -0.46810
 Alpha  occ. eigenvalues --   -0.35331  -0.27389
 Alpha virt. eigenvalues --    0.03238   0.03689   0.05594   0.06204   0.08088
 Alpha virt. eigenvalues --    0.09829   0.09860   0.12384   0.13184   0.14636
 Alpha virt. eigenvalues --    0.14685   0.15468   0.17767   0.19022   0.19596

 Mulliken charges:
               1
     1  S   -2.300312
     2  Si   6.050004
     3  H    1.049971
     4  H   -1.642824
     5  H   -1.578420
     6  H   -1.578420
 Sum of Mulliken charges =  -0.00000

 Dipole moment (field-independent basis, Debye):
    X=              1.1152    Y=              0.8451    Z=             -0.0000  Tot=              1.3993

 Test job not archived.
 1\1\GINC-SE458\SP\RHF\Aug-CC-pVDZ\H4S1Si1\OHZDE\08-Apr-2025\0\\#t hf a
 ug-cc-pvdz iop(5/13=1,5/36=2,99/5=2) pseudo=read geom=check guess=(rea
 d,tcheck) scf=(maxcycle=1)\\title\\0,1\S,0,1.118894,0.081694,0.\Si,0,-
 1.043845,-0.00515,0.\H,0,1.297018,-1.251926,0.000001\H,0,-1.475284,1.4
 07254,-0.000002\H,0,-1.555104,-0.695162,1.204292\H,0,-1.555104,-0.6951
 65,-1.20429\\Version=ES64L-G16RevC.01\State=1-A\HF=-689.2134715\RMSD=1
 .327e-01\Dipole=0.4387711,0.3325069,-0.0000003\Quadrupole=1.3235331,1.
 0023121,-2.3258453,-0.069359,0.0000008,-0.0000022\PG=C01 [X(H4S1Si1)]\

 Normal termination of Gaussian 16 at Tue Apr  8 23:56:19 2025.
