 Gaussian 16, Revision C.01,

 ----------------------------------------------------------------------
 #t hf aug-cc-pvdz symm=none int=(grid=ultrafine) guess=(read,tcheck) s
 table=(opt,rrhf)
 ----------------------------------------------------------------------
 -----
 title
 -----
 Symbolic Z-matrix:
 Charge =  0 Multiplicity = 1

 SCF Done:  E(RHF) =  -986.770235293     A.U. after   15 cycles
 Normal termination of Gaussian 16 at Wed Apr  9 00:22:37 2025.
 Gaussian 16:  ES64L-G16RevC.01  3-Jul-2019

 ----------------------------------------------------------------------
 #t hf aug-cc-pvdz iop(5/13=1,5/36=2,99/5=2) pseudo=read geom=check gue
 ss=(read,tcheck) scf=(maxcycle=1)
 ----------------------------------------------------------------------
 -----
 title
 -----
 Structure from the checkpoint file:  "BDE49_nonexpt_2663_mol1.chk"
 Charge =  0 Multiplicity = 1

                         Standard orientation:
 ---------------------------------------------------------------------
 Center     Atomic      Atomic             Coordinates (Angstroms)
 Number     Number       Type             X           Y           Z
 ---------------------------------------------------------------------
      1          9           0        1.815516    1.217974    0.000004
      2         16           0        1.736341   -0.450606   -0.000004
      3          7           0        0.141883   -0.765238   -0.000002
      4          6           0       -0.974291   -0.302324    0.000002
      5         16           0       -2.454283    0.213659    0.000002
 ---------------------------------------------------------------------

 SCF Done:  E(RHF) =  -987.959324961     A.U. after    2 cycles

 The electronic state is 1-A.
 Alpha  occ. eigenvalues --  -75.82714 -75.72267 -29.29702 -15.82389 -13.32412
 Alpha  occ. eigenvalues --  -13.24478 -13.23023 -13.13493 -13.03434 -13.03418
 Alpha  occ. eigenvalues --  -11.56053  -8.16562  -8.06542  -1.49329  -1.24025
 Alpha  occ. eigenvalues --   -1.13513  -0.82693  -0.62482  -0.60617  -0.59496
 Alpha  occ. eigenvalues --   -0.53859  -0.43462  -0.38249  -0.33433  -0.30485
 Alpha  occ. eigenvalues --   -0.29527  -0.18131
 Alpha virt. eigenvalues --    0.04072   0.04971   0.07689   0.08515   0.09121
 Alpha virt. eigenvalues --    0.10728   0.11406   0.14352   0.14599   0.17446
 Alpha virt. eigenvalues --    0.17691   0.18731   0.19579   0.21513   0.21851

 Mulliken charges:
               1
     1  F   -0.132249
     2  S    1.378315
     3  N   -2.858453
     4  C    0.054087
     5  S    1.558300
 Sum of Mulliken charges =  -0.00000

 Dipole moment (field-independent basis, Debye):
    X=             -0.6848    Y=              3.5947    Z=              0.0000  Tot=              3.6594

 Test job not archived.
 1\1\GINC-SE363\SP\RHF\Aug-CC-pVDZ\C1F1N1S2\OHZDE\09-Apr-2025\0\\#t hf
 aug-cc-pvdz iop(5/13=1,5/36=2,99/5=2) pseudo=read geom=check guess=(re
 ad,tcheck) scf=(maxcycle=1)\\title\\0,1\F,0,1.815516,1.217974,0.000004
 \S,0,1.736341,-0.450606,-0.000004\N,0,0.141883,-0.765238,-0.000002\C,0
 ,-0.974291,-0.302324,0.000002\S,0,-2.454283,0.213659,0.000002\\Version
 =ES64L-G16RevC.01\State=1-A\HF=-987.959325\RMSD=1.415e-01\Dipole=-0.26
 94271,1.4142671,0.0000019\Quadrupole=8.9400757,-2.6845321,-6.2555436,0
 .7034605,0.0000069,0.0000143\PG=C01 [X(C1F1N1S2)]\\@

 Normal termination of Gaussian 16 at Wed Apr  9 00:22:39 2025.
