 Gaussian 16, Revision C.01,

 ----------------------------------------------------------------------
 #t hf aug-cc-pvdz symm=none int=(grid=ultrafine) guess=(read,tcheck) s
 table=(opt,rrhf)
 ----------------------------------------------------------------------
 -----
 title
 -----
 Symbolic Z-matrix:
 Charge =  0 Multiplicity = 1

 SCF Done:  E(RHF) =  -333.104914377     A.U. after   12 cycles

 1\1\GINC-SE365\Stability\RHF\Aug-CC-pVDZ\C6H11F1\OHZDE\08-Apr-2025\0\\
 #t hf aug-cc-pvdz symm=none int=(grid=ultrafine) guess=(read,tcheck) s
 table=(opt,rrhf)\\title\\0,1\C,0,-1.029667,0.,0.328709\C,0,-0.346175,1
 .264066,-0.172666\F,0,-2.369347,0.,-0.104763\C,0,-0.346175,-1.264066,-
 0.172666\C,0,1.143188,1.268979,0.209327\H,0,-0.859508,2.141707,0.23025
 3\H,0,-0.454158,1.298708,-1.263042\C,0,1.854486,0.,-0.283665\H,0,1.238
 722,1.335693,1.300616\H,0,1.627069,2.161661,-0.197429\C,0,1.143188,-1.
 268979,0.209327\H,0,2.897686,0.,0.047278\H,0,1.873494,0.,-1.380755\H,0

 Normal termination of Gaussian 16 at Tue Apr  8 22:46:05 2025.
 Gaussian 16:  ES64L-G16RevC.01  3-Jul-2019

 ----------------------------------------------------------------------
 #t hf aug-cc-pvdz iop(5/13=1,5/36=2,99/5=2) pseudo=read geom=check gue
 ss=(read,tcheck) scf=(maxcycle=1)
 ----------------------------------------------------------------------
 -----
 title
 -----
 Structure from the checkpoint file:  "BDE49_expt_1524_mol1.chk"
 Charge =  0 Multiplicity = 1

                         Standard orientation:
 ---------------------------------------------------------------------
 Center     Atomic      Atomic             Coordinates (Angstroms)
 Number     Number       Type             X           Y           Z
 ---------------------------------------------------------------------
      1          6           0       -0.574213    0.915720    0.000000
      2          6           0        0.081249    0.378219    1.264066
      3          9           0       -0.487161    2.321089    0.000000
      4          6           0        0.081249    0.378219   -1.264066
      5          6           0        0.081249   -1.159351    1.268979
      6          1           0       -0.436570    0.775356    2.141707
      7          1           0        1.110612    0.753708    1.298708
      8          6           0        0.735499   -1.725870   -0.000000
      9          1           0       -0.952091   -1.523009    1.335693
     10          1           0        0.595467   -1.527007    2.161661
     11          6           0        0.081249   -1.159351   -1.268979
     12          1           0        0.674104   -2.818582   -0.000000
     13          1           0        1.802914   -1.471721   -0.000000
     14          1           0        1.110612    0.753708   -1.298708
     15          1           0       -0.436570    0.775356   -2.141707
     16          1           0        0.595467   -1.527007   -2.161661
     17          1           0       -0.952091   -1.523009   -1.335693
     18          1           0       -1.645091    0.676896    0.000000
 ---------------------------------------------------------------------

 SCF Done:  E(RHF) =  -334.643718594     A.U. after    2 cycles

 The electronic state is 1-A'.
 Alpha  occ. eigenvalues --  -29.23256 -11.47676 -11.43923 -11.42600 -11.38581
 Alpha  occ. eigenvalues --  -11.38211 -11.34761  -1.34171  -1.14627  -1.11305
 Alpha  occ. eigenvalues --   -0.92046  -0.89845  -0.79976  -0.70581  -0.66145
 Alpha  occ. eigenvalues --   -0.62418  -0.61950  -0.56601  -0.53473  -0.52078
 Alpha  occ. eigenvalues --   -0.49752  -0.47846  -0.45188  -0.42502  -0.41190
 Alpha  occ. eigenvalues --   -0.33702  -0.23476  -0.22652
 Alpha virt. eigenvalues --    0.04176   0.05191   0.05323   0.05474   0.05535
 Alpha virt. eigenvalues --    0.05603   0.06125   0.06487   0.07561   0.08792
 Alpha virt. eigenvalues --    0.08806   0.12736   0.13252   0.13508   0.13963

 Mulliken charges:
               1
     1  C   -0.030915
     2  C   -3.376542
     3  F    0.197463
     4  C   -3.376542
     5  C   -2.897380
     6  H    1.339991
     7  H    1.401619
     8  C   -2.571426
     9  H    1.345990
    10  H    1.292564
    11  C   -2.897380
    12  H    1.305268
    13  H    1.378161
    14  H    1.401619
    15  H    1.339991
    16  H    1.292564
    17  H    1.345990
    18  H    1.508964
 Sum of Mulliken charges =   0.00000

 Dipole moment (field-independent basis, Debye):
    X=              0.0701    Y=              0.5486    Z=             -0.0000  Tot=              0.5530

 Test job not archived.
 1\1\GINC-SE365\SP\RHF\Aug-CC-pVDZ\C6H11F1\OHZDE\08-Apr-2025\0\\#t hf a
 ug-cc-pvdz iop(5/13=1,5/36=2,99/5=2) pseudo=read geom=check guess=(rea
 d,tcheck) scf=(maxcycle=1)\\title\\0,1\C,0,-1.029667,0.,0.328709\C,0,-
 0.346175,1.264066,-0.172666\F,0,-2.369347,0.,-0.104763\C,0,-0.346175,-
 1.264066,-0.172666\C,0,1.143188,1.268979,0.209327\H,0,-0.859508,2.1417
 07,0.230253\H,0,-0.454158,1.298708,-1.263042\C,0,1.854486,0.,-0.283665
 \H,0,1.238722,1.335693,1.300616\H,0,1.627069,2.161661,-0.197429\C,0,1.
 143188,-1.268979,0.209327\H,0,2.897686,0.,0.047278\H,0,1.873494,0.,-1.

 Normal termination of Gaussian 16 at Tue Apr  8 22:46:09 2025.
