 Gaussian 16, Revision C.01,

 ----------------------------------------------------------------------
 #t hf aug-cc-pvdz symm=none int=(grid=ultrafine) guess=(read,tcheck) s
 table=(opt,rrhf)
 ----------------------------------------------------------------------
 -----
 title
 -----
 Symbolic Z-matrix:
 Charge =  0 Multiplicity = 1

 SCF Done:  E(RHF) =  -1074.18051947     A.U. after   13 cycles
 Normal termination of Gaussian 16 at Wed Apr  9 00:38:59 2025.
 Gaussian 16:  ES64L-G16RevC.01  3-Jul-2019

 ----------------------------------------------------------------------
 #t hf aug-cc-pvdz iop(5/13=1,5/36=2,99/5=2) pseudo=read geom=check gue
 ss=(read,tcheck) scf=(maxcycle=1)
 ----------------------------------------------------------------------
 -----
 title
 -----
 Structure from the checkpoint file:  "BDE49_nonexpt_606_mol1.chk"
 Charge =  0 Multiplicity = 1

                         Standard orientation:
 ---------------------------------------------------------------------
 Center     Atomic      Atomic             Coordinates (Angstroms)
 Number     Number       Type             X           Y           Z
 ---------------------------------------------------------------------
      1          7           0       -0.088194   -0.179011   -0.000000
      2          5           0        0.905104   -1.208863    0.000002
      3         17           0        0.323640    1.504044    0.000004
      4         17           0       -1.776503   -0.496621   -0.000007
      5          8           0        2.228638   -0.937887    0.000005
      6          1           0        2.448273    0.001019    0.000007
      7          1           0        0.513121   -2.326735   -0.000003
 ---------------------------------------------------------------------

 SCF Done:  E(RHF) =  -1075.33573423     A.U. after    2 cycles

 The electronic state is 1-A.
 Alpha  occ. eigenvalues --  -99.94712 -99.94274 -21.07295 -15.79740 -10.51834
 Alpha  occ. eigenvalues --  -10.51393  -9.71818  -9.71278  -9.70882  -9.70599
 Alpha  occ. eigenvalues --   -9.70335  -9.70148  -7.65665  -1.77059  -1.52668
 Alpha  occ. eigenvalues --   -1.32891  -1.15318  -0.83015  -0.71445  -0.70627
 Alpha  occ. eigenvalues --   -0.66263  -0.55720  -0.55438  -0.53522  -0.51601
 Alpha  occ. eigenvalues --   -0.46784  -0.43873  -0.38055
 Alpha virt. eigenvalues --   -0.00010   0.03406   0.04709   0.04927   0.05266
 Alpha virt. eigenvalues --    0.06870   0.09378   0.11000   0.12440   0.13711
 Alpha virt. eigenvalues --    0.14477   0.15256   0.15952   0.16645   0.17131

 Mulliken charges:
               1
     1  N   -2.254537
     2  B    7.639060
     3  Cl   0.344891
     4  Cl   0.589440
     5  O   -3.589581
     6  H    1.168935
     7  H   -3.898208
 Sum of Mulliken charges =   0.00000

 Dipole moment (field-independent basis, Debye):
    X=              1.0154    Y=              0.0702    Z=              0.0000  Tot=              1.0179

 Test job not archived.
 1\1\GINC-SE174\SP\RHF\Aug-CC-pVDZ\B1Cl2H2N1O1\OHZDE\09-Apr-2025\0\\#t
 hf aug-cc-pvdz iop(5/13=1,5/36=2,99/5=2) pseudo=read geom=check guess=
 (read,tcheck) scf=(maxcycle=1)\\title\\0,1\N,0,-0.088194,-0.179011,0.\
 B,0,0.905103,-1.208864,0.000002\Cl,0,0.323641,1.504044,0.000004\Cl,0,-
 1.776503,-0.49662,-0.000007\O,0,2.228637,-0.937888,0.000005\H,0,2.4482
 73,0.001018,0.000007\H,0,0.51312,-2.326735,-0.000003\\Version=ES64L-G1
 6RevC.01\State=1-A\HF=-1075.3357342\RMSD=1.817e-01\Dipole=0.3995066,0.
 027617,0.000002\Quadrupole=1.0485794,0.1851257,-1.2337051,1.94636,0.00

 Normal termination of Gaussian 16 at Wed Apr  9 00:39:01 2025.
