 Gaussian 16, Revision C.01,

 ----------------------------------------------------------------------
 #t hf aug-cc-pvdz symm=none int=(grid=ultrafine) guess=(read,tcheck) s
 table=(opt,rrhf)
 ----------------------------------------------------------------------
 -----
 title
 -----
 Symbolic Z-matrix:
 Charge =  0 Multiplicity = 1

 SCF Done:  E(RHF) =  -592.417466338     A.U. after   14 cycles
 Normal termination of Gaussian 16 at Wed Apr  9 00:35:50 2025.
 Gaussian 16:  ES64L-G16RevC.01  3-Jul-2019

 ----------------------------------------------------------------------
 #t hf aug-cc-pvdz iop(5/13=1,5/36=2,99/5=2) pseudo=read geom=check gue
 ss=(read,tcheck) scf=(maxcycle=1)
 ----------------------------------------------------------------------
 -----
 title
 -----
 Structure from the checkpoint file:  "BDE49_nonexpt_474_mol1.chk"
 Charge =  0 Multiplicity = 1

                         Standard orientation:
 ---------------------------------------------------------------------
 Center     Atomic      Atomic             Coordinates (Angstroms)
 Number     Number       Type             X           Y           Z
 ---------------------------------------------------------------------
      1          1           0       -2.396722    1.142664   -0.433592
      2          1           0       -2.229577   -0.749863   -1.253885
      3          5           0       -1.762190    0.169967   -0.668170
      4         15           0       -0.031087   -0.023527    0.083287
      5          8           0       -0.215125   -0.691544    1.388806
      6          8           0        0.994276   -0.811112   -0.895160
      7          1           0        0.992843   -1.758772   -0.711788
      8          8           0        0.635991    1.432608    0.042873
      9          1           0        1.589566    1.429422    0.198651
 ---------------------------------------------------------------------

 SCF Done:  E(RHF) =  -593.667354807     A.U. after    2 cycles

 The electronic state is 1-A.
 Alpha  occ. eigenvalues -- -105.29283 -21.11812 -21.11681 -21.01985  -7.65378
 Alpha  occ. eigenvalues --   -2.91610  -1.96790  -1.87820  -1.79996  -1.54811
 Alpha  occ. eigenvalues --   -1.39761  -1.25454  -0.83513  -0.68080  -0.61691
 Alpha  occ. eigenvalues --   -0.53352  -0.51678  -0.44608  -0.41793  -0.34925
 Alpha  occ. eigenvalues --   -0.34244  -0.29657  -0.22004  -0.13997
 Alpha virt. eigenvalues --    0.03010   0.03549   0.04133   0.04611   0.06668
 Alpha virt. eigenvalues --    0.08506   0.09241   0.11031   0.12115   0.13604
 Alpha virt. eigenvalues --    0.14365   0.14767   0.16904   0.20870   0.21052

 Mulliken charges:
               1
     1  H   -2.319984
     2  H   -2.378280
     3  B    4.721863
     4  P    6.313814
     5  O   -2.699321
     6  O   -2.678662
     7  H    0.867119
     8  O   -2.721590
     9  H    0.895042
 Sum of Mulliken charges =  -0.00000

 Dipole moment (field-independent basis, Debye):
    X=              1.6737    Y=              0.9189    Z=             -2.3958  Tot=              3.0636

 Test job not archived.
 1\1\GINC-SE329\SP\RHF\Aug-CC-pVDZ\B1H4O3P1\OHZDE\09-Apr-2025\0\\#t hf
 aug-cc-pvdz iop(5/13=1,5/36=2,99/5=2) pseudo=read geom=check guess=(re
 ad,tcheck) scf=(maxcycle=1)\\title\\0,1\H,0,-2.396722,1.142665,-0.4335
 92\H,0,-2.229577,-0.749862,-1.253885\B,0,-1.76219,0.169968,-0.66817\P,
 0,-0.031087,-0.023527,0.083287\O,0,-0.215125,-0.691544,1.388806\O,0,0.
 994276,-0.811113,-0.89516\H,0,0.992842,-1.758773,-0.711788\O,0,0.63599
 2,1.432608,0.042873\H,0,1.589567,1.429421,0.198651\\Version=ES64L-G16R
 evC.01\State=1-A\HF=-593.6673548\RMSD=1.740e-01\Dipole=0.6584899,0.361

 Normal termination of Gaussian 16 at Wed Apr  9 00:35:52 2025.
