 Gaussian 16, Revision C.01,

 ----------------------------------------------------------------------
 #t hf aug-cc-pvdz symm=none int=(grid=ultrafine) guess=(read,tcheck) s
 table=opt
 ----------------------------------------------------------------------
 -----
 title
 -----
 Symbolic Z-matrix:
 Charge =  0 Multiplicity = 2

 SCF Done:  E(UHF) =  -686.144003802     A.U. after   19 cycles
 Normal termination of Gaussian 16 at Tue Apr  8 23:02:43 2025.
 Gaussian 16:  ES64L-G16RevC.01  3-Jul-2019

 ----------------------------------------------------------------------
 #t hf aug-cc-pvdz iop(5/13=1,5/36=2,99/5=2) pseudo=read geom=check gue
 ss=(read,tcheck) scf=(maxcycle=1)
 ----------------------------------------------------------------------
 -----
 title
 -----
 Structure from the checkpoint file:  "BDE49_expt_248_mol2.chk"
 Charge =  0 Multiplicity = 2

                         Standard orientation:
 ---------------------------------------------------------------------
 Center     Atomic      Atomic             Coordinates (Angstroms)
 Number     Number       Type             X           Y           Z
 ---------------------------------------------------------------------
      1          6           0       -1.012414   -0.093438    0.000006
      2          8           0       -0.951874    1.256720    0.000000
      3          8           0       -2.053047   -0.721057    0.000004
      4          1           0       -1.867621    1.569798   -0.000001
      5          6           0        0.275259   -0.756758    0.000001
      6         17           0        1.765889    0.063612   -0.000005
      7          1           0        0.309808   -1.835329    0.000000
 ---------------------------------------------------------------------

 SCF Done:  E(UHF) =  -687.312523240     A.U. after    2 cycles

 The electronic state is 2-A.
 Alpha  occ. eigenvalues --  -99.92491 -21.13413 -21.08412 -11.53620 -11.46855
 Alpha  occ. eigenvalues --  -10.49932  -9.69630  -9.69030  -9.68889  -1.84339
 Alpha  occ. eigenvalues --   -1.67944  -1.38475  -1.08739  -0.83344  -0.68891
 Alpha  occ. eigenvalues --   -0.65765  -0.63987  -0.60417  -0.55530  -0.52125
 Alpha  occ. eigenvalues --   -0.48455  -0.38316  -0.35910  -0.32993
 Alpha virt. eigenvalues --    0.03073   0.05872   0.06340   0.10308   0.10898
 Alpha virt. eigenvalues --    0.12052   0.12057   0.12379   0.14749   0.15585
 Alpha virt. eigenvalues --    0.15857   0.16707   0.18477   0.19215   0.19404

  Beta  occ. eigenvalues --  -99.92429 -21.13506 -21.07131 -11.53995 -11.44892
  Beta  occ. eigenvalues --  -10.49867  -9.69890  -9.68850  -9.68483  -1.83956
  Beta  occ. eigenvalues --   -1.66037  -1.36823  -1.03171  -0.82045  -0.67825
  Beta  occ. eigenvalues --   -0.65406  -0.60082  -0.58684  -0.53844  -0.51925
  Beta  occ. eigenvalues --   -0.47842  -0.34118  -0.31771
  Beta virt. eigenvalues --    0.03166   0.03544   0.05904   0.06886   0.10539
  Beta virt. eigenvalues --    0.10947   0.12102   0.12242   0.12804   0.14915
  Beta virt. eigenvalues --    0.15895   0.16209   0.16863   0.18866   0.19663

 Mulliken charges and spin densities:
               1          2
     1  C    6.359109  -0.562085
     2  O   -2.801230  -0.022658
     3  O   -2.866671   0.348921
     4  H    0.960143  -0.000793
     5  C   -3.085582   1.258176
     6  Cl  -0.165700   0.006020
     7  H    1.599932  -0.027582
 Sum of Mulliken charges =   0.00000   1.00000

 Dipole moment (field-independent basis, Debye):
    X=             -0.3451    Y=              0.2428    Z=             -0.0000  Tot=              0.4219
                          Isotropic Fermi Contact Couplings
        Atom                 a.u.       MegaHertz       Gauss      10(-4) cm-1
     1  C(13)             -0.05515     -61.99528     -22.12146     -20.67940
     2  O(17)             -0.01773      10.74563       3.83431       3.58436
     3  O(17)              0.07283     -44.14623     -15.75247     -14.72560
     4  H(1)              -0.00047      -2.10777      -0.75210      -0.70307
     5  C(13)              0.13387     150.49038      53.69871      50.19819
     6  Cl(35)             0.04359      19.11340       6.82014       6.37554
     7  H(1)              -0.01727     -77.21315     -27.55157     -25.75553
 --------------------------------------------------------

 Normal termination of Gaussian 16 at Tue Apr  8 23:02:46 2025.
