 Gaussian 16, Revision C.01,

 ----------------------------------------------------------------------
 #t hf aug-cc-pvdz symm=none int=(grid=ultrafine) guess=(read,tcheck) s
 table=opt
 ----------------------------------------------------------------------
 -----
 title
 -----
 Symbolic Z-matrix:
 Charge =  0 Multiplicity = 2

 SCF Done:  E(UHF) =  -192.444925919     A.U. after   18 cycles
 Normal termination of Gaussian 16 at Wed Apr  9 00:36:19 2025.
 Gaussian 16:  ES64L-G16RevC.01  3-Jul-2019

 ----------------------------------------------------------------------
 #t hf aug-cc-pvdz iop(5/13=1,5/36=2,99/5=2) pseudo=read geom=check gue
 ss=(read,tcheck) scf=(maxcycle=1)
 ----------------------------------------------------------------------
 -----
 title
 -----
 Structure from the checkpoint file:  "BDE49_nonexpt_510_mol2.chk"
 Charge =  0 Multiplicity = 2

                         Standard orientation:
 ---------------------------------------------------------------------
 Center     Atomic      Atomic             Coordinates (Angstroms)
 Number     Number       Type             X           Y           Z
 ---------------------------------------------------------------------
      1          1           0       -2.879287    0.564741    0.000004
      2          5           0       -1.981694   -0.213897    0.000001
      3          6           0        0.565519    0.007628   -0.000001
      4          8           0        1.731798   -0.011968    0.000000
      5          7           0       -0.637106    0.079245   -0.000001
 ---------------------------------------------------------------------

 SCF Done:  E(UHF) =  -193.220612887     A.U. after    2 cycles

 The electronic state is 2-A.
 Alpha  occ. eigenvalues --  -21.14302 -15.76674 -11.61187  -7.68911  -1.78936
 Alpha  occ. eigenvalues --   -1.41066  -0.95214  -0.65375  -0.63903  -0.61649
 Alpha  occ. eigenvalues --   -0.59168  -0.43846  -0.39795  -0.27751
 Alpha virt. eigenvalues --    0.03146   0.03663   0.04327   0.05471   0.08961
 Alpha virt. eigenvalues --    0.11164   0.11769   0.12961   0.13125   0.13191
 Alpha virt. eigenvalues --    0.19606   0.20107   0.21166   0.22886   0.23737

  Beta  occ. eigenvalues --  -21.14018 -15.77028 -11.60958  -7.67084  -1.78385
  Beta  occ. eigenvalues --   -1.40856  -0.92466  -0.64248  -0.62571  -0.61761
  Beta  occ. eigenvalues --   -0.57034  -0.39934  -0.39359
  Beta virt. eigenvalues --    0.03366   0.03569   0.03777   0.05026   0.08636
  Beta virt. eigenvalues --    0.10532   0.11599   0.12498   0.13187   0.13538
  Beta virt. eigenvalues --    0.14681   0.19753   0.20046   0.21787   0.24276

 Mulliken charges and spin densities:
               1          2
     1  H   -1.486824   0.025725
     2  B    1.566027   1.020461
     3  C    4.366629   0.045300
     4  O   -2.356845   0.082237
     5  N   -2.088987  -0.173722
 Sum of Mulliken charges =  -0.00000   1.00000

 Dipole moment (field-independent basis, Debye):
    X=              1.1947    Y=              0.4118    Z=              0.0000  Tot=              1.2637
                          Isotropic Fermi Contact Couplings
        Atom                 a.u.       MegaHertz       Gauss      10(-4) cm-1
     1  H(1)               0.01788      79.91843      28.51688      26.65792
     2  B(11)              0.24366     349.50415     124.71177     116.58204
     3  C(13)              0.00882       9.91897       3.53934       3.30861
     4  O(17)              0.01836     -11.13157      -3.97202      -3.71309
     5  N(14)             -0.00959      -3.09724      -1.10517      -1.03313
 --------------------------------------------------------
       Center         ----  Spin Dipole Couplings  ----
                      3XX-RR        3YY-RR        3ZZ-RR

 Normal termination of Gaussian 16 at Wed Apr  9 00:36:21 2025.
