 Gaussian 16, Revision C.01,

 ----------------------------------------------------------------------
 #t hf aug-cc-pvdz symm=none int=(grid=ultrafine) guess=(read,tcheck) s
 table=(opt,rrhf)
 ----------------------------------------------------------------------
 -----
 title
 -----
 Symbolic Z-matrix:
 Charge =  0 Multiplicity = 1

 SCF Done:  E(RHF) =  -655.284379930     A.U. after   13 cycles
 Normal termination of Gaussian 16 at Tue Apr  8 22:50:04 2025.
 Gaussian 16:  ES64L-G16RevC.01  3-Jul-2019

 ----------------------------------------------------------------------
 #t hf aug-cc-pvdz iop(5/13=1,5/36=2,99/5=2) pseudo=read geom=check gue
 ss=(read,tcheck) scf=(maxcycle=1)
 ----------------------------------------------------------------------
 -----
 title
 -----
 Structure from the checkpoint file:  "BDE49_expt_1664_mol1.chk"
 Charge =  0 Multiplicity = 1

                         Standard orientation:
 ---------------------------------------------------------------------
 Center     Atomic      Atomic             Coordinates (Angstroms)
 Number     Number       Type             X           Y           Z
 ---------------------------------------------------------------------
      1          6           0        0.261755   -0.411031    0.001888
      2          6           0       -1.105510   -0.466327   -0.698658
      3          6           0       -2.257871    0.286114   -0.030285
      4          1           0       -1.365086   -1.529932   -0.780984
      5          1           0       -0.973705   -0.101410   -1.721343
      6          1           0       -2.499913   -0.122803    0.953583
      7          1           0       -3.157974    0.210525   -0.645555
      8          1           0       -2.021077    1.345099    0.089470
      9          6           0        1.303267   -1.202665   -0.786487
     10          1           0        1.024513   -2.261772   -0.794559
     11          1           0        2.291214   -1.110516   -0.332508
     12          1           0        1.362973   -0.854179   -1.819002
     13          6           0        0.214377   -0.853799    1.462129
     14          1           0       -0.147546   -1.886453    1.515167
     15          1           0       -0.449597   -0.224979    2.054910
     16          1           0        1.209343   -0.815537    1.908569
     17         17           0        0.837103    1.366954   -0.007016
 ---------------------------------------------------------------------

 SCF Done:  E(RHF) =  -656.567881025     A.U. after    2 cycles

 The electronic state is 1-A.
 Alpha  occ. eigenvalues --  -99.85769 -11.46635 -11.42013 -11.39877 -11.37935
 Alpha  occ. eigenvalues --  -11.35883 -10.43018  -9.63012  -9.62392  -9.62312
 Alpha  occ. eigenvalues --   -1.35704  -1.19440  -1.10036  -1.02376  -0.92482
 Alpha  occ. eigenvalues --   -0.79260  -0.66272  -0.64256  -0.61619  -0.59399
 Alpha  occ. eigenvalues --   -0.56319  -0.54353  -0.51283  -0.50897  -0.48447
 Alpha  occ. eigenvalues --   -0.47910  -0.47042  -0.43389  -0.42222
 Alpha virt. eigenvalues --    0.03737   0.05272   0.05529   0.05789   0.06072
 Alpha virt. eigenvalues --    0.06236   0.06441   0.06594   0.07606   0.08358
 Alpha virt. eigenvalues --    0.09335   0.10303   0.11848   0.13119   0.13871

 Mulliken charges:
               1
     1  C    1.486054
     2  C   -3.259657
     3  C   -3.710180
     4  H    1.407649
     5  H    1.383212
     6  H    1.384709
     7  H    1.051826
     8  H    1.282888
     9  C   -4.237652
    10  H    1.280176
    11  H    1.231364
    12  H    1.227699
    13  C   -4.065645
    14  H    1.226194
    15  H    1.347337
    16  H    1.232681
    17  Cl  -0.268655
 Sum of Mulliken charges =   0.00000

 Dipole moment (field-independent basis, Debye):
    X=             -1.0165    Y=             -2.6812    Z=             -0.0084  Tot=              2.8674

 Test job not archived.
 1\1\GINC-SE100\SP\RHF\Aug-CC-pVDZ\C5H11Cl1\OHZDE\08-Apr-2025\0\\#t hf
 aug-cc-pvdz iop(5/13=1,5/36=2,99/5=2) pseudo=read geom=check guess=(re
 ad,tcheck) scf=(maxcycle=1)\\title\\0,1\C,0,0.261755,-0.411031,0.00188
 8\C,0,-1.10551,-0.466327,-0.698658\C,0,-2.257871,0.286114,-0.030285\H,
 0,-1.365086,-1.529932,-0.780984\H,0,-0.973705,-0.10141,-1.721343\H,0,-
 2.499913,-0.122803,0.953583\H,0,-3.157974,0.210525,-0.645555\H,0,-2.02
 1077,1.345099,0.08947\C,0,1.303267,-1.202665,-0.786487\H,0,1.024513,-2
 .261772,-0.794559\H,0,2.291214,-1.110515,-0.332508\H,0,1.362973,-0.854

 Normal termination of Gaussian 16 at Tue Apr  8 22:50:10 2025.
