 Gaussian 16, Revision C.01,

 ----------------------------------------------------------------------
 #t hf aug-cc-pvdz symm=none int=(grid=ultrafine) guess=(read,tcheck) s
 table=opt
 ----------------------------------------------------------------------
 -----
 title
 -----
 Symbolic Z-matrix:
 Charge =  0 Multiplicity = 2

 SCF Done:  E(UHF) =  -630.052427938     A.U. after   24 cycles
 Normal termination of Gaussian 16 at Tue Apr  8 23:55:50 2025.
 Gaussian 16:  ES64L-G16RevC.01  3-Jul-2019

 ----------------------------------------------------------------------
 #t hf aug-cc-pvdz iop(5/13=1,5/36=2,99/5=2) pseudo=read geom=check gue
 ss=(read,tcheck) scf=(maxcycle=1)
 ----------------------------------------------------------------------
 -----
 title
 -----
 Structure from the checkpoint file:  "BDE49_nonexpt_1969_mol2.chk"
 Charge =  0 Multiplicity = 2

                         Standard orientation:
 ---------------------------------------------------------------------
 Center     Atomic      Atomic             Coordinates (Angstroms)
 Number     Number       Type             X           Y           Z
 ---------------------------------------------------------------------
      1         14           0        2.421213   -0.521703   -0.260026
      2          6           0        0.804222    0.362902    0.220000
      3          1           0        3.573898    0.178878    0.342295
      4          1           0        2.403196   -1.975071    0.015186
      5          8           0        0.727928    1.500145    0.581148
      6          8           0       -0.299038   -0.486510    0.085072
      7          6           0       -1.591607    0.010620   -0.159889
      8          8           0       -1.797952    1.050525   -0.699213
      9          6           0       -2.608568   -0.989992    0.312401
     10          1           0       -2.551606   -1.077364    1.400434
     11          1           0       -2.390937   -1.974490   -0.106248
     12          1           0       -3.603329   -0.662572    0.017569
 ---------------------------------------------------------------------

 SCF Done:  E(UHF) =  -631.611646108     A.U. after    2 cycles

 The electronic state is 2-A.
 Alpha  occ. eigenvalues --  -76.25852 -21.11302 -21.08510 -21.07285 -11.54270
 Alpha  occ. eigenvalues --  -11.50350 -11.40750  -5.59315  -2.23075  -2.21741
 Alpha  occ. eigenvalues --   -2.20051  -1.87089  -1.73095  -1.66703  -1.12831
 Alpha  occ. eigenvalues --   -0.92180  -0.80511  -0.69340  -0.64247  -0.63232
 Alpha  occ. eigenvalues --   -0.61514  -0.57644  -0.54963  -0.52350  -0.49922
 Alpha  occ. eigenvalues --   -0.47986  -0.44269  -0.34442  -0.32884  -0.31069
 Alpha  occ. eigenvalues --   -0.25984
 Alpha virt. eigenvalues --    0.03213   0.04430   0.05473   0.05895   0.06252
 Alpha virt. eigenvalues --    0.06674   0.07120   0.08919   0.09462   0.10664
 Alpha virt. eigenvalues --    0.11850   0.12529   0.13389   0.13734   0.14079

  Beta  occ. eigenvalues --  -76.25279 -21.11351 -21.07909 -21.07291 -11.54262
  Beta  occ. eigenvalues --  -11.50605 -11.40750  -5.58424  -2.22353  -2.21051
  Beta  occ. eigenvalues --   -2.16354  -1.87084  -1.72529  -1.66233  -1.12820
  Beta  occ. eigenvalues --   -0.91289  -0.77990  -0.68670  -0.64067  -0.63323
  Beta  occ. eigenvalues --   -0.61194  -0.57738  -0.54775  -0.51833  -0.49461
  Beta  occ. eigenvalues --   -0.47899  -0.43893  -0.33839  -0.32249  -0.27613
  Beta virt. eigenvalues --    0.02027   0.03451   0.04666   0.05548   0.06029
  Beta virt. eigenvalues --    0.06733   0.07140   0.08159   0.09172   0.10439
  Beta virt. eigenvalues --    0.11789   0.12431   0.13339   0.13475   0.14038

 Mulliken charges and spin densities:
               1          2
     1  Si   3.873860   1.080918
     2  C    2.572269  -0.212090
     3  H   -1.459590  -0.015807
     4  H   -1.337057  -0.027844
     5  O   -2.315563   0.173974
     6  O   -2.978066  -0.042819
     7  C    4.949122   0.038003
     8  O   -2.916038  -0.000096
     9  C   -4.216168   0.006722
    10  H    1.317313  -0.001837
    11  H    1.295242   0.000451
    12  H    1.214676   0.000424
 Sum of Mulliken charges =  -0.00000   1.00000

 Dipole moment (field-independent basis, Debye):
    X=             -0.1249    Y=             -1.4472    Z=              0.1323  Tot=              1.4585
                          Isotropic Fermi Contact Couplings
        Atom                 a.u.       MegaHertz       Gauss      10(-4) cm-1
     1  Si(29)             0.45224    -401.91568    -143.41351    -134.06464
     2  C(13)             -0.00724      -8.13878      -2.90412      -2.71480
     3  H(1)               0.00131       5.86418       2.09248       1.95608
     4  H(1)               0.00025       1.13851       0.40625       0.37976
     5  O(17)              0.03364     -20.39154      -7.27621      -6.80188
     6  O(17)             -0.00420       2.54835       0.90931       0.85004
     7  C(13)              0.00149       1.68016       0.59952       0.56044
     8  O(17)              0.00021      -0.12557      -0.04481      -0.04189

 Normal termination of Gaussian 16 at Tue Apr  8 23:55:55 2025.
