 Gaussian 16, Revision C.01,

 ----------------------------------------------------------------------
 #t hf aug-cc-pvdz symm=none int=(grid=ultrafine) guess=(read,tcheck) s
 table=(opt,rrhf)
 ----------------------------------------------------------------------
 -----
 title
 -----
 Symbolic Z-matrix:
 Charge =  0 Multiplicity = 1

 SCF Done:  E(RHF) =  -1563.09786013     A.U. after   13 cycles
 Normal termination of Gaussian 16 at Tue Apr  8 23:27:35 2025.
 Gaussian 16:  ES64L-G16RevC.01  3-Jul-2019

 ----------------------------------------------------------------------
 #t hf aug-cc-pvdz iop(5/13=1,5/36=2,99/5=2) pseudo=read geom=check gue
 ss=(read,tcheck) scf=(maxcycle=1)
 ----------------------------------------------------------------------
 -----
 title
 -----
 Structure from the checkpoint file:  "BDE49_nonexpt_1281_mol1.chk"
 Charge =  0 Multiplicity = 1

                         Standard orientation:
 ---------------------------------------------------------------------
 Center     Atomic      Atomic             Coordinates (Angstroms)
 Number     Number       Type             X           Y           Z
 ---------------------------------------------------------------------
      1          6           0       -0.649770   -0.001331    0.348202
      2         15           0        1.179068   -0.137236    0.029295
      3          8           0        1.758426   -1.259700    0.758870
      4          8           0        1.758496    1.288807    0.428127
      5          6           0       -0.966735   -0.016962    1.832094
      6          1           0       -0.565311   -0.930195    2.272648
      7          1           0       -2.044637    0.027034    1.990029
      8          1           0       -0.497553    0.843718    2.312767
      9         17           0       -1.292478    1.527011   -0.409519
     10         17           0       -1.432623   -1.421398   -0.469838
     11          8           0        1.329396   -0.105551   -1.561384
     12          1           0        1.162125   -0.959819   -1.978728
     13          1           0        1.514559    2.003697   -0.173742
 ---------------------------------------------------------------------

 SCF Done:  E(RHF) =  -1565.11631239     A.U. after    2 cycles

 The electronic state is 1-A.
 Alpha  occ. eigenvalues -- -105.32442 -99.91718 -99.91622 -21.13533 -21.13394
 Alpha  occ. eigenvalues --  -21.03727 -11.52465 -11.41248 -10.49009 -10.48853
 Alpha  occ. eigenvalues --   -9.68950  -9.68803  -9.68256  -9.68176  -9.68127
 Alpha  occ. eigenvalues --   -9.67965  -2.95245  -2.01592  -1.92807  -1.81314
 Alpha  occ. eigenvalues --   -1.57603  -1.41917  -1.39539  -1.30414  -1.26408
 Alpha  occ. eigenvalues --   -1.13086  -0.89382  -0.73622  -0.69628  -0.65205
 Alpha  occ. eigenvalues --   -0.64009  -0.62545  -0.58066  -0.56855  -0.53249
 Alpha  occ. eigenvalues --   -0.52179  -0.50806  -0.50136  -0.45318  -0.43865
 Alpha  occ. eigenvalues --   -0.38450  -0.36491  -0.30040  -0.28844  -0.17130
 Alpha virt. eigenvalues --    0.03212   0.03700   0.05323   0.05762   0.06645
 Alpha virt. eigenvalues --    0.07281   0.07544   0.09258   0.10210   0.11563
 Alpha virt. eigenvalues --    0.11961   0.12861   0.13065   0.13879   0.15325

 Mulliken charges:
               1
     1  C   -2.554227
     2  P    9.942255
     3  O   -3.129862
     4  O   -2.951941
     5  C   -3.442254
     6  H    1.237957
     7  H    1.230020
     8  H    1.190939
     9  Cl  -0.184703
    10  Cl  -0.091177
    11  O   -2.957931
    12  H    0.893978
    13  H    0.816944
 Sum of Mulliken charges =  -0.00000

 Dipole moment (field-independent basis, Debye):
    X=              0.4042    Y=              2.0334    Z=             -0.2823  Tot=              2.0923

 Test job not archived.
 1\1\GINC-SE424\SP\RHF\Aug-CC-pVDZ\C2H5Cl2O3P1\OHZDE\08-Apr-2025\0\\#t
 hf aug-cc-pvdz iop(5/13=1,5/36=2,99/5=2) pseudo=read geom=check guess=
 (read,tcheck) scf=(maxcycle=1)\\title\\0,1\C,0,-0.64977,-0.001331,0.34
 8202\P,0,1.179068,-0.137235,0.029295\O,0,1.758427,-1.259699,0.75887\O,
 0,1.758495,1.288808,0.428127\C,0,-0.966735,-0.016962,1.832094\H,0,-0.5
 6531,-0.930195,2.272648\H,0,-2.044637,0.027033,1.990029\H,0,-0.497554,
 0.843718,2.312767\Cl,0,-1.292479,1.52701,-0.409519\Cl,0,-1.432622,-1.4
 21399,-0.469838\O,0,1.329396,-0.10555,-1.561384\H,0,1.162126,-0.959818

 Normal termination of Gaussian 16 at Tue Apr  8 23:27:40 2025.
