 Gaussian 16, Revision C.01,

 ----------------------------------------------------------------------
 #t hf aug-cc-pvdz symm=none int=(grid=ultrafine) guess=(read,tcheck) s
 table=(opt,rrhf)
 ----------------------------------------------------------------------
 -----
 title
 -----
 Symbolic Z-matrix:
 Charge =  0 Multiplicity = 1

 SCF Done:  E(RHF) =  -1140.19991367     A.U. after   14 cycles
 Normal termination of Gaussian 16 at Tue Apr  8 23:26:12 2025.
 Gaussian 16:  ES64L-G16RevC.01  3-Jul-2019

 ----------------------------------------------------------------------
 #t hf aug-cc-pvdz iop(5/13=1,5/36=2,99/5=2) pseudo=read geom=check gue
 ss=(read,tcheck) scf=(maxcycle=1)
 ----------------------------------------------------------------------
 -----
 title
 -----
 Structure from the checkpoint file:  "BDE49_nonexpt_1238_mol1.chk"
 Charge =  0 Multiplicity = 1

                         Standard orientation:
 ---------------------------------------------------------------------
 Center     Atomic      Atomic             Coordinates (Angstroms)
 Number     Number       Type             X           Y           Z
 ---------------------------------------------------------------------
      1         17           0       -2.920231   -0.585311   -0.208353
      2          8           0        2.306084   -2.277652    0.192534
      3         15           0       -1.439339    0.707224    0.612786
      4          7           0        0.490765   -1.039578   -0.517196
      5          7           0        1.116327    1.060881    0.160150
      6          6           0        0.032335    0.324795   -0.505154
      7          6           0        1.738273   -1.225729    0.017179
      8          6           0        2.272120    0.174520    0.311814
      9          6           0        1.399007    2.379266   -0.388776
     10          1           0       -0.115890   -1.816579   -0.733558
     11          1           0        2.701401    0.213893    1.315399
     12          1           0        3.071637    0.398666   -0.411084
     13          1           0        2.094465    2.905025    0.268071
     14          1           0        1.839157    2.330545   -1.398848
     15          1           0        0.480934    2.968181   -0.436139
     16          1           0       -1.009632   -0.191741    1.616932
     17          1           0       -0.176782    0.688920   -1.521876
 ---------------------------------------------------------------------

 SCF Done:  E(RHF) =  -1142.18020582     A.U. after    2 cycles

 The electronic state is 1-A.
 Alpha  occ. eigenvalues -- -105.23946 -99.89118 -21.03910 -15.77835 -15.74560
 Alpha  occ. eigenvalues --  -11.52069 -11.46636 -11.42969 -11.41439 -10.46343
 Alpha  occ. eigenvalues --   -9.66243  -9.65626  -9.65504  -2.80943  -1.71853
 Alpha  occ. eigenvalues --   -1.56980  -1.50112  -1.49488  -1.48589  -1.33892
 Alpha  occ. eigenvalues --   -1.22841  -1.10621  -1.02841  -0.87094  -0.84120
 Alpha  occ. eigenvalues --   -0.76429  -0.70729  -0.66603  -0.62691  -0.60584
 Alpha  occ. eigenvalues --   -0.58512  -0.56091  -0.54527  -0.53090  -0.52986
 Alpha  occ. eigenvalues --   -0.50878  -0.49072  -0.42846  -0.36839  -0.34094
 Alpha  occ. eigenvalues --   -0.29363  -0.23268  -0.05074
 Alpha virt. eigenvalues --    0.03621   0.05137   0.05324   0.05499   0.06211
 Alpha virt. eigenvalues --    0.06634   0.07056   0.07543   0.08210   0.10098
 Alpha virt. eigenvalues --    0.10770   0.11501   0.11993   0.13121   0.13236

 Mulliken charges:
               1
     1  Cl  -1.208947
     2  O   -3.589833
     3  P    3.502466
     4  N   -2.627890
     5  N   -2.001698
     6  C   -1.024753
     7  C    5.121732
     8  C   -2.988232
     9  C   -3.810550
    10  H    0.710691
    11  H    1.442480
    12  H    1.528883
    13  H    1.333736
    14  H    1.318734
    15  H    1.602280
    16  H   -0.848577
    17  H    1.539479
 Sum of Mulliken charges =  -0.00000

 Dipole moment (field-independent basis, Debye):
    X=             -0.1881    Y=              4.7342    Z=              0.0919  Tot=              4.7388

 Test job not archived.
 1\1\GINC-SE227\SP\RHF\Aug-CC-pVDZ\C4H8Cl1N2O1P1\OHZDE\08-Apr-2025\0\\#
 t hf aug-cc-pvdz iop(5/13=1,5/36=2,99/5=2) pseudo=read geom=check gues
 s=(read,tcheck) scf=(maxcycle=1)\\title\\0,1\Cl,0,-2.920231,-0.585311,
 -0.208353\O,0,2.306084,-2.277652,0.192534\P,0,-1.439339,0.707224,0.612
 786\N,0,0.490765,-1.039578,-0.517196\N,0,1.116327,1.060881,0.16015\C,0
 ,0.032335,0.324795,-0.505154\C,0,1.738273,-1.225729,0.017179\C,0,2.272
 12,0.17452,0.311814\C,0,1.399007,2.379266,-0.388776\H,0,-0.11589,-1.81
 6579,-0.733558\H,0,2.701401,0.213893,1.315399\H,0,3.071637,0.398666,-0

 Normal termination of Gaussian 16 at Tue Apr  8 23:26:21 2025.
