 Gaussian 16, Revision C.01,

 ----------------------------------------------------------------------
 #t hf aug-cc-pvdz symm=none int=(grid=ultrafine) guess=(read,tcheck) s
 table=(opt,rrhf)
 ----------------------------------------------------------------------
 -----
 title
 -----
 Symbolic Z-matrix:
 Charge =  0 Multiplicity = 1

 SCF Done:  E(RHF) =  -348.478647526     A.U. after   12 cycles
 Normal termination of Gaussian 16 at Wed Apr  9 00:38:22 2025.
 Gaussian 16:  ES64L-G16RevC.01  3-Jul-2019

 ----------------------------------------------------------------------
 #t hf aug-cc-pvdz iop(5/13=1,5/36=2,99/5=2) pseudo=read geom=check gue
 ss=(read,tcheck) scf=(maxcycle=1)
 ----------------------------------------------------------------------
 -----
 title
 -----
 Structure from the checkpoint file:  "BDE49_nonexpt_557_mol1.chk"
 Charge =  0 Multiplicity = 1

                         Standard orientation:
 ---------------------------------------------------------------------
 Center     Atomic      Atomic             Coordinates (Angstroms)
 Number     Number       Type             X           Y           Z
 ---------------------------------------------------------------------
      1          7           0        0.149482    0.419707    0.227474
      2          5           0       -1.076181   -0.265241    0.016211
      3          8           0       -2.202219    0.457372   -0.314157
      4          8           0       -1.226208   -1.636918    0.123219
      5          6           0        1.389624   -0.253695    0.588751
      6          6           0        2.297603   -0.587045   -0.602791
      7          1           0        1.157590   -1.172659    1.139756
      8          1           0        1.936512    0.377844    1.299921
      9          1           0        2.565500    0.314313   -1.159410
     10          1           0        1.795369   -1.269006   -1.294304
     11          6           0        0.251781    1.862706    0.051589
     12          1           0        0.946381    2.130902   -0.754465
     13          1           0        0.603947    2.346556    0.972206
     14          1           0       -0.727163    2.266760   -0.197485
     15          1           0        3.224812   -1.060740   -0.265937
     16          1           0       -2.955668   -0.126521   -0.434457
     17          1           0       -0.419380   -2.114622    0.323006
 ---------------------------------------------------------------------

 SCF Done:  E(RHF) =  -350.068623077     A.U. after    2 cycles

 The electronic state is 1-A.
 Alpha  occ. eigenvalues --  -21.04860 -21.03732 -15.68023 -11.42874 -11.38318
 Alpha  occ. eigenvalues --  -11.36478  -7.63207  -1.81307  -1.64330  -1.39841
 Alpha  occ. eigenvalues --   -1.11893  -0.98412  -0.89107  -0.72806  -0.68138
 Alpha  occ. eigenvalues --   -0.64510  -0.61409  -0.57251  -0.56450  -0.54281
 Alpha  occ. eigenvalues --   -0.51361  -0.50589  -0.48081  -0.47042  -0.40566
 Alpha  occ. eigenvalues --   -0.37757  -0.35458  -0.30727
 Alpha virt. eigenvalues --    0.03342   0.04762   0.04998   0.05106   0.06237
 Alpha virt. eigenvalues --    0.06635   0.06958   0.07206   0.08161   0.08748
 Alpha virt. eigenvalues --    0.08944   0.09561   0.09796   0.10623   0.12911

 Mulliken charges:
               1
     1  N   -2.880139
     2  B    6.688322
     3  O   -4.516885
     4  O   -4.369001
     5  C   -1.800626
     6  C   -3.580672
     7  H    1.311991
     8  H    1.701362
     9  H    1.450391
    10  H    1.303800
    11  C   -3.123255
    12  H    1.451064
    13  H    1.377702
    14  H    1.490994
    15  H    1.107825
    16  H    0.978079
    17  H    1.409047
 Sum of Mulliken charges =   0.00000

 Dipole moment (field-independent basis, Debye):
    X=              0.9979    Y=             -0.2536    Z=              0.2596  Tot=              1.0618

 Test job not archived.
 1\1\GINC-SE128\SP\RHF\Aug-CC-pVDZ\C3H10B1N1O2\OHZDE\09-Apr-2025\0\\#t
 hf aug-cc-pvdz iop(5/13=1,5/36=2,99/5=2) pseudo=read geom=check guess=
 (read,tcheck) scf=(maxcycle=1)\\title\\0,1\N,0,-0.149482,0.419707,-0.2
 27474\B,0,1.076181,-0.265241,-0.016211\O,0,2.202219,0.457372,0.314157\
 O,0,1.226208,-1.636918,-0.123219\C,0,-1.389624,-0.253695,-0.588751\C,0
 ,-2.297603,-0.587045,0.602791\H,0,-1.15759,-1.172659,-1.139756\H,0,-1.
 936512,0.377844,-1.299921\H,0,-2.5655,0.314313,1.15941\H,0,-1.795369,-
 1.269006,1.294304\C,0,-0.251781,1.862706,-0.051589\H,0,-0.946381,2.130

 Normal termination of Gaussian 16 at Wed Apr  9 00:38:28 2025.
