 Gaussian 16, Revision C.01,

 ----------------------------------------------------------------------
 #t hf aug-cc-pvdz symm=none int=(grid=ultrafine) guess=(read,tcheck) s
 table=opt
 ----------------------------------------------------------------------
 -----
 title
 -----
 Symbolic Z-matrix:
 Charge =  0 Multiplicity = 2

 SCF Done:  E(UHF) =  -1124.76561186     A.U. after   20 cycles
 Normal termination of Gaussian 16 at Tue Apr  8 23:53:25 2025.
 Gaussian 16:  ES64L-G16RevC.01  3-Jul-2019

 ----------------------------------------------------------------------
 #t hf aug-cc-pvdz iop(5/13=1,5/36=2,99/5=2) pseudo=read geom=check gue
 ss=(read,tcheck) scf=(maxcycle=1)
 ----------------------------------------------------------------------
 -----
 title
 -----
 Structure from the checkpoint file:  "BDE49_nonexpt_1929_mol2.chk"
 Charge =  0 Multiplicity = 2

                         Standard orientation:
 ---------------------------------------------------------------------
 Center     Atomic      Atomic             Coordinates (Angstroms)
 Number     Number       Type             X           Y           Z
 ---------------------------------------------------------------------
      1         14           0       -1.912082    0.583410    0.017715
      2         16           0       -0.465206   -0.966812   -0.393044
      3          1           0       -2.313415    0.593259    1.447026
      4          1           0       -1.377260    1.915084   -0.365815
      5         16           0        1.167570   -0.166065    0.688749
      6          6           0        2.070491    0.765176   -0.596083
      7          1           0        2.951652    1.176099   -0.097124
      8          1           0        1.463533    1.581286   -0.986221
      9          1           0        2.383874    0.101505   -1.400668
 ---------------------------------------------------------------------

 SCF Done:  E(UHF) =  -1125.56496157     A.U. after    2 cycles

 The electronic state is 2-A.
 Alpha  occ. eigenvalues --  -76.25900 -75.71169 -75.70082 -13.12703 -13.10833
 Alpha  occ. eigenvalues --  -13.08972 -13.06622 -13.04950 -13.03901 -11.40426
 Alpha  occ. eigenvalues --   -8.04930  -8.04044  -5.59072  -2.20927  -2.20700
 Alpha  occ. eigenvalues --   -2.19834  -1.23914  -1.07141  -0.91247  -0.74796
 Alpha  occ. eigenvalues --   -0.59958  -0.59633  -0.49543  -0.46629  -0.40949
 Alpha  occ. eigenvalues --   -0.37696  -0.29587  -0.27054  -0.21125
 Alpha virt. eigenvalues --    0.02791   0.03659   0.04356   0.05124   0.07106
 Alpha virt. eigenvalues --    0.07689   0.07795   0.08954   0.10376   0.11035
 Alpha virt. eigenvalues --    0.12699   0.14060   0.14482   0.15045   0.15835

  Beta  occ. eigenvalues --  -76.25346 -75.71078 -75.70085 -13.12337 -13.10895
  Beta  occ. eigenvalues --  -13.08761 -13.06583 -13.04926 -13.03927 -11.40437
  Beta  occ. eigenvalues --   -8.04826  -8.04033  -5.58199  -2.20283  -2.20063
  Beta  occ. eigenvalues --   -2.16259  -1.23485  -1.06896  -0.90589  -0.70435
  Beta  occ. eigenvalues --   -0.59861  -0.59587  -0.48660  -0.46174  -0.40062
  Beta  occ. eigenvalues --   -0.36196  -0.27409  -0.23430
  Beta virt. eigenvalues --    0.01643   0.02976   0.03944   0.05155   0.06158
  Beta virt. eigenvalues --    0.07383   0.08007   0.09313   0.09621   0.10544
  Beta virt. eigenvalues --    0.11282   0.12921   0.14505   0.14662   0.15924

 Mulliken charges and spin densities:
               1          2
     1  Si   4.638537   0.987447
     2  S   -1.301573  -0.047788
     3  H   -1.644935   0.001855
     4  H   -1.551770  -0.000217
     5  S    0.039342   0.087089
     6  C   -4.536367  -0.022498
     7  H    1.362527  -0.005231
     8  H    1.513967  -0.002621
     9  H    1.480273   0.001965
 Sum of Mulliken charges =  -0.00000   1.00000

 Dipole moment (field-independent basis, Debye):
    X=              1.2627    Y=             -1.3475    Z=             -0.0829  Tot=              1.8485
                          Isotropic Fermi Contact Couplings
        Atom                 a.u.       MegaHertz       Gauss      10(-4) cm-1
     1  Si(29)             0.42175    -374.81657    -133.74387    -125.02535
     2  S(33)              0.10136      34.81532      12.42297      11.61314
     3  H(1)               0.00767      34.30596      12.24122      11.44324
     4  H(1)               0.00513      22.93648       8.18431       7.65079
     5  S(33)              0.02312       7.94063       2.83341       2.64871
     6  C(13)             -0.00101      -1.13601      -0.40536      -0.37893
     7  H(1)               0.00069       3.09516       1.10443       1.03244
     8  H(1)               0.00073       3.27707       1.16934       1.09311

 Normal termination of Gaussian 16 at Tue Apr  8 23:53:28 2025.
