 Gaussian 16, Revision C.01,

 ----------------------------------------------------------------------
 #t hf aug-cc-pvdz symm=none int=(grid=ultrafine) guess=(read,tcheck) s
 table=(opt,rrhf)
 ----------------------------------------------------------------------
 -----
 title
 -----
 Symbolic Z-matrix:
 Charge =  0 Multiplicity = 1

 SCF Done:  E(RHF) =  -458.515808419     A.U. after   15 cycles

 1\1\GINC-SE159\Stability\RHF\Aug-CC-pVDZ\C8H10O2\OHZDE\08-Apr-2025\0\\
 #t hf aug-cc-pvdz symm=none int=(grid=ultrafine) guess=(read,tcheck) s
 table=(opt,rrhf)\\title\\0,1\C,0,-1.403648,0.260454,0.\C,0,-0.690752,1
 .468495,0.\C,0,0.690752,1.468495,0.\C,0,-0.700851,-0.940574,0.\C,0,0.7
 00851,-0.940574,-0.000001\C,0,1.403648,0.260454,-0.000001\H,0,-1.21852
 2,-1.890384,-0.000001\H,0,1.218522,-1.890384,-0.000001\O,0,2.767531,0.
 374435,-0.000001\C,0,3.537322,-0.815177,-0.000002\H,0,4.579395,-0.4985
 ,-0.000003\H,0,3.345339,-1.421333,-0.89362\H,0,3.34534,-1.421334,0.893

 Normal termination of Gaussian 16 at Tue Apr  8 22:45:05 2025.
 Gaussian 16:  ES64L-G16RevC.01  3-Jul-2019

 ----------------------------------------------------------------------
 #t hf aug-cc-pvdz iop(5/13=1,5/36=2,99/5=2) pseudo=read geom=check gue
 ss=(read,tcheck) scf=(maxcycle=1)
 ----------------------------------------------------------------------
 -----
 title
 -----
 Structure from the checkpoint file:  "BDE49_expt_1412_mol1.chk"
 Charge =  0 Multiplicity = 1

                         Standard orientation:
 ---------------------------------------------------------------------
 Center     Atomic      Atomic             Coordinates (Angstroms)
 Number     Number       Type             X           Y           Z
 ---------------------------------------------------------------------
      1          6           0       -1.403648    0.260454    0.000000
      2          6           0       -0.690752    1.468495    0.000000
      3          6           0        0.690752    1.468495    0.000000
      4          6           0       -0.700851   -0.940574    0.000000
      5          6           0        0.700851   -0.940574   -0.000001
      6          6           0        1.403648    0.260454   -0.000001
      7          1           0       -1.218522   -1.890384   -0.000001
      8          1           0        1.218522   -1.890384   -0.000001
      9          8           0        2.767531    0.374435   -0.000001
     10          6           0        3.537322   -0.815177   -0.000002
     11          1           0        4.579395   -0.498500   -0.000003
     12          1           0        3.345339   -1.421333   -0.893620
     13          1           0        3.345340   -1.421334    0.893615
     14          1           0       -1.248992    2.396880    0.000001
     15          1           0        1.248992    2.396880    0.000000
     16          8           0       -2.767531    0.374435    0.000000
     17          6           0       -3.537322   -0.815177    0.000004
     18          1           0       -4.579395   -0.498500    0.000006
     19          1           0       -3.345338   -1.421332    0.893622
     20          1           0       -3.345342   -1.421335   -0.893614
 ---------------------------------------------------------------------

 SCF Done:  E(RHF) =  -460.629380939     A.U. after    2 cycles

 The electronic state is 1-A.
 Alpha  occ. eigenvalues --  -21.06752 -21.06713 -11.53551 -11.45987 -11.44295
 Alpha  occ. eigenvalues --  -11.42801 -11.41165 -11.41081 -11.40043 -11.36478
 Alpha  occ. eigenvalues --   -1.78765  -1.77289  -1.29740  -1.10017  -1.08231
 Alpha  occ. eigenvalues --   -1.00407  -0.96044  -0.87395  -0.81339  -0.70000
 Alpha  occ. eigenvalues --   -0.65265  -0.63920  -0.62557  -0.62141  -0.61873
 Alpha  occ. eigenvalues --   -0.58294  -0.55737  -0.54807  -0.52803  -0.47289
 Alpha  occ. eigenvalues --   -0.46470  -0.44772  -0.38959  -0.38732  -0.33993
 Alpha  occ. eigenvalues --   -0.32993  -0.22551
 Alpha virt. eigenvalues --    0.03430   0.04776   0.04999   0.06012   0.06138
 Alpha virt. eigenvalues --    0.06441   0.06682   0.06767   0.07793   0.08874
 Alpha virt. eigenvalues --    0.09463   0.11107   0.11296   0.13410   0.13560

 Mulliken charges:
               1
     1  C    5.189619
     2  C   -2.867557
     3  C   -2.867555
     4  C   -1.791085
     5  C   -1.791085
     6  C    5.189619
     7  H    1.830957
     8  H    1.830957
     9  O   -4.752439
    10  C   -3.714654
    11  H    1.410223
    12  H    1.383790
    13  H    1.383792
    14  H    1.927353
    15  H    1.927353
    16  O   -4.752439
    17  C   -3.714654
    18  H    1.410222
    19  H    1.383791
    20  H    1.383791
 Sum of Mulliken charges =  -0.00000

 Dipole moment (field-independent basis, Debye):
    X=              0.0000    Y=             -0.7918    Z=              0.0000  Tot=              0.7918

 Test job not archived.
 1\1\GINC-SE159\SP\RHF\Aug-CC-pVDZ\C8H10O2\OHZDE\08-Apr-2025\0\\#t hf a
 ug-cc-pvdz iop(5/13=1,5/36=2,99/5=2) pseudo=read geom=check guess=(rea
 d,tcheck) scf=(maxcycle=1)\\title\\0,1\C,0,-1.403648,0.260454,0.\C,0,-
 0.690752,1.468495,0.\C,0,0.690752,1.468495,0.\C,0,-0.700851,-0.940574,
 0.\C,0,0.700851,-0.940574,-0.000001\C,0,1.403648,0.260454,-0.000001\H,
 0,-1.218522,-1.890384,-0.000001\H,0,1.218522,-1.890384,-0.000001\O,0,2
 .767531,0.374435,-0.000001\C,0,3.537322,-0.815177,-0.000002\H,0,4.5793
 95,-0.4985,-0.000003\H,0,3.345339,-1.421333,-0.89362\H,0,3.34534,-1.42

 Normal termination of Gaussian 16 at Tue Apr  8 22:45:16 2025.
