 Gaussian 16, Revision C.01,

 ----------------------------------------------------------------------
 #t hf aug-cc-pvdz symm=none int=(grid=ultrafine) guess=(read,tcheck) s
 table=opt
 ----------------------------------------------------------------------
 -----
 title
 -----
 Symbolic Z-matrix:
 Charge =  0 Multiplicity = 2

 SCF Done:  E(UHF) =  -231.550854962     A.U. after   16 cycles
 Normal termination of Gaussian 16 at Tue Apr  8 22:53:56 2025.
 Gaussian 16:  ES64L-G16RevC.01  3-Jul-2019

 ----------------------------------------------------------------------
 #t hf aug-cc-pvdz iop(5/13=1,5/36=2,99/5=2) pseudo=read geom=check gue
 ss=(read,tcheck) scf=(maxcycle=1)
 ----------------------------------------------------------------------
 -----
 title
 -----
 Structure from the checkpoint file:  "BDE49_expt_176_mol2.chk"
 Charge =  0 Multiplicity = 2

                         Standard orientation:
 ---------------------------------------------------------------------
 Center     Atomic      Atomic             Coordinates (Angstroms)
 Number     Number       Type             X           Y           Z
 ---------------------------------------------------------------------
      1          6           0        1.192820    0.484421   -0.060435
      2          8           0        0.031912   -0.232883   -0.026425
      3          6           0       -1.170763    0.538422   -0.038916
      4          6           0       -2.348529   -0.413876    0.037067
      5          1           0       -1.205951    1.139187   -0.956098
      6          1           0       -1.167876    1.228187    0.816412
      7          1           0       -2.344800   -1.096327   -0.815569
      8          1           0       -3.288541    0.144077    0.030660
      9          1           0       -2.303829   -1.007987    0.952514
     10          6           0        2.430339   -0.335594    0.014572
     11          1           0        1.152802    1.483501    0.373102
     12          1           0        2.557400   -0.819295    0.996894
     13          1           0        3.310810    0.285425   -0.166275
     14          1           0        2.411483   -1.133947   -0.733972
 ---------------------------------------------------------------------

 SCF Done:  E(UHF) =  -232.645516904     A.U. after    2 cycles

 The electronic state is 2-A.
 Alpha  occ. eigenvalues --  -21.05530 -11.43114 -11.41308 -11.36497 -11.35738
 Alpha  occ. eigenvalues --   -1.76974  -1.15049  -1.07719  -0.88727  -0.83825
 Alpha  occ. eigenvalues --   -0.65439  -0.63116  -0.59008  -0.57934  -0.54417
 Alpha  occ. eigenvalues --   -0.51195  -0.50102  -0.45314  -0.43082  -0.38380
 Alpha  occ. eigenvalues --   -0.22782
 Alpha virt. eigenvalues --    0.04048   0.05203   0.05724   0.05946   0.06077
 Alpha virt. eigenvalues --    0.06351   0.06711   0.07261   0.08564   0.11127
 Alpha virt. eigenvalues --    0.12897   0.13959   0.14535   0.15581   0.15872

  Beta  occ. eigenvalues --  -21.05038 -11.43079 -11.39814 -11.36451 -11.35294
  Beta  occ. eigenvalues --   -1.75460  -1.13750  -1.06577  -0.88196  -0.79551
  Beta  occ. eigenvalues --   -0.64480  -0.62521  -0.57780  -0.54624  -0.54151
  Beta  occ. eigenvalues --   -0.50750  -0.49777  -0.44830  -0.38936  -0.34407
  Beta virt. eigenvalues --    0.04015   0.05206   0.05632   0.05826   0.05999
  Beta virt. eigenvalues --    0.06356   0.06691   0.07257   0.08568   0.11181
  Beta virt. eigenvalues --    0.12105   0.12996   0.14441   0.15050   0.15895

 Mulliken charges and spin densities:
               1          2
     1  C    0.862880   1.206594
     2  O   -3.212869   0.092195
     3  C   -1.425235  -0.003916
     4  C   -3.887736  -0.006777
     5  H    1.527483  -0.036318
     6  H    1.515285   0.006635
     7  H    1.285223  -0.003899
     8  H    1.131127  -0.000353
     9  H    1.275446   0.000239
    10  C   -4.297110  -0.292045
    11  H    1.467693   0.010326
    12  H    1.233681   0.030039
    13  H    1.221352  -0.008937
    14  H    1.302781   0.006218
 Sum of Mulliken charges =   0.00000   1.00000

 Dipole moment (field-independent basis, Debye):
    X=             -0.4891    Y=              0.1980    Z=              0.3438  Tot=              0.6298
                          Isotropic Fermi Contact Couplings
        Atom                 a.u.       MegaHertz       Gauss      10(-4) cm-1
     1  C(13)              0.16500     185.48749      66.18655      61.87197
     2  O(17)              0.03906     -23.67992      -8.44958      -7.89877
     3  C(13)              0.00117       1.31614       0.46963       0.43902
     4  C(13)             -0.00163      -1.82729      -0.65202      -0.60952
     5  H(1)               0.00055       2.43799       0.86994       0.81323
     6  H(1)               0.00110       4.89568       1.74690       1.63302
     7  H(1)               0.00001       0.06637       0.02368       0.02214
     8  H(1)              -0.00026      -1.14409      -0.40824      -0.38163

 Normal termination of Gaussian 16 at Tue Apr  8 22:53:59 2025.
