 Gaussian 16, Revision C.01,

 ----------------------------------------------------------------------
 #t hf aug-cc-pvdz symm=none int=(grid=ultrafine) guess=(read,tcheck) s
 table=(opt,rrhf)
 ----------------------------------------------------------------------
 -----
 title
 -----
 Symbolic Z-matrix:
 Charge =  0 Multiplicity = 1

 SCF Done:  E(RHF) =  -663.502849458     A.U. after   14 cycles
 Normal termination of Gaussian 16 at Tue Apr  8 23:52:36 2025.
 Gaussian 16:  ES64L-G16RevC.01  3-Jul-2019

 ----------------------------------------------------------------------
 #t hf aug-cc-pvdz iop(5/13=1,5/36=2,99/5=2) pseudo=read geom=check gue
 ss=(read,tcheck) scf=(maxcycle=1)
 ----------------------------------------------------------------------
 -----
 title
 -----
 Structure from the checkpoint file:  "BDE49_nonexpt_1914_mol1.chk"
 Charge =  0 Multiplicity = 1

                         Standard orientation:
 ---------------------------------------------------------------------
 Center     Atomic      Atomic             Coordinates (Angstroms)
 Number     Number       Type             X           Y           Z
 ---------------------------------------------------------------------
      1         14           0        0.363964    1.107337    0.240731
      2          6           0       -0.624136   -0.304728    1.022730
      3          8           0       -1.451948   -1.013474    0.030865
      4          6           0       -2.564686   -0.439774   -0.275408
      5          7           0       -3.570409    0.055084   -0.564776
      6          8           0        1.586912    0.443239   -0.738540
      7          1           0        0.999788    1.891518    1.314404
      8          1           0       -0.436587    1.898968   -0.698330
      9          6           0        2.517699   -0.352361   -0.344271
     10          7           0        3.358264   -1.072525   -0.007008
     11          1           0       -1.264240    0.046970    1.837188
     12          1           0        0.037581   -1.075038    1.422090
 ---------------------------------------------------------------------

 SCF Done:  E(RHF) =  -665.222176760     A.U. after    2 cycles

 The electronic state is 1-A.
 Alpha  occ. eigenvalues --  -76.30678 -21.17333 -21.16867 -15.77049 -15.76842
 Alpha  occ. eigenvalues --  -11.50182 -11.49680 -11.46878  -5.64346  -2.30507
 Alpha  occ. eigenvalues --   -2.27325  -2.26514  -1.86630  -1.83170  -1.30326
 Alpha  occ. eigenvalues --   -1.29987  -1.07511  -0.85744  -0.76047  -0.70630
 Alpha  occ. eigenvalues --   -0.68535  -0.63503  -0.61134  -0.59386  -0.56959
 Alpha  occ. eigenvalues --   -0.54255  -0.52636  -0.52439  -0.50984  -0.42032
 Alpha  occ. eigenvalues --   -0.39895  -0.38826  -0.34709
 Alpha virt. eigenvalues --    0.02529   0.03663   0.04285   0.05589   0.06121
 Alpha virt. eigenvalues --    0.07085   0.07534   0.08869   0.09331   0.10386
 Alpha virt. eigenvalues --    0.11155   0.11628   0.12374   0.12542   0.13132

 Mulliken charges:
               1
     1  Si   6.237026
     2  C   -2.834081
     3  O   -2.584063
     4  C    3.870317
     5  N   -2.555430
     6  O   -2.932085
     7  H   -1.798728
     8  H   -1.697032
     9  C    3.862549
    10  N   -2.485769
    11  H    1.613755
    12  H    1.303541
 Sum of Mulliken charges =  -0.00000

 Dipole moment (field-independent basis, Debye):
    X=              0.1303    Y=              1.6113    Z=              1.3468  Tot=              2.1041

 Test job not archived.
 1\1\GINC-SE455\SP\RHF\Aug-CC-pVDZ\C3H4N2O2Si1\OHZDE\08-Apr-2025\0\\#t
 hf aug-cc-pvdz iop(5/13=1,5/36=2,99/5=2) pseudo=read geom=check guess=
 (read,tcheck) scf=(maxcycle=1)\\title\\0,1\Si,0,0.363964,1.107337,0.24
 0731\C,0,-0.624136,-0.304728,1.02273\O,0,-1.451948,-1.013474,0.030865\
 C,0,-2.564686,-0.439774,-0.275408\N,0,-3.570409,0.055084,-0.564776\O,0
 ,1.586912,0.443239,-0.73854\H,0,0.999788,1.891518,1.314404\H,0,-0.4365
 87,1.898968,-0.69833\C,0,2.517699,-0.352361,-0.344271\N,0,3.358264,-1.
 072525,-0.007008\H,0,-1.26424,0.04697,1.837188\H,0,0.037581,-1.075038,

 Normal termination of Gaussian 16 at Tue Apr  8 23:52:41 2025.
