 Gaussian 16, Revision C.01,

 ----------------------------------------------------------------------
 #t hf aug-cc-pvdz symm=none int=(grid=ultrafine) guess=(read,tcheck) s
 table=(opt,rrhf)
 ----------------------------------------------------------------------
 -----
 title
 -----
 Symbolic Z-matrix:
 Charge =  0 Multiplicity = 1

 SCF Done:  E(RHF) =  -1376.48450536     A.U. after   12 cycles

 1\1\GINC-SE402\Stability\RHF\Aug-CC-pVDZ\H6S2Si2\OHZDE\09-Apr-2025\0\\
 #t hf aug-cc-pvdz symm=none int=(grid=ultrafine) guess=(read,tcheck) s
 table=(opt,rrhf)\\title\\0,1\Si,0,1.132637,0.939402,0.335575\Si,0,-1.1
 32637,0.939402,-0.335575\S,0,-2.119819,-0.913038,0.225143\H,0,-1.23971
 1,1.1617,-1.796844\H,0,-1.899402,1.985873,0.379867\H,0,-1.379351,-1.69
 0605,-0.586478\S,0,2.119819,-0.913038,-0.225143\H,0,1.239711,1.1617,1.
 796844\H,0,1.899402,1.985873,-0.379867\H,0,1.379351,-1.690605,0.586478
 \\Version=ES64L-G16RevC.01\HF=-1376.4845054\RMSD=2.039e-09\Dipole=0.,0

 Normal termination of Gaussian 16 at Wed Apr  9 00:12:36 2025.
 Gaussian 16:  ES64L-G16RevC.01  3-Jul-2019

 ----------------------------------------------------------------------
 #t hf aug-cc-pvdz iop(5/13=1,5/36=2,99/5=2) pseudo=read geom=check gue
 ss=(read,tcheck) scf=(maxcycle=1)
 ----------------------------------------------------------------------
 -----
 title
 -----
 Structure from the checkpoint file:  "BDE49_nonexpt_2415_mol1.chk"
 Charge =  0 Multiplicity = 1

                         Standard orientation:
 ---------------------------------------------------------------------
 Center     Atomic      Atomic             Coordinates (Angstroms)
 Number     Number       Type             X           Y           Z
 ---------------------------------------------------------------------
      1         14           0       -0.851188   -0.819119    0.939402
      2         14           0        0.851188    0.819119    0.939402
      3         16           0        0.851188    1.954431   -0.913038
      4          1           0        2.174680    0.190518    1.161700
      5          1           0        0.607790    1.839190    1.985873
      6          1           0        1.191204    0.909725   -1.690605
      7         16           0       -0.851188   -1.954431   -0.913038
      8          1           0       -2.174680   -0.190518    1.161700
      9          1           0       -0.607790   -1.839190    1.985873
     10          1           0       -1.191204   -0.909725   -1.690605
 ---------------------------------------------------------------------

 SCF Done:  E(RHF) =  -1377.25779624     A.U. after    2 cycles

 The electronic state is 1-A.
 Alpha  occ. eigenvalues --  -76.25136 -76.25089 -75.69292 -75.69273 -13.13958
 Alpha  occ. eigenvalues --  -13.13811 -13.07629 -13.07036 -13.03555 -13.03202
 Alpha  occ. eigenvalues --   -8.03220  -8.03199  -5.58497  -5.58488  -2.20515
 Alpha  occ. eigenvalues --   -2.20375  -2.20276  -2.20200  -2.19763  -2.18831
 Alpha  occ. eigenvalues --   -1.11600  -1.10512  -0.79895  -0.70599  -0.52875
 Alpha  occ. eigenvalues --   -0.52465  -0.47387  -0.47241  -0.43061  -0.35793
 Alpha  occ. eigenvalues --   -0.33445  -0.28185  -0.26081
 Alpha virt. eigenvalues --    0.02214   0.03950   0.04008   0.05009   0.06633
 Alpha virt. eigenvalues --    0.06758   0.07875   0.08821   0.08884   0.09694
 Alpha virt. eigenvalues --    0.10323   0.10890   0.11675   0.11903   0.11992

 Mulliken charges:
               1
     1  Si   4.685585
     2  Si   4.685585
     3  S   -2.352246
     4  H   -1.630056
     5  H   -1.754459
     6  H    1.051175
     7  S   -2.352246
     8  H   -1.630056
     9  H   -1.754459
    10  H    1.051175
 Sum of Mulliken charges =  -0.00000

 Dipole moment (field-independent basis, Debye):
    X=             -0.0000    Y=              0.0000    Z=             -1.4323  Tot=              1.4323

 Test job not archived.
 1\1\GINC-SE402\SP\RHF\Aug-CC-pVDZ\H6S2Si2\OHZDE\09-Apr-2025\0\\#t hf a
 ug-cc-pvdz iop(5/13=1,5/36=2,99/5=2) pseudo=read geom=check guess=(rea
 d,tcheck) scf=(maxcycle=1)\\title\\0,1\Si,0,1.132637,0.939402,0.335575
 \Si,0,-1.132637,0.939402,-0.335575\S,0,-2.119819,-0.913038,0.225143\H,
 0,-1.239711,1.1617,-1.796844\H,0,-1.899402,1.985873,0.379867\H,0,-1.37
 9351,-1.690605,-0.586478\S,0,2.119819,-0.913038,-0.225143\H,0,1.239711
 ,1.1617,1.796844\H,0,1.899402,1.985873,-0.379867\H,0,1.379351,-1.69060
 5,0.586478\\Version=ES64L-G16RevC.01\State=1-A\HF=-1377.2577962\RMSD=1

 Normal termination of Gaussian 16 at Wed Apr  9 00:12:40 2025.
