 Gaussian 16, Revision C.01,

 ----------------------------------------------------------------------
 #t hf aug-cc-pvdz symm=none int=(grid=ultrafine) guess=(read,tcheck) s
 table=(opt,rrhf)
 ----------------------------------------------------------------------
 -----
 title
 -----
 Symbolic Z-matrix:
 Charge =  0 Multiplicity = 1

 SCF Done:  E(RHF) =  -825.008571716     A.U. after   13 cycles
 Normal termination of Gaussian 16 at Tue Apr  8 23:17:48 2025.
 Gaussian 16:  ES64L-G16RevC.01  3-Jul-2019

 ----------------------------------------------------------------------
 #t hf aug-cc-pvdz iop(5/13=1,5/36=2,99/5=2) pseudo=read geom=check gue
 ss=(read,tcheck) scf=(maxcycle=1)
 ----------------------------------------------------------------------
 -----
 title
 -----
 Structure from the checkpoint file:  "BDE49_nonexpt_1027_mol1.chk"
 Charge =  0 Multiplicity = 1

                         Standard orientation:
 ---------------------------------------------------------------------
 Center     Atomic      Atomic             Coordinates (Angstroms)
 Number     Number       Type             X           Y           Z
 ---------------------------------------------------------------------
      1         17           0        1.465080   -0.161918    0.000003
      2          8           0        0.010055    0.767936   -0.000006
      3         14           0       -1.400252   -0.161585   -0.000001
      4          1           0       -1.471334   -1.006573    1.209009
      5          1           0       -2.440605    0.884477   -0.000010
      6          1           0       -1.471331   -1.006591   -1.208998
 ---------------------------------------------------------------------

 SCF Done:  E(RHF) =  -825.727561777     A.U. after    2 cycles

 The electronic state is 1-A.
 Alpha  occ. eigenvalues --  -99.94696 -76.25867 -21.10804 -10.51399  -9.71252
 Alpha  occ. eigenvalues --   -9.70486  -9.70324  -5.59361  -2.25124  -2.21213
 Alpha  occ. eigenvalues --   -2.20928  -1.73934  -1.24161  -0.78151  -0.61205
 Alpha  occ. eigenvalues --   -0.60300  -0.59135  -0.49953  -0.49179  -0.41642
 Alpha  occ. eigenvalues --   -0.38892
 Alpha virt. eigenvalues --    0.02524   0.04258   0.05542   0.06591   0.06672
 Alpha virt. eigenvalues --    0.09321   0.09472   0.12043   0.13996   0.15336
 Alpha virt. eigenvalues --    0.16041   0.16910   0.17266   0.17555   0.20067

 Mulliken charges:
               1
     1  Cl   0.484149
     2  O   -1.790980
     3  Si   6.068335
     4  H   -1.615558
     5  H   -1.530387
     6  H   -1.615559
 Sum of Mulliken charges =  -0.00000

 Dipole moment (field-independent basis, Debye):
    X=             -1.9425    Y=              0.7095    Z=             -0.0000  Tot=              2.0681

 Test job not archived.
 1\1\GINC-SE105\SP\RHF\Aug-CC-pVDZ\Cl1H3O1Si1\OHZDE\08-Apr-2025\0\\#t h
 f aug-cc-pvdz iop(5/13=1,5/36=2,99/5=2) pseudo=read geom=check guess=(
 read,tcheck) scf=(maxcycle=1)\\title\\0,1\Cl,0,1.46508,-0.161918,0.000
 003\O,0,0.010055,0.767936,-0.000006\Si,0,-1.400252,-0.161585,-0.000001
 \H,0,-1.471334,-1.006573,1.209009\H,0,-2.440605,0.884477,-0.00001\H,0,
 -1.471331,-1.006591,-1.208998\\Version=ES64L-G16RevC.01\State=1-A\HF=-
 825.7275618\RMSD=7.957e-02\Dipole=-0.7642529,0.2791386,-0.0000038\Quad
 rupole=1.2095028,-0.2412208,-0.968282,-0.6043207,0.0000093,-0.0000055\

 Normal termination of Gaussian 16 at Tue Apr  8 23:17:49 2025.
