 Gaussian 16, Revision C.01,

 ----------------------------------------------------------------------
 #t hf aug-cc-pvdz symm=none int=(grid=ultrafine) guess=(read,tcheck) s
 table=(opt,rrhf)
 ----------------------------------------------------------------------
 -----
 title
 -----
 Symbolic Z-matrix:
 Charge =  0 Multiplicity = 1

 SCF Done:  E(RHF) =  -496.405812163     A.U. after   16 cycles

 1\1\GINC-SE361\Stability\RHF\Aug-CC-pVDZ\C9H10O2\OHZDE\08-Apr-2025\0\\
 #t hf aug-cc-pvdz symm=none int=(grid=ultrafine) guess=(read,tcheck) s
 table=(opt,rrhf)\\title\\0,1\C,0,1.990945,-1.495268,-0.372313\C,0,0.70
 8082,-0.969198,-0.502282\C,0,3.027045,-0.704281,0.118708\C,0,2.782221,
 0.621773,0.480383\C,0,1.506523,1.151495,0.346746\C,0,0.455434,0.362855
 ,-0.144527\H,0,-0.098359,-1.595264,-0.858672\H,0,2.180392,-2.525355,-0
 .652071\H,0,4.023913,-1.118887,0.220635\H,0,3.588015,1.238438,0.862136
 \H,0,1.294351,2.180317,0.610407\C,0,-0.884704,1.010944,-0.298848\O,0,-

 Normal termination of Gaussian 16 at Tue Apr  8 23:04:50 2025.
 Gaussian 16:  ES64L-G16RevC.01  3-Jul-2019

 ----------------------------------------------------------------------
 #t hf aug-cc-pvdz iop(5/13=1,5/36=2,99/5=2) pseudo=read geom=check gue
 ss=(read,tcheck) scf=(maxcycle=1)
 ----------------------------------------------------------------------
 -----
 title
 -----
 Structure from the checkpoint file:  "BDE49_expt_240_mol1.chk"
 Charge =  0 Multiplicity = 1

                         Standard orientation:
 ---------------------------------------------------------------------
 Center     Atomic      Atomic             Coordinates (Angstroms)
 Number     Number       Type             X           Y           Z
 ---------------------------------------------------------------------
      1          6           0        1.990945   -1.495268   -0.372313
      2          6           0        0.708082   -0.969198   -0.502282
      3          6           0        3.027045   -0.704281    0.118708
      4          6           0        2.782221    0.621773    0.480383
      5          6           0        1.506523    1.151495    0.346746
      6          6           0        0.455434    0.362855   -0.144527
      7          1           0       -0.098359   -1.595264   -0.858672
      8          1           0        2.180392   -2.525355   -0.652071
      9          1           0        4.023913   -1.118888    0.220635
     10          1           0        3.588015    1.238438    0.862136
     11          1           0        1.294351    2.180317    0.610407
     12          6           0       -0.884704    1.010944   -0.298848
     13          8           0       -1.039146    2.199066   -0.090482
     14          6           0       -2.093737    0.192085   -0.789640
     15          8           0       -2.270209   -1.076547   -0.191064
     16          1           0       -1.969120    0.010161   -1.862270
     17          1           0       -2.973720    0.831594   -0.648765
     18          6           0       -2.686838   -1.003457    1.164603
     19          1           0       -3.629758   -0.448496    1.258476
     20          1           0       -1.931610   -0.526281    1.802262
     21          1           0       -2.839093   -2.028055    1.503247
 ---------------------------------------------------------------------

 SCF Done:  E(RHF) =  -498.678407986     A.U. after    2 cycles

 The electronic state is 1-A.
 Alpha  occ. eigenvalues --  -21.06001 -21.05377 -11.53188 -11.50787 -11.44605
 Alpha  occ. eigenvalues --  -11.44067 -11.43481 -11.42078 -11.41495 -11.40966
 Alpha  occ. eigenvalues --  -11.37356  -1.76999  -1.70519  -1.34729  -1.13121
 Alpha  occ. eigenvalues --   -1.10045  -1.06454  -0.96366  -0.89678  -0.87010
 Alpha  occ. eigenvalues --   -0.78054  -0.71163  -0.66896  -0.65826  -0.62465
 Alpha  occ. eigenvalues --   -0.61181  -0.59069  -0.58623  -0.54962  -0.54350
 Alpha  occ. eigenvalues --   -0.51589  -0.51013  -0.46385  -0.44802  -0.43847
 Alpha  occ. eigenvalues --   -0.40364  -0.34147  -0.32843  -0.32295  -0.26867
 Alpha virt. eigenvalues --    0.03194   0.04829   0.05037   0.05323   0.05543
 Alpha virt. eigenvalues --    0.06082   0.06608   0.07402   0.07494   0.08235
 Alpha virt. eigenvalues --    0.08959   0.09952   0.10356   0.11474   0.12346

 Mulliken charges:
               1
     1  C   -1.878842
     2  C    0.316816
     3  C   -3.662629
     4  C   -1.094415
     5  C   -4.146567
     6  C    4.477328
     7  H    2.115893
     8  H    1.478661
     9  H    1.537941
    10  H    1.485305
    11  H    1.776646
    12  C    2.944540
    13  O   -3.976955
    14  C   -2.274966
    15  O   -2.789509
    16  H    1.335933
    17  H    1.198778
    18  C   -3.069362
    19  H    1.381329
    20  H    1.538129
    21  H    1.305944
 Sum of Mulliken charges =  -0.00000

 Dipole moment (field-independent basis, Debye):
    X=              0.4938    Y=             -1.2755    Z=              0.2443  Tot=              1.3894

 Test job not archived.
 1\1\GINC-SE361\SP\RHF\Aug-CC-pVDZ\C9H10O2\OHZDE\08-Apr-2025\0\\#t hf a
 ug-cc-pvdz iop(5/13=1,5/36=2,99/5=2) pseudo=read geom=check guess=(rea
 d,tcheck) scf=(maxcycle=1)\\title\\0,1\C,0,1.990945,-1.495268,-0.37231
 3\C,0,0.708082,-0.969198,-0.502282\C,0,3.027045,-0.704281,0.118708\C,0
 ,2.782221,0.621773,0.480383\C,0,1.506523,1.151495,0.346746\C,0,0.45543
 4,0.362855,-0.144527\H,0,-0.098359,-1.595264,-0.858672\H,0,2.180392,-2
 .525355,-0.652071\H,0,4.023913,-1.118887,0.220635\H,0,3.588015,1.23843
 8,0.862136\H,0,1.294351,2.180317,0.610407\C,0,-0.884704,1.010944,-0.29

 Normal termination of Gaussian 16 at Tue Apr  8 23:05:03 2025.
