 Gaussian 16, Revision C.01,

 ----------------------------------------------------------------------
 #t hf aug-cc-pvdz symm=none int=(grid=ultrafine) guess=(read,tcheck) s
 table=opt
 ----------------------------------------------------------------------
 -----
 title
 -----
 Symbolic Z-matrix:
 Charge =  0 Multiplicity = 2

 SCF Done:  E(UHF) =  -150.202434694     A.U. after   18 cycles
 Normal termination of Gaussian 16 at Tue Apr  8 22:44:25 2025.
 Gaussian 16:  ES64L-G16RevC.01  3-Jul-2019

 ----------------------------------------------------------------------
 #t hf aug-cc-pvdz iop(5/13=1,5/36=2,99/5=2) pseudo=read geom=check gue
 ss=(read,tcheck) scf=(maxcycle=1)
 ----------------------------------------------------------------------
 -----
 title
 -----
 Structure from the checkpoint file:  "BDE49_expt_1462_mol3.chk"
 Charge =  0 Multiplicity = 2

                         Standard orientation:
 ---------------------------------------------------------------------
 Center     Atomic      Atomic             Coordinates (Angstroms)
 Number     Number       Type             X           Y           Z
 ---------------------------------------------------------------------
      1          8           0        0.055287    0.718523    0.000000
      2          8           0        0.055287   -0.609668    0.000000
      3          1           0       -0.884585   -0.870837    0.000000
 ---------------------------------------------------------------------

 SCF Done:  E(UHF) =  -150.762748351     A.U. after    2 cycles

 The electronic state is 2-A".
 Alpha  occ. eigenvalues --  -21.16794 -21.16238  -2.03142  -1.35716  -0.66377
 Alpha  occ. eigenvalues --   -0.59797  -0.51302  -0.35494  -0.32432
 Alpha virt. eigenvalues --    0.04472   0.12556   0.17894   0.20215   0.21939
 Alpha virt. eigenvalues --    0.24079   0.24545   0.24891   0.32131   0.35046
 Alpha virt. eigenvalues --    0.37957   0.43146   0.50917   0.65063   0.76356

  Beta  occ. eigenvalues --  -21.15910 -21.12556  -1.97627  -1.26467  -0.65290
  Beta  occ. eigenvalues --   -0.49516  -0.45161  -0.32877
  Beta virt. eigenvalues --    0.04502   0.12933   0.13492   0.17936   0.21680
  Beta virt. eigenvalues --    0.21939   0.24385   0.24791   0.32303   0.32817
  Beta virt. eigenvalues --    0.37194   0.39349   0.43490   0.51825   0.65532

 Mulliken charges and spin densities:
               1          2
     1  O   -0.146495   0.897480
     2  O   -0.843308   0.121820
     3  H    0.989803  -0.019299
 Sum of Mulliken charges =  -0.00000   1.00000

 Dipole moment (field-independent basis, Debye):
    X=             -0.9494    Y=             -0.6323    Z=              0.0000  Tot=              1.1407
                          Isotropic Fermi Contact Couplings
        Atom                 a.u.       MegaHertz       Gauss      10(-4) cm-1
     1  O(17)              0.19430    -117.78310     -42.02794     -39.28821
     2  O(17)              0.05397     -32.71774     -11.67450     -10.91346
     3  H(1)              -0.00344     -15.35893      -5.48045      -5.12319
 --------------------------------------------------------
       Center         ----  Spin Dipole Couplings  ----
                      3XX-RR        3YY-RR        3ZZ-RR
 --------------------------------------------------------
     1   Atom       -1.127967     -1.149809      2.277776

 Normal termination of Gaussian 16 at Tue Apr  8 22:44:27 2025.
