 Gaussian 16, Revision C.01,

 ----------------------------------------------------------------------
 #t hf aug-cc-pvdz symm=none int=(grid=ultrafine) guess=(read,tcheck) s
 table=(opt,rrhf)
 ----------------------------------------------------------------------
 -----
 title
 -----
 Symbolic Z-matrix:
 Charge =  0 Multiplicity = 1

 SCF Done:  E(RHF) =  -1234.44852459     A.U. after   18 cycles
 Normal termination of Gaussian 16 at Tue Apr  8 23:35:43 2025.
 Gaussian 16:  ES64L-G16RevC.01  3-Jul-2019

 ----------------------------------------------------------------------
 #t hf aug-cc-pvdz iop(5/13=1,5/36=2,99/5=2) pseudo=read geom=check gue
 ss=(read,tcheck) scf=(maxcycle=1)
 ----------------------------------------------------------------------
 -----
 title
 -----
 Structure from the checkpoint file:  "BDE49_nonexpt_1439_mol1.chk"
 Charge =  0 Multiplicity = 1

                         Standard orientation:
 ---------------------------------------------------------------------
 Center     Atomic      Atomic             Coordinates (Angstroms)
 Number     Number       Type             X           Y           Z
 ---------------------------------------------------------------------
      1          6           0        0.103251   -1.889785   -0.035418
      2          6           0        1.447302   -1.537621   -0.019331
      3          6           0        1.846965   -0.195590    0.010472
      4          6           0       -0.887261   -0.909592   -0.020277
      5          6           0       -0.493704    0.432849    0.000307
      6          6           0        0.853329    0.782904    0.004168
      7          1           0        2.194125   -2.323590   -0.043387
      8         15           0        3.658762    0.186848    0.004962
      9          1           0       -0.193034   -2.929818   -0.075200
     10          7           0       -1.461434    1.553258    0.035730
     11          8           0       -1.154850    2.561165   -0.586641
     12          8           0       -2.472302    1.411695    0.702059
     13         17           0       -2.546470   -1.421701   -0.105949
     14          1           0        1.098221    1.836460    0.000218
     15          1           0        3.789958    0.476542    1.389180
     16          1           0        3.547256    1.551918   -0.357083
 ---------------------------------------------------------------------

 SCF Done:  E(RHF) =  -1236.81181944     A.U. after    2 cycles

 The electronic state is 1-A.
 Alpha  occ. eigenvalues -- -105.20888 -99.91783 -21.10519 -21.10102 -16.01085
 Alpha  occ. eigenvalues --  -11.57063 -11.50727 -11.50290 -11.47187 -11.45985
 Alpha  occ. eigenvalues --  -11.41571 -10.49183  -9.69243  -9.68331  -9.68102
 Alpha  occ. eigenvalues --   -2.77742  -2.00785  -1.70077  -1.52853  -1.47546
 Alpha  occ. eigenvalues --   -1.46216  -1.42863  -1.31017  -1.19599  -1.11422
 Alpha  occ. eigenvalues --   -1.01251  -0.91340  -0.84961  -0.77271  -0.72614
 Alpha  occ. eigenvalues --   -0.70753  -0.69563  -0.65859  -0.64448  -0.60395
 Alpha  occ. eigenvalues --   -0.59688  -0.56367  -0.53734  -0.52310  -0.50208
 Alpha  occ. eigenvalues --   -0.38954  -0.37769  -0.36529  -0.31908  -0.31449
 Alpha  occ. eigenvalues --   -0.27569  -0.26233  -0.04967
 Alpha virt. eigenvalues --    0.02910   0.05162   0.05550   0.06426   0.06475
 Alpha virt. eigenvalues --    0.07178   0.07265   0.07727   0.08478   0.09972
 Alpha virt. eigenvalues --    0.10447   0.11203   0.11950   0.12462   0.12961

 Mulliken charges:
               1
     1  C   -0.300192
     2  C   -4.212646
     3  C    4.533107
     4  C   -2.084829
     5  C    2.304574
     6  C   -2.515375
     7  H    1.951267
     8  P    0.605590
     9  H    1.851974
    10  N    3.362878
    11  O   -2.857746
    12  O   -2.818369
    13  Cl  -0.679135
    14  H    2.207401
    15  H   -0.461842
    16  H   -0.886657
 Sum of Mulliken charges =   0.00000

 Dipole moment (field-independent basis, Debye):
    X=              4.1607    Y=             -3.2619    Z=             -1.4474  Tot=              5.4814

 Test job not archived.
 1\1\GINC-SE126\SP\RHF\Aug-CC-pVDZ\C6H5Cl1N1O2P1\OHZDE\08-Apr-2025\0\\#
 t hf aug-cc-pvdz iop(5/13=1,5/36=2,99/5=2) pseudo=read geom=check gues
 s=(read,tcheck) scf=(maxcycle=1)\\title\\0,1\C,0,0.103251,-1.889785,-0
 .035418\C,0,1.447302,-1.537621,-0.019331\C,0,1.846965,-0.19559,0.01047
 2\C,0,-0.887261,-0.909592,-0.020277\C,0,-0.493704,0.432849,0.000307\C,
 0,0.853329,0.782904,0.004168\H,0,2.194125,-2.32359,-0.043387\P,0,3.658
 762,0.186848,0.004962\H,0,-0.193034,-2.929818,-0.0752\N,0,-1.461434,1.
 553258,0.03573\O,0,-1.15485,2.561165,-0.586641\O,0,-2.472302,1.411695,

 Normal termination of Gaussian 16 at Tue Apr  8 23:35:53 2025.
