 Gaussian 16, Revision C.01,

 ----------------------------------------------------------------------
 #t hf aug-cc-pvdz symm=none int=(grid=ultrafine) guess=(read,tcheck) s
 table=(opt,rrhf)
 ----------------------------------------------------------------------
 -----
 title
 -----
 Symbolic Z-matrix:
 Charge =  0 Multiplicity = 1

 SCF Done:  E(RHF) =  -1416.94933101     A.U. after   11 cycles

 1\1\GINC-SE212\Stability\RHF\Aug-CC-pVDZ\C1H1Cl3\OHZDE\08-Apr-2025\0\\
 #t hf aug-cc-pvdz symm=none int=(grid=ultrafine) guess=(read,tcheck) s
 table=(opt,rrhf)\\title\\0,1\C,0,-0.000022,0.000013,0.4564\Cl,0,1.0931
 73,1.300806,-0.083871\H,0,0.000005,0.000001,1.538684\Cl,0,0.579974,-1.
 597099,-0.083858\Cl,0,-1.673139,0.296288,-0.083864\\Version=ES64L-G16R
 evC.01\HF=-1416.949331\RMSD=6.314e-09\Dipole=-0.0000413,0.0000213,0.48
 13538\Quadrupole=-0.5899807,-0.590304,1.1802847,-0.0000085,0.0000048,-
 0.0000003\PG=Unknown\\@

 Normal termination of Gaussian 16 at Tue Apr  8 22:38:23 2025.
 Gaussian 16:  ES64L-G16RevC.01  3-Jul-2019

 ----------------------------------------------------------------------
 #t hf aug-cc-pvdz iop(5/13=1,5/36=2,99/5=2) pseudo=read geom=check gue
 ss=(read,tcheck) scf=(maxcycle=1)
 ----------------------------------------------------------------------
 -----
 title
 -----
 Structure from the checkpoint file:  "BDE49_expt_116_mol1.chk"
 Charge =  0 Multiplicity = 1

                         Standard orientation:
 ---------------------------------------------------------------------
 Center     Atomic      Atomic             Coordinates (Angstroms)
 Number     Number       Type             X           Y           Z
 ---------------------------------------------------------------------
      1          6           0        0.000022   -0.000013    0.456400
      2         17           0       -1.086723   -1.306199   -0.083871
      3          1           0       -0.000005   -0.000001    1.538684
      4         17           0       -0.587869    1.594210   -0.083858
      5         17           0        1.674585   -0.288006   -0.083864
 ---------------------------------------------------------------------

 SCF Done:  E(RHF) =  -1417.86347476     A.U. after    2 cycles

 The electronic state is 1-A.
 Alpha  occ. eigenvalues --  -99.92078 -99.92077 -99.92060 -11.54904 -10.49686
 Alpha  occ. eigenvalues --  -10.49284 -10.49284  -9.69275  -9.69275  -9.69079
 Alpha  occ. eigenvalues --   -9.68512  -9.68418  -9.68417  -9.68388  -9.68356
 Alpha  occ. eigenvalues --   -9.68355  -1.45548  -1.30757  -1.30756  -0.99530
 Alpha  occ. eigenvalues --   -0.74177  -0.69898  -0.69897  -0.55994  -0.55993
 Alpha  occ. eigenvalues --   -0.51870  -0.51870  -0.50555  -0.50464
 Alpha virt. eigenvalues --   -0.00675   0.03680   0.06317   0.06317   0.08222
 Alpha virt. eigenvalues --    0.10282   0.10282   0.14158   0.14461   0.14461
 Alpha virt. eigenvalues --    0.15561   0.16251   0.16251   0.18535   0.18535

 Mulliken charges:
               1
     1  C   -3.913436
     2  Cl   0.581570
     3  H    2.168724
     4  Cl   0.581568
     5  Cl   0.581574
 Sum of Mulliken charges =  -0.00000

 Dipole moment (field-independent basis, Debye):
    X=              0.0001    Y=             -0.0001    Z=              1.0359  Tot=              1.0359

 Test job not archived.
 1\1\GINC-SE212\SP\RHF\Aug-CC-pVDZ\C1H1Cl3\OHZDE\08-Apr-2025\0\\#t hf a
 ug-cc-pvdz iop(5/13=1,5/36=2,99/5=2) pseudo=read geom=check guess=(rea
 d,tcheck) scf=(maxcycle=1)\\title\\0,1\C,0,-0.000022,0.000013,0.4564\C
 l,0,1.093173,1.300806,-0.083871\H,0,0.000005,0.000001,1.538684\Cl,0,0.
 579974,-1.597099,-0.083858\Cl,0,-1.673139,0.296288,-0.083864\\Version=
 ES64L-G16RevC.01\State=1-A\HF=-1417.8634748\RMSD=6.112e-02\Dipole=-0.0
 000419,0.0000213,0.4075479\Quadrupole=-0.0417669,-0.0421321,0.083899,-
 0.0000108,0.0000005,-0.0000049\PG=C01 [X(C1H1Cl3)]\\@

 Normal termination of Gaussian 16 at Tue Apr  8 22:38:25 2025.
