 Gaussian 16, Revision C.01,

 ----------------------------------------------------------------------
 #t hf aug-cc-pvdz symm=none int=(grid=ultrafine) guess=(read,tcheck) s
 table=(opt,rrhf)
 ----------------------------------------------------------------------
 -----
 title
 -----
 Symbolic Z-matrix:
 Charge =  0 Multiplicity = 1

 SCF Done:  E(RHF) =  -473.900867033     A.U. after   15 cycles
 Normal termination of Gaussian 16 at Wed Apr  9 00:38:16 2025.
 Gaussian 16:  ES64L-G16RevC.01  3-Jul-2019

 ----------------------------------------------------------------------
 #t hf aug-cc-pvdz iop(5/13=1,5/36=2,99/5=2) pseudo=read geom=check gue
 ss=(read,tcheck) scf=(maxcycle=1)
 ----------------------------------------------------------------------
 -----
 title
 -----
 Structure from the checkpoint file:  "BDE49_nonexpt_565_mol1.chk"
 Charge =  0 Multiplicity = 1

                         Standard orientation:
 ---------------------------------------------------------------------
 Center     Atomic      Atomic             Coordinates (Angstroms)
 Number     Number       Type             X           Y           Z
 ---------------------------------------------------------------------
      1          7           0        0.098905    0.438685    0.000096
      2          5           0       -1.250554   -0.166033    0.000039
      3          7           0        1.250602   -0.323694    0.000159
      4          8           0       -1.487876   -1.492817    0.000071
      5          8           0       -2.271235    0.739173   -0.000044
      6          8           0        2.315415    0.267268   -0.000169
      7          8           0        1.135568   -1.555492   -0.000176
      8          6           0        0.323087    1.885940    0.000057
      9          1           0        0.882538    2.188837   -0.886193
     10          1           0        0.882459    2.188892    0.886337
     11          1           0       -0.656781    2.354151   -0.000003
     12          1           0       -0.649610   -1.984375    0.000145
     13          1           0       -3.125880    0.297025   -0.000073
 ---------------------------------------------------------------------

 SCF Done:  E(RHF) =  -475.905162492     A.U. after    2 cycles

 The electronic state is 1-A.
 Alpha  occ. eigenvalues --  -21.10873 -21.09604 -21.07772 -21.06018 -16.03705
 Alpha  occ. eigenvalues --  -15.78950 -11.42797  -7.70011  -2.03027  -1.84871
 Alpha  occ. eigenvalues --   -1.71417  -1.68004  -1.46365  -1.07882  -0.94232
 Alpha  occ. eigenvalues --   -0.79214  -0.73489  -0.71156  -0.69243  -0.64579
 Alpha  occ. eigenvalues --   -0.60441  -0.59891  -0.56776  -0.52102  -0.47383
 Alpha  occ. eigenvalues --   -0.42321  -0.38478  -0.38035  -0.36973  -0.33406
 Alpha  occ. eigenvalues --   -0.32431
 Alpha virt. eigenvalues --    0.03191   0.04216   0.04871   0.05487   0.07116
 Alpha virt. eigenvalues --    0.07439   0.07885   0.08600   0.09567   0.11887
 Alpha virt. eigenvalues --    0.13981   0.14177   0.15593   0.16359   0.16673

 Mulliken charges:
               1
     1  N   -2.727085
     2  B    6.239574
     3  N    7.500541
     4  O   -4.240894
     5  O   -4.204090
     6  O   -3.106448
     7  O   -3.165144
     8  C   -3.281908
     9  H    1.431140
    10  H    1.431173
    11  H    1.413376
    12  H    1.715398
    13  H    0.994366
 Sum of Mulliken charges =  -0.00000

 Dipole moment (field-independent basis, Debye):
    X=             -1.1689    Y=              1.4334    Z=             -0.0002  Tot=              1.8496

 Test job not archived.
 1\1\GINC-SE249\SP\RHF\Aug-CC-pVDZ\C1H5B1N2O4\OHZDE\09-Apr-2025\0\\#t h
 f aug-cc-pvdz iop(5/13=1,5/36=2,99/5=2) pseudo=read geom=check guess=(
 read,tcheck) scf=(maxcycle=1)\\title\\0,1\N,0,-0.098905,0.438685,-0.00
 0096\B,0,1.250554,-0.166033,-0.000039\N,0,-1.250602,-0.323694,-0.00015
 9\O,0,1.487876,-1.492817,-0.000071\O,0,2.271235,0.739173,0.000044\O,0,
 -2.315415,0.267268,0.000169\O,0,-1.135568,-1.555492,0.000176\C,0,-0.32
 3087,1.88594,-0.000057\H,0,-0.882538,2.188837,0.886193\H,0,-0.882459,2
 .188892,-0.886337\H,0,0.656781,2.354151,0.000003\H,0,0.64961,-1.984375

 Normal termination of Gaussian 16 at Wed Apr  9 00:38:21 2025.
