 Gaussian 16, Revision C.01,

 ----------------------------------------------------------------------
 #t hf aug-cc-pvdz symm=none int=(grid=ultrafine) guess=(read,tcheck) s
 table=opt
 ----------------------------------------------------------------------
 -----
 title
 -----
 Symbolic Z-matrix:
 Charge =  0 Multiplicity = 2

 SCF Done:  E(UHF) =  -380.883888217     A.U. after   17 cycles
 Normal termination of Gaussian 16 at Tue Apr  8 23:54:16 2025.
 Gaussian 16:  ES64L-G16RevC.01  3-Jul-2019

 ----------------------------------------------------------------------
 #t hf aug-cc-pvdz iop(5/13=1,5/36=2,99/5=2) pseudo=read geom=check gue
 ss=(read,tcheck) scf=(maxcycle=1)
 ----------------------------------------------------------------------
 -----
 title
 -----
 Structure from the checkpoint file:  "BDE49_nonexpt_1950_mol2.chk"
 Charge =  0 Multiplicity = 2

                         Standard orientation:
 ---------------------------------------------------------------------
 Center     Atomic      Atomic             Coordinates (Angstroms)
 Number     Number       Type             X           Y           Z
 ---------------------------------------------------------------------
      1          6           0       -1.184562   -0.000000    0.070522
      2         15           0        0.580506   -0.000001   -0.122784
      3          1           0        0.938014   -1.056756    0.754107
      4          1           0        0.938010    1.056769    0.754090
      5          1           0       -1.738118   -0.924252   -0.044787
      6          1           0       -1.738117    0.924253   -0.044780
 ---------------------------------------------------------------------

 SCF Done:  E(UHF) =  -381.260401544     A.U. after    2 cycles

 The electronic state is 2-A.
 Alpha  occ. eigenvalues -- -105.17661 -11.38264  -2.75321  -1.48883  -1.44217
 Alpha  occ. eigenvalues --   -1.41921  -0.99002  -0.70832  -0.58971  -0.38247
 Alpha  occ. eigenvalues --   -0.26387  -0.25263  -0.01539
 Alpha virt. eigenvalues --    0.04195   0.05898   0.06214   0.08975   0.09956
 Alpha virt. eigenvalues --    0.10818   0.12760   0.15024   0.16792   0.18114
 Alpha virt. eigenvalues --    0.18743   0.21066   0.22945   0.26566   0.29407

  Beta  occ. eigenvalues -- -105.17692 -11.36092  -2.75427  -1.48802  -1.44746
  Beta  occ. eigenvalues --   -1.41526  -0.91795  -0.69286  -0.57598  -0.24813
  Beta  occ. eigenvalues --   -0.21047  -0.04723
  Beta virt. eigenvalues --    0.04124   0.05962   0.06244   0.08454   0.09008
  Beta virt. eigenvalues --    0.10134   0.10855   0.13174   0.16584   0.18410
  Beta virt. eigenvalues --    0.18813   0.20084   0.21920   0.23305   0.26626

 Mulliken charges and spin densities:
               1          2
     1  C   -4.425546   1.064445
     2  P    2.805175  -0.074444
     3  H   -0.343042   0.069467
     4  H   -0.343052   0.069464
     5  H    1.153232  -0.064465
     6  H    1.153234  -0.064467
 Sum of Mulliken charges =  -0.00000   1.00000

 Dipole moment (field-independent basis, Debye):
    X=              1.8122    Y=             -0.0000    Z=             -2.6028  Tot=              3.1715
                          Isotropic Fermi Contact Couplings
        Atom                 a.u.       MegaHertz       Gauss      10(-4) cm-1
     1  C(13)              0.11230     126.24527      45.04745      42.11089
     2  P(31)             -0.00688     -12.46504      -4.44784      -4.15789
     3  H(1)               0.01266      56.60299      20.19736      18.88073
     4  H(1)               0.01266      56.60015      20.19634      18.87978
     5  H(1)              -0.01632     -72.96930     -26.03726     -24.33994
     6  H(1)              -0.01632     -72.96950     -26.03733     -24.34000
 --------------------------------------------------------
       Center         ----  Spin Dipole Couplings  ----

 Normal termination of Gaussian 16 at Tue Apr  8 23:54:18 2025.
