 Gaussian 16, Revision C.01,

 ----------------------------------------------------------------------
 #t hf aug-cc-pvdz symm=none int=(grid=ultrafine) guess=(read,tcheck) s
 table=(opt,rrhf)
 ----------------------------------------------------------------------
 -----
 title
 -----
 Symbolic Z-matrix:
 Charge =  0 Multiplicity = 1

 SCF Done:  E(RHF) =  -510.413565053     A.U. after   14 cycles
 Normal termination of Gaussian 16 at Tue Apr  8 22:41:27 2025.
 Gaussian 16:  ES64L-G16RevC.01  3-Jul-2019

 ----------------------------------------------------------------------
 #t hf aug-cc-pvdz iop(5/13=1,5/36=2,99/5=2) pseudo=read geom=check gue
 ss=(read,tcheck) scf=(maxcycle=1)
 ----------------------------------------------------------------------
 -----
 title
 -----
 Structure from the checkpoint file:  "BDE49_expt_1326_mol1.chk"
 Charge =  0 Multiplicity = 1

                         Standard orientation:
 ---------------------------------------------------------------------
 Center     Atomic      Atomic             Coordinates (Angstroms)
 Number     Number       Type             X           Y           Z
 ---------------------------------------------------------------------
      1          6           0       -0.326926    0.196200    0.000000
      2          8           0        1.058274    0.337246    0.000000
      3          9           0       -0.764467    1.449517    0.000000
      4          9           0       -0.764467   -0.442032    1.078624
      5          9           0       -0.764467   -0.442032   -1.078624
      6          9           0        1.570663   -0.996028    0.000000
 ---------------------------------------------------------------------

 SCF Done:  E(RHF) =  -512.206001981     A.U. after    2 cycles

 The electronic state is 1-A'.
 Alpha  occ. eigenvalues --  -29.35725 -29.35158 -29.35030 -29.34987 -21.21301
 Alpha  occ. eigenvalues --  -11.64416  -1.93187  -1.37951  -0.98845  -0.96364
 Alpha  occ. eigenvalues --   -0.82378  -0.66465  -0.55632  -0.51465  -0.47657
 Alpha  occ. eigenvalues --   -0.47443  -0.45022  -0.38621  -0.37971  -0.36182
 Alpha  occ. eigenvalues --   -0.31137  -0.29042  -0.27860  -0.26606  -0.24682
 Alpha virt. eigenvalues --    0.10283   0.11515   0.11604   0.15118   0.16441
 Alpha virt. eigenvalues --    0.20268   0.20897   0.21056   0.21631   0.22431
 Alpha virt. eigenvalues --    0.24886   0.29151   0.30189   0.31099   0.32541

 Mulliken charges:
               1
     1  C   -0.617929
     2  O   -1.505430
     3  F    0.690468
     4  F    0.716165
     5  F    0.716165
     6  F    0.000561
 Sum of Mulliken charges =  -0.00000

 Dipole moment (field-independent basis, Debye):
    X=             -1.5918    Y=             -1.1880    Z=             -0.0000  Tot=              1.9863

 Test job not archived.
 1\1\GINC-SE059\SP\RHF\Aug-CC-pVDZ\C1F4O1\OHZDE\08-Apr-2025\0\\#t hf au
 g-cc-pvdz iop(5/13=1,5/36=2,99/5=2) pseudo=read geom=check guess=(read
 ,tcheck) scf=(maxcycle=1)\\title\\0,1\C,0,-0.326926,0.1962,0.\O,0,1.05
 8274,0.337246,0.\F,0,-0.764467,1.449517,0.\F,0,-0.764467,-0.442032,1.0
 78624\F,0,-0.764467,-0.442032,-1.078624\F,0,1.570663,-0.996028,0.\\Ver
 sion=ES64L-G16RevC.01\State=1-A'\HF=-512.206002\RMSD=3.153e-02\Dipole=
 -0.6262637,-0.4674046,0.\Quadrupole=-0.5903398,0.6431668,-0.052827,-1.
 3860287,0.,0.\PG=CS [SG(C1F2O1),X(F2)]\\@

 Normal termination of Gaussian 16 at Tue Apr  8 22:41:29 2025.
