 Gaussian 16, Revision C.01,

 ----------------------------------------------------------------------
 #t hf aug-cc-pvdz symm=none int=(grid=ultrafine) guess=(read,tcheck) s
 table=(opt,rrhf)
 ----------------------------------------------------------------------
 -----
 title
 -----
 Symbolic Z-matrix:
 Charge =  0 Multiplicity = 1

 SCF Done:  E(RHF) =  -779.067648821     A.U. after   12 cycles
 Normal termination of Gaussian 16 at Tue Apr  8 23:44:12 2025.
 Gaussian 16:  ES64L-G16RevC.01  3-Jul-2019

 ----------------------------------------------------------------------
 #t hf aug-cc-pvdz iop(5/13=1,5/36=2,99/5=2) pseudo=read geom=check gue
 ss=(read,tcheck) scf=(maxcycle=1)
 ----------------------------------------------------------------------
 -----
 title
 -----
 Structure from the checkpoint file:  "BDE49_nonexpt_1711_mol1.chk"
 Charge =  0 Multiplicity = 1

                         Standard orientation:
 ---------------------------------------------------------------------
 Center     Atomic      Atomic             Coordinates (Angstroms)
 Number     Number       Type             X           Y           Z
 ---------------------------------------------------------------------
      1         15           0        0.508255   -0.714266   -0.086533
      2          6           0        1.695650    0.715094   -0.020177
      3          1           0        1.464351    1.433686    0.766705
      4          1           0        1.689140    1.226135   -0.984465
      5          1           0        2.698669    0.310367    0.148443
      6         16           0       -1.397404    0.293994    0.079705
      7          1           0       -1.885249   -0.192802   -1.073016
      8          1           0        0.593831   -1.057870    1.286122
 ---------------------------------------------------------------------

 SCF Done:  E(RHF) =  -779.703991417     A.U. after    2 cycles

 The electronic state is 1-A.
 Alpha  occ. eigenvalues -- -105.19971 -75.69145 -13.13120 -13.06469 -13.01943
 Alpha  occ. eigenvalues --  -11.37815  -8.03025  -2.77425  -1.48620  -1.45912
 Alpha  occ. eigenvalues --   -1.44545  -1.07468  -0.99858  -0.67500  -0.57187
 Alpha  occ. eigenvalues --   -0.56993  -0.48307  -0.27669  -0.23788  -0.19003
 Alpha  occ. eigenvalues --   -0.02827
 Alpha virt. eigenvalues --    0.04197   0.04969   0.05952   0.06430   0.07280
 Alpha virt. eigenvalues --    0.09838   0.10724   0.12026   0.13178   0.14797
 Alpha virt. eigenvalues --    0.15236   0.15675   0.17289   0.17852   0.18863

 Mulliken charges:
               1
     1  P    3.909129
     2  C   -5.232935
     3  H    1.134024
     4  H    1.086372
     5  H    1.231313
     6  S   -2.595857
     7  H    0.887773
     8  H   -0.419820
 Sum of Mulliken charges =  -0.00000

 Dipole moment (field-independent basis, Debye):
    X=              2.3715    Y=             -1.8567    Z=              0.2934  Tot=              3.0261

 Test job not archived.
 1\1\GINC-SE419\SP\RHF\Aug-CC-pVDZ\C1H5P1S1\OHZDE\08-Apr-2025\0\\#t hf
 aug-cc-pvdz iop(5/13=1,5/36=2,99/5=2) pseudo=read geom=check guess=(re
 ad,tcheck) scf=(maxcycle=1)\\title\\0,1\P,0,0.508255,-0.714266,-0.0865
 33\C,0,1.69565,0.715094,-0.020177\H,0,1.464351,1.433686,0.766705\H,0,1
 .68914,1.226135,-0.984465\H,0,2.698669,0.310367,0.148443\S,0,-1.397404
 ,0.293994,0.079705\H,0,-1.885249,-0.192802,-1.073016\H,0,0.593831,-1.0
 5787,1.286122\\Version=ES64L-G16RevC.01\State=1-A\HF=-779.7039914\RMSD
 =2.547e-01\Dipole=0.9330122,-0.7304731,0.1154455\Quadrupole=-2.392152,

 Normal termination of Gaussian 16 at Tue Apr  8 23:44:14 2025.
