 Gaussian 16, Revision C.01,

 ----------------------------------------------------------------------
 #t hf aug-cc-pvdz symm=none int=(grid=ultrafine) guess=(read,tcheck) s
 table=opt
 ----------------------------------------------------------------------
 -----
 title
 -----
 Symbolic Z-matrix:
 Charge =  0 Multiplicity = 2

 SCF Done:  E(UHF) =  -458.455416128     A.U. after   18 cycles
 Normal termination of Gaussian 16 at Wed Apr  9 00:11:36 2025.
 Gaussian 16:  ES64L-G16RevC.01  3-Jul-2019

 ----------------------------------------------------------------------
 #t hf aug-cc-pvdz iop(5/13=1,5/36=2,99/5=2) pseudo=read geom=check gue
 ss=(read,tcheck) scf=(maxcycle=1)
 ----------------------------------------------------------------------
 -----
 title
 -----
 Structure from the checkpoint file:  "BDE49_nonexpt_2387_mol2.chk"
 Charge =  0 Multiplicity = 2

                         Standard orientation:
 ---------------------------------------------------------------------
 Center     Atomic      Atomic             Coordinates (Angstroms)
 Number     Number       Type             X           Y           Z
 ---------------------------------------------------------------------
      1         14           0       -1.361303   -0.266922   -0.090754
      2          7           0        0.022757    0.822570    0.039486
      3          1           0       -1.295072   -1.312230    0.957524
      4          1           0       -2.530626    0.627693    0.110510
      5          6           0        1.316614    0.361703    0.028637
      6          8           0        1.605176   -0.811846   -0.051036
      7          1           0        2.077578    1.160339    0.105104
      8          1           0       -0.094030    1.827661    0.057480
 ---------------------------------------------------------------------

 SCF Done:  E(UHF) =  -459.315769763     A.U. after    2 cycles

 The electronic state is 2-A.
 Alpha  occ. eigenvalues --  -76.25363 -21.04515 -15.76684 -11.49049  -5.58786
 Alpha  occ. eigenvalues --   -2.23236  -2.20662  -2.19484  -1.71396  -1.34428
 Alpha  occ. eigenvalues --   -0.88014  -0.75982  -0.71831  -0.55750  -0.53522
 Alpha  occ. eigenvalues --   -0.50158  -0.48442  -0.36329  -0.31146  -0.27646
 Alpha virt. eigenvalues --    0.03199   0.04890   0.05442   0.06594   0.07939
 Alpha virt. eigenvalues --    0.08164   0.09705   0.11356   0.12086   0.13112
 Alpha virt. eigenvalues --    0.14742   0.16018   0.16662   0.17407   0.17998

  Beta  occ. eigenvalues --  -76.24806 -21.04457 -15.76498 -11.49059  -5.57888
  Beta  occ. eigenvalues --   -2.22553  -2.20042  -2.16094  -1.71270  -1.33862
  Beta  occ. eigenvalues --   -0.87130  -0.74440  -0.69876  -0.54613  -0.52928
  Beta  occ. eigenvalues --   -0.49750  -0.47233  -0.34745  -0.30826
  Beta virt. eigenvalues --    0.03147   0.03764   0.05243   0.05540   0.07264
  Beta virt. eigenvalues --    0.08256   0.09138   0.10052   0.11842   0.12401
  Beta virt. eigenvalues --    0.13980   0.15408   0.16337   0.17243   0.18070

 Mulliken charges and spin densities:
               1          2
     1  Si   3.531611   0.946064
     2  N   -2.479195  -0.049811
     3  H   -1.438143   0.037790
     4  H   -1.457416   0.012253
     5  C    2.053584   0.045053
     6  O   -2.534339   0.008915
     7  H    1.583866   0.006305
     8  H    0.740031  -0.006569
 Sum of Mulliken charges =   0.00000   1.00000

 Dipole moment (field-independent basis, Debye):
    X=             -0.4682    Y=              1.8499    Z=             -0.2730  Tot=              1.9277
                          Isotropic Fermi Contact Couplings
        Atom                 a.u.       MegaHertz       Gauss      10(-4) cm-1
     1  Si(29)             0.58229    -517.50099    -184.65722    -172.61975
     2  N(14)              0.02906       9.38990       3.35055       3.13213
     3  H(1)               0.01381      61.74237      22.03121      20.59504
     4  H(1)               0.00878      39.23526      14.00012      13.08748
     5  C(13)             -0.00171      -1.91962      -0.68497      -0.64032
     6  O(17)              0.00325      -1.97013      -0.70299      -0.65716
     7  H(1)               0.00009       0.38191       0.13627       0.12739
     8  H(1)               0.00014       0.60796       0.21693       0.20279

 1\1\GINC-SE344\SP\UHF\Aug-CC-pVDZ\C1H4N1O1Si1(2)\OHZDE\09-Apr-2025\0\\
 #t hf aug-cc-pvdz iop(5/13=1,5/36=2,99/5=2) pseudo=read geom=check gue
 ss=(read,tcheck) scf=(maxcycle=1)\\title\\0,2\Si,0,-1.361303,-0.266922
 ,-0.090754\N,0,0.022757,0.82257,0.039486\H,0,-1.295072,-1.31223,0.9575
 24\H,0,-2.530626,0.627692,0.11051\C,0,1.316614,0.361703,0.028637\O,0,1
 .605176,-0.811846,-0.051036\H,0,2.077578,1.160339,0.105104\H,0,-0.0940
 3,1.827661,0.05748\\Version=ES64L-G16RevC.01\State=2-A\HF=-459.3157698
 \S2=0.754091\S2-1=0.\S2A=0.750008\RMSD=7.756e-02\Dipole=-0.1841972,0.7

 Normal termination of Gaussian 16 at Wed Apr  9 00:11:39 2025.
