 Gaussian 16, Revision C.01,

 ----------------------------------------------------------------------
 #t hf aug-cc-pvdz symm=none int=(grid=ultrafine) guess=(read,tcheck) s
 table=(opt,rrhf)
 ----------------------------------------------------------------------
 -----
 title
 -----
 Symbolic Z-matrix:
 Charge =  0 Multiplicity = 1

 SCF Done:  E(RHF) =  -270.065135213     A.U. after   14 cycles

 1\1\GINC-SE165\Stability\RHF\Aug-CC-pVDZ\C5H10O1\OHZDE\08-Apr-2025\0\\
 #t hf aug-cc-pvdz symm=none int=(grid=ultrafine) guess=(read,tcheck) s
 table=(opt,rrhf)\\title\\0,1\C,0,0.627113,0.230386,0.403169\C,0,-0.753
 187,-0.24844,-0.062549\O,0,-0.877436,-1.180212,-0.825079\C,0,-1.956331
 ,0.510198,0.467487\H,0,-1.800465,1.591696,0.428426\H,0,-2.106119,0.247
 456,1.520746\H,0,-2.847119,0.236735,-0.096814\C,0,1.105605,1.346328,-0
 .550141\H,0,1.226446,0.954053,-1.563438\H,0,2.070921,1.737531,-0.21900
 2\H,0,0.403342,2.183308,-0.591442\C,0,1.629539,-0.925253,0.459482\H,0,

 Normal termination of Gaussian 16 at Tue Apr  8 23:03:07 2025.
 Gaussian 16:  ES64L-G16RevC.01  3-Jul-2019

 ----------------------------------------------------------------------
 #t hf aug-cc-pvdz iop(5/13=1,5/36=2,99/5=2) pseudo=read geom=check gue
 ss=(read,tcheck) scf=(maxcycle=1)
 ----------------------------------------------------------------------
 -----
 title
 -----
 Structure from the checkpoint file:  "BDE49_expt_222_mol1.chk"
 Charge =  0 Multiplicity = 1

                         Standard orientation:
 ---------------------------------------------------------------------
 Center     Atomic      Atomic             Coordinates (Angstroms)
 Number     Number       Type             X           Y           Z
 ---------------------------------------------------------------------
      1          6           0        0.627113    0.230386    0.403169
      2          6           0       -0.753187   -0.248440   -0.062549
      3          8           0       -0.877436   -1.180212   -0.825079
      4          6           0       -1.956331    0.510198    0.467487
      5          1           0       -1.800465    1.591696    0.428426
      6          1           0       -2.106119    0.247456    1.520746
      7          1           0       -2.847119    0.236736   -0.096814
      8          6           0        1.105605    1.346328   -0.550141
      9          1           0        1.226446    0.954053   -1.563438
     10          1           0        2.070921    1.737531   -0.219002
     11          1           0        0.403343    2.183308   -0.591442
     12          6           0        1.629539   -0.925253    0.459482
     13          1           0        0.511799    0.668201    1.402294
     14          1           0        1.704492   -1.409260   -0.515842
     15          1           0        1.320446   -1.684963    1.181925
     16          1           0        2.619305   -0.562378    0.749085
 ---------------------------------------------------------------------

 SCF Done:  E(RHF) =  -271.367670464     A.U. after    2 cycles

 The electronic state is 1-A.
 Alpha  occ. eigenvalues --  -21.04473 -11.49135 -11.42056 -11.39013 -11.38938
 Alpha  occ. eigenvalues --  -11.36180  -1.70330  -1.24083  -1.09084  -1.00663
 Alpha  occ. eigenvalues --   -0.89478  -0.72800  -0.65467  -0.61967  -0.60250
 Alpha  occ. eigenvalues --   -0.57334  -0.55256  -0.54056  -0.51671  -0.47235
 Alpha  occ. eigenvalues --   -0.45970  -0.44974  -0.39776  -0.27491
 Alpha virt. eigenvalues --    0.03481   0.05038   0.05336   0.05536   0.05819
 Alpha virt. eigenvalues --    0.06010   0.06707   0.07274   0.07999   0.09076
 Alpha virt. eigenvalues --    0.11104   0.12728   0.13206   0.13699   0.14656

 Mulliken charges:
               1
     1  C   -2.649793
     2  C    4.955234
     3  O   -3.548426
     4  C   -4.574945
     5  H    1.322911
     6  H    1.221269
     7  H    1.279066
     8  C   -3.922900
     9  H    1.339175
    10  H    1.261008
    11  H    1.338094
    12  C   -3.662415
    13  H    1.837785
    14  H    1.426370
    15  H    1.202280
    16  H    1.175286
 Sum of Mulliken charges =  -0.00000

 Dipole moment (field-independent basis, Debye):
    X=              0.3124    Y=              1.1076    Z=              0.8591  Tot=              1.4361

 Test job not archived.
 1\1\GINC-SE165\SP\RHF\Aug-CC-pVDZ\C5H10O1\OHZDE\08-Apr-2025\0\\#t hf a
 ug-cc-pvdz iop(5/13=1,5/36=2,99/5=2) pseudo=read geom=check guess=(rea
 d,tcheck) scf=(maxcycle=1)\\title\\0,1\C,0,0.627113,0.230386,0.403169\
 C,0,-0.753187,-0.24844,-0.062549\O,0,-0.877436,-1.180212,-0.825079\C,0
 ,-1.956331,0.510198,0.467487\H,0,-1.800465,1.591696,0.428426\H,0,-2.10
 6119,0.247456,1.520746\H,0,-2.847119,0.236735,-0.096814\C,0,1.105605,1
 .346328,-0.550141\H,0,1.226446,0.954053,-1.563438\H,0,2.070921,1.73753
 1,-0.219002\H,0,0.403342,2.183308,-0.591442\C,0,1.629539,-0.925253,0.4

 Normal termination of Gaussian 16 at Tue Apr  8 23:03:12 2025.
