 Gaussian 16, Revision C.01,

 ----------------------------------------------------------------------
 #t hf aug-cc-pvdz symm=none int=(grid=ultrafine) guess=(read,tcheck) s
 table=(opt,rrhf)
 ----------------------------------------------------------------------
 -----
 title
 -----
 Symbolic Z-matrix:
 Charge =  0 Multiplicity = 1

 SCF Done:  E(RHF) =  -1707.18021360     A.U. after   12 cycles
 Normal termination of Gaussian 16 at Tue Apr  8 23:50:20 2025.
 Gaussian 16:  ES64L-G16RevC.01  3-Jul-2019

 ----------------------------------------------------------------------
 #t hf aug-cc-pvdz iop(5/13=1,5/36=2,99/5=2) pseudo=read geom=check gue
 ss=(read,tcheck) scf=(maxcycle=1)
 ----------------------------------------------------------------------
 -----
 title
 -----
 Structure from the checkpoint file:  "BDE49_nonexpt_1851_mol1.chk"
 Charge =  0 Multiplicity = 1

                         Standard orientation:
 ---------------------------------------------------------------------
 Center     Atomic      Atomic             Coordinates (Angstroms)
 Number     Number       Type             X           Y           Z
 ---------------------------------------------------------------------
      1          6           0        0.974849   -0.944230   -0.497167
      2         14           0       -0.407660   -0.070389    0.419837
      3         17           0       -2.174217   -1.026492   -0.083411
      4         17           0       -0.508067    1.903979   -0.156751
      5          1           0       -0.240994   -0.128896    1.875366
      6         17           0        2.577965   -0.313998    0.069449
      7          1           0        0.917160   -0.784149   -1.573273
      8          1           0        0.955395   -2.015450   -0.294695
 ---------------------------------------------------------------------

 SCF Done:  E(RHF) =  -1708.26248014     A.U. after    2 cycles

 The electronic state is 1-A.
 Alpha  occ. eigenvalues --  -99.90472 -99.90268 -99.90066 -76.31440 -11.43628
 Alpha  occ. eigenvalues --  -10.47920 -10.47737 -10.47245  -9.67796  -9.67609
 Alpha  occ. eigenvalues --   -9.67203  -9.67128  -9.67085  -9.66972  -9.66912
 Alpha  occ. eigenvalues --   -9.66473  -9.66367  -5.65133  -2.27919  -2.27350
 Alpha  occ. eigenvalues --   -2.26700  -1.34669  -1.31750  -1.29697  -1.03258
 Alpha  occ. eigenvalues --   -0.79256  -0.66838  -0.63950  -0.60194  -0.59158
 Alpha  occ. eigenvalues --   -0.58916  -0.54859  -0.54525  -0.52614  -0.51437
 Alpha  occ. eigenvalues --   -0.49747  -0.44579
 Alpha virt. eigenvalues --    0.02720   0.05215   0.05277   0.05491   0.06975
 Alpha virt. eigenvalues --    0.07469   0.08783   0.09436   0.10469   0.11841
 Alpha virt. eigenvalues --    0.12405   0.12651   0.13432   0.14889   0.15166

 Mulliken charges:
               1
     1  C   -4.067098
     2  Si   4.777021
     3  Cl  -0.841618
     4  Cl  -0.784614
     5  H   -2.040342
     6  Cl   0.029528
     7  H    1.427736
     8  H    1.499387
 Sum of Mulliken charges =  -0.00000

 Dipole moment (field-independent basis, Debye):
    X=             -0.2560    Y=             -1.3680    Z=             -0.3198  Tot=              1.4280

 Test job not archived.
 1\1\GINC-SE398\SP\RHF\Aug-CC-pVDZ\C1H3Cl3Si1\OHZDE\08-Apr-2025\0\\#t h
 f aug-cc-pvdz iop(5/13=1,5/36=2,99/5=2) pseudo=read geom=check guess=(
 read,tcheck) scf=(maxcycle=1)\\title\\0,1\C,0,0.974849,-0.94423,-0.497
 167\Si,0,-0.40766,-0.070389,0.419837\Cl,0,-2.174217,-1.026492,-0.08341
 1\Cl,0,-0.508067,1.903979,-0.156751\H,0,-0.240994,-0.128896,1.875366\C
 l,0,2.577965,-0.313998,0.069449\H,0,0.91716,-0.784149,-1.573273\H,0,0.
 955395,-2.01545,-0.294695\\Version=ES64L-G16RevC.01\State=1-A\HF=-1708
 .2624801\RMSD=6.391e-02\Dipole=-0.1007245,-0.5381988,-0.125837\Quadrup

 Normal termination of Gaussian 16 at Tue Apr  8 23:50:23 2025.
