 Gaussian 16, Revision C.01,

 ----------------------------------------------------------------------
 #t hf aug-cc-pvdz symm=none int=(grid=ultrafine) guess=(read,tcheck) s
 table=(opt,rrhf)
 ----------------------------------------------------------------------
 -----
 title
 -----
 Symbolic Z-matrix:
 Charge =  0 Multiplicity = 1

 SCF Done:  E(RHF) =  -65.4478017649     A.U. after   11 cycles
 Normal termination of Gaussian 16 at Wed Apr  9 00:28:38 2025.
 Gaussian 16:  ES64L-G16RevC.01  3-Jul-2019

 ----------------------------------------------------------------------
 #t hf aug-cc-pvdz iop(5/13=1,5/36=2,99/5=2) pseudo=read geom=check gue
 ss=(read,tcheck) scf=(maxcycle=1)
 ----------------------------------------------------------------------
 -----
 title
 -----
 Structure from the checkpoint file:  "BDE49_nonexpt_310_mol1.chk"
 Charge =  0 Multiplicity = 1

                         Standard orientation:
 ---------------------------------------------------------------------
 Center     Atomic      Atomic             Coordinates (Angstroms)
 Number     Number       Type             X           Y           Z
 ---------------------------------------------------------------------
      1          6           0        0.682140    0.000005   -0.016388
      2          5           0       -0.872035    0.000002   -0.020890
      3          1           0        1.145809   -0.896006   -0.436242
      4          1           0        0.948246   -0.000098    1.057062
      5          1           0        1.145824    0.896074   -0.436095
      6          1           0       -1.486263   -1.024300    0.009024
      7          1           0       -1.486283    1.024292    0.009026
 ---------------------------------------------------------------------

 SCF Done:  E(RHF) =  -65.7988081957     A.U. after    2 cycles

 The electronic state is 1-A.
 Alpha  occ. eigenvalues --  -11.33210  -7.60193  -1.08754  -0.77396  -0.57291
 Alpha  occ. eigenvalues --   -0.54335  -0.44192  -0.43597
 Alpha virt. eigenvalues --    0.03234   0.03752   0.03791   0.04553   0.07745
 Alpha virt. eigenvalues --    0.08611   0.09816   0.12215   0.12733   0.13629
 Alpha virt. eigenvalues --    0.16263   0.17195   0.17380   0.18692   0.24174

 Mulliken charges:
               1
     1  C   -5.257810
     2  B    7.153381
     3  H    1.235031
     4  H    1.260951
     5  H    1.235014
     6  H   -2.813278
     7  H   -2.813289
 Sum of Mulliken charges =   0.00000

 Dipole moment (field-independent basis, Debye):
    X=              0.6256    Y=             -0.0000    Z=              0.0287  Tot=              0.6262

 Test job not archived.
 1\1\GINC-SE072\SP\RHF\Aug-CC-pVDZ\C1H5B1\OHZDE\09-Apr-2025\0\\#t hf au
 g-cc-pvdz iop(5/13=1,5/36=2,99/5=2) pseudo=read geom=check guess=(read
 ,tcheck) scf=(maxcycle=1)\\title\\0,1\C,0,0.68214,0.000005,-0.016388\B
 ,0,-0.872035,0.000002,-0.02089\H,0,1.145809,-0.896006,-0.436242\H,0,0.
 948246,-0.000098,1.057062\H,0,1.145824,0.896074,-0.436095\H,0,-1.48626
 3,-1.0243,0.009024\H,0,-1.486283,1.024292,0.009026\\Version=ES64L-G16R
 evC.01\State=1-A\HF=-65.7988082\RMSD=1.554e-01\Dipole=0.2461196,-0.000
 0027,0.0112849\Quadrupole=-1.3402196,-0.4658242,1.8060438,-0.0000171,0

 Normal termination of Gaussian 16 at Wed Apr  9 00:28:40 2025.
