 Gaussian 16, Revision C.01,

 ----------------------------------------------------------------------
 #t hf aug-cc-pvdz symm=none int=(grid=ultrafine) guess=(read,tcheck) s
 table=(opt,rrhf)
 ----------------------------------------------------------------------
 -----
 title
 -----
 Symbolic Z-matrix:
 Charge =  0 Multiplicity = 1

 SCF Done:  E(RHF) =  -639.468118984     A.U. after   12 cycles
 Normal termination of Gaussian 16 at Wed Apr  9 00:11:12 2025.
 Gaussian 16:  ES64L-G16RevC.01  3-Jul-2019

 ----------------------------------------------------------------------
 #t hf aug-cc-pvdz iop(5/13=1,5/36=2,99/5=2) pseudo=read geom=check gue
 ss=(read,tcheck) scf=(maxcycle=1)
 ----------------------------------------------------------------------
 -----
 title
 -----
 Structure from the checkpoint file:  "BDE49_nonexpt_2286_mol1.chk"
 Charge =  0 Multiplicity = 1

                         Standard orientation:
 ---------------------------------------------------------------------
 Center     Atomic      Atomic             Coordinates (Angstroms)
 Number     Number       Type             X           Y           Z
 ---------------------------------------------------------------------
      1          8           0        0.250819    0.136118    0.539138
      2         14           0       -1.305718   -0.118600    0.016875
      3          6           0       -1.336396   -1.367470   -1.388850
      4          1           0       -0.902008   -2.323380   -1.082530
      5          1           0       -0.781839   -1.013869   -2.263586
      6          6           0       -2.209694   -0.780753    1.515088
      7          1           0       -3.258170   -0.992357    1.282716
      8          1           0       -2.186014   -0.058050    2.335516
      9          1           0       -1.750251   -1.706664    1.872078
     10          6           0       -2.099682    1.480357   -0.576814
     11          1           0       -1.583738    1.892249   -1.449840
     12          1           0       -2.094622    2.243313    0.207098
     13          1           0       -3.141614    1.307386   -0.866400
     14          1           0       -2.365686   -1.556187   -1.711490
     15          6           0        1.383856    0.609840   -0.196522
     16          6           0        2.612728   -0.197327    0.231802
     17          6           0        2.508450   -1.694099   -0.063516
     18          1           0        2.759298   -0.038691    1.306150
     19          1           0        3.490132    0.221888   -0.274162
     20          6           0        1.569463    2.106064    0.051064
     21          1           0        1.218918    0.443722   -1.272478
     22          1           0        1.724751    2.292000    1.117185
     23          1           0        0.689170    2.668033   -0.267793
     24          1           0        2.435615    2.486698   -0.498271
     25          1           0        1.655156   -2.132449    0.457416
     26          1           0        3.409368   -2.221740    0.260660
     27          1           0        2.382690   -1.880113   -1.135135
 ---------------------------------------------------------------------

 SCF Done:  E(RHF) =  -641.394354528     A.U. after    2 cycles

 The electronic state is 1-A.
 Alpha  occ. eigenvalues --  -76.19620 -21.01650 -11.45210 -11.40630 -11.37275
 Alpha  occ. eigenvalues --  -11.34747 -11.34034 -11.33862 -11.33726  -5.53966
 Alpha  occ. eigenvalues --   -2.20965  -2.17326  -2.17082  -1.68533  -1.19688
 Alpha  occ. eigenvalues --   -1.07215  -1.05865  -1.00566  -1.00345  -0.91434
 Alpha  occ. eigenvalues --   -0.81181  -0.68373  -0.60751  -0.59783  -0.58946
 Alpha  occ. eigenvalues --   -0.56805  -0.56017  -0.55800  -0.55525  -0.54206
 Alpha  occ. eigenvalues --   -0.53742  -0.52791  -0.51250  -0.49097  -0.46649
 Alpha  occ. eigenvalues --   -0.45185  -0.44365  -0.40321  -0.39060  -0.33374
 Alpha  occ. eigenvalues --   -0.31655
 Alpha virt. eigenvalues --    0.03457   0.04984   0.05109   0.05381   0.05489
 Alpha virt. eigenvalues --    0.05677   0.05869   0.05969   0.06447   0.07461
 Alpha virt. eigenvalues --    0.07600   0.08003   0.08257   0.08527   0.08715

 Mulliken charges:
               1
     1  O   -5.141277
     2  Si  12.112842
     3  C   -6.341505
     4  H    1.201614
     5  H    1.026539
     6  C   -6.258825
     7  H    1.140539
     8  H    1.074825
     9  H    1.197141
    10  C   -6.315143
    11  H    1.165795
    12  H    1.145300
    13  H    1.100119
    14  H    1.159994
    15  C    0.438170
    16  C   -3.350245
    17  C   -4.260434
    18  H    1.500884
    19  H    1.392951
    20  C   -4.296118
    21  H    2.308068
    22  H    1.371197
    23  H    1.428419
    24  H    1.189655
    25  H    1.594172
    26  H    1.050745
    27  H    1.364582
 Sum of Mulliken charges =  -0.00000

 Dipole moment (field-independent basis, Debye):
    X=              0.1805    Y=              0.0625    Z=             -0.1029  Tot=              0.2170

 Test job not archived.
 1\1\GINC-SE361\SP\RHF\Aug-CC-pVDZ\C7H18O1Si1\OHZDE\09-Apr-2025\0\\#t h
 f aug-cc-pvdz iop(5/13=1,5/36=2,99/5=2) pseudo=read geom=check guess=(
 read,tcheck) scf=(maxcycle=1)\\title\\0,1\O,0,0.250819,0.136118,0.5391
 38\Si,0,-1.305718,-0.1186,0.016875\C,0,-1.336396,-1.36747,-1.38885\H,0
 ,-0.902008,-2.32338,-1.08253\H,0,-0.781839,-1.013869,-2.263586\C,0,-2.
 209694,-0.780753,1.515088\H,0,-3.25817,-0.992356,1.282716\H,0,-2.18601
 4,-0.05805,2.335516\H,0,-1.750251,-1.706664,1.872078\C,0,-2.099682,1.4
 80357,-0.576814\H,0,-1.583738,1.892249,-1.44984\H,0,-2.094622,2.243313

 Normal termination of Gaussian 16 at Wed Apr  9 00:11:27 2025.
