 Gaussian 16, Revision C.01,

 ----------------------------------------------------------------------
 #t hf aug-cc-pvdz symm=none int=(grid=ultrafine) guess=(read,tcheck) s
 table=(opt,rrhf)
 ----------------------------------------------------------------------
 -----
 title
 -----
 Symbolic Z-matrix:
 Charge =  0 Multiplicity = 1

 SCF Done:  E(RHF) =  -846.809044794     A.U. after   12 cycles
 Normal termination of Gaussian 16 at Wed Apr  9 00:54:30 2025.
 Gaussian 16:  ES64L-G16RevC.01  3-Jul-2019

 ----------------------------------------------------------------------
 #t hf aug-cc-pvdz iop(5/13=1,5/36=2,99/5=2) pseudo=read geom=check gue
 ss=(read,tcheck) scf=(maxcycle=1)
 ----------------------------------------------------------------------
 -----
 title
 -----
 Structure from the checkpoint file:  "BDE49_nonexpt_99_mol1.chk"
 Charge =  0 Multiplicity = 1

                         Standard orientation:
 ---------------------------------------------------------------------
 Center     Atomic      Atomic             Coordinates (Angstroms)
 Number     Number       Type             X           Y           Z
 ---------------------------------------------------------------------
      1          5           0       -0.751266    0.800060    0.365337
      2          5           0        0.751267    0.800048   -0.365358
      3         16           0        2.021904   -0.352432    0.142316
      4          1           0        3.028995    0.050486   -0.655283
      5         16           0       -2.021915   -0.352411   -0.142331
      6          1           0       -3.028937    0.050390    0.655415
      7          1           0        1.025520    1.588136   -1.215787
      8          1           0       -1.025406    1.587942    1.215992
 ---------------------------------------------------------------------

 SCF Done:  E(RHF) =  -847.494418804     A.U. after    2 cycles

 The electronic state is 1-A.
 Alpha  occ. eigenvalues --  -75.69771 -75.69757 -13.17047 -13.15518 -13.10127
 Alpha  occ. eigenvalues --  -13.09643 -13.04385 -13.02910  -8.03707  -8.03678
 Alpha  occ. eigenvalues --   -7.62343  -7.61577  -1.18311  -1.14759  -0.84535
 Alpha  occ. eigenvalues --   -0.66647  -0.55843  -0.53516  -0.39156  -0.35826
 Alpha  occ. eigenvalues --   -0.35740  -0.30049  -0.30033
 Alpha virt. eigenvalues --    0.01078   0.02152   0.02170   0.03130   0.07923
 Alpha virt. eigenvalues --    0.08530   0.09018   0.09244   0.09917   0.10600
 Alpha virt. eigenvalues --    0.11212   0.11760   0.12556   0.13625   0.13959

 Mulliken charges:
               1
     1  B    3.164154
     2  B    3.164169
     3  S   -2.397990
     4  H    0.843868
     5  S   -2.397945
     6  H    0.843825
     7  H   -1.610043
     8  H   -1.610039
 Sum of Mulliken charges =   0.00000

 Dipole moment (field-independent basis, Debye):
    X=              0.0000    Y=             -2.5774    Z=             -0.0000  Tot=              2.5774

 Test job not archived.
 1\1\GINC-SE120\SP\RHF\Aug-CC-pVDZ\B2H4S2\OHZDE\09-Apr-2025\0\\#t hf au
 g-cc-pvdz iop(5/13=1,5/36=2,99/5=2) pseudo=read geom=check guess=(read
 ,tcheck) scf=(maxcycle=1)\\title\\0,1\B,0,-0.751266,0.80006,0.365337\B
 ,0,0.751267,0.800048,-0.365358\S,0,2.021904,-0.352432,0.142316\H,0,3.0
 28995,0.050486,-0.655283\S,0,-2.021915,-0.352411,-0.142331\H,0,-3.0289
 37,0.05039,0.655415\H,0,1.02552,1.588136,-1.215787\H,0,-1.025406,1.587
 942,1.215992\\Version=ES64L-G16RevC.01\State=1-A\HF=-847.4944188\RMSD=
 1.292e-01\Dipole=0.0000059,-1.0140401,-0.0000122\Quadrupole=2.4295847,

 Normal termination of Gaussian 16 at Wed Apr  9 00:54:33 2025.
