 Gaussian 16, Revision C.01,

 ----------------------------------------------------------------------
 #t hf aug-cc-pvdz symm=none int=(grid=ultrafine) guess=(read,tcheck) s
 table=(opt,rrhf)
 ----------------------------------------------------------------------
 -----
 title
 -----
 Symbolic Z-matrix:
 Charge =  0 Multiplicity = 1

 SCF Done:  E(RHF) =  -218.469634615     A.U. after   12 cycles
 Normal termination of Gaussian 16 at Wed Apr  9 00:27:25 2025.
 Gaussian 16:  ES64L-G16RevC.01  3-Jul-2019

 ----------------------------------------------------------------------
 #t hf aug-cc-pvdz iop(5/13=1,5/36=2,99/5=2) pseudo=read geom=check gue
 ss=(read,tcheck) scf=(maxcycle=1)
 ----------------------------------------------------------------------
 -----
 title
 -----
 Structure from the checkpoint file:  "BDE49_nonexpt_277_mol1.chk"
 Charge =  0 Multiplicity = 1

                         Standard orientation:
 ---------------------------------------------------------------------
 Center     Atomic      Atomic             Coordinates (Angstroms)
 Number     Number       Type             X           Y           Z
 ---------------------------------------------------------------------
      1          6           0       -0.497543   -0.023077   -0.403178
      2          5           0        0.910263   -0.701032   -0.221422
      3          8           0        1.966419    0.033295    0.214727
      4          6           0       -0.561659    1.449799    0.030205
      5          1           0        0.203920    2.049677   -0.467674
      6          1           0       -0.397816    1.548846    1.107796
      7          6           0       -1.611279   -0.862824    0.260997
      8          1           0       -0.682366   -0.068772   -1.490746
      9          1           0       -1.503978   -0.868887    1.350997
     10          1           0       -1.593670   -1.902354   -0.078475
     11          1           0       -2.600689   -0.453204    0.034293
     12          1           0       -1.538393    1.889281   -0.197800
     13          1           0        2.781153   -0.473638    0.276890
     14          1           0        1.072063   -1.865535   -0.474124
 ---------------------------------------------------------------------

 SCF Done:  E(RHF) =  -219.519929982     A.U. after    2 cycles

 The electronic state is 1-A.
 Alpha  occ. eigenvalues --  -21.06188 -11.38495 -11.37437 -11.32492  -7.60998
 Alpha  occ. eigenvalues --   -1.74326  -1.20688  -0.98834  -0.87709  -0.72883
 Alpha  occ. eigenvalues --   -0.63238  -0.60445  -0.57541  -0.53702  -0.51966
 Alpha  occ. eigenvalues --   -0.46192  -0.45434  -0.41451  -0.40555  -0.36306
 Alpha virt. eigenvalues --    0.03306   0.04170   0.04461   0.04741   0.06661
 Alpha virt. eigenvalues --    0.06918   0.07579   0.07693   0.07928   0.09279
 Alpha virt. eigenvalues --    0.10390   0.11112   0.11690   0.13349   0.14511

 Mulliken charges:
               1
     1  C   -3.354056
     2  B    7.468381
     3  O   -3.649368
     4  C   -3.814198
     5  H    1.227496
     6  H    1.237284
     7  C   -3.462451
     8  H    1.582489
     9  H    1.248925
    10  H    1.353787
    11  H    1.220373
    12  H    1.244344
    13  H    1.220614
    14  H   -3.523619
 Sum of Mulliken charges =   0.00000

 Dipole moment (field-independent basis, Debye):
    X=              0.8386    Y=             -0.1486    Z=              0.0017  Tot=              0.8517

 Test job not archived.
 1\1\GINC-SE127\SP\RHF\Aug-CC-pVDZ\C3H9B1O1\OHZDE\09-Apr-2025\0\\#t hf
 aug-cc-pvdz iop(5/13=1,5/36=2,99/5=2) pseudo=read geom=check guess=(re
 ad,tcheck) scf=(maxcycle=1)\\title\\0,1\C,0,-0.497543,-0.023077,-0.403
 178\B,0,0.910263,-0.701032,-0.221422\O,0,1.966419,0.033295,0.214727\C,
 0,-0.561659,1.449799,0.030205\H,0,0.20392,2.049677,-0.467674\H,0,-0.39
 7816,1.548846,1.107796\C,0,-1.611279,-0.862824,0.260997\H,0,-0.682366,
 -0.068772,-1.490746\H,0,-1.503978,-0.868887,1.350997\H,0,-1.59367,-1.9
 02354,-0.078475\H,0,-2.600689,-0.453204,0.034293\H,0,-1.538393,1.88928

 Normal termination of Gaussian 16 at Wed Apr  9 00:27:29 2025.
