 Gaussian 16, Revision C.01,

 ----------------------------------------------------------------------
 #t hf aug-cc-pvdz symm=none int=(grid=ultrafine) guess=(read,tcheck) s
 table=(opt,rrhf)
 ----------------------------------------------------------------------
 -----
 title
 -----
 Symbolic Z-matrix:
 Charge =  0 Multiplicity = 1

 SCF Done:  E(RHF) =  -767.773579462     A.U. after   17 cycles
 Normal termination of Gaussian 16 at Tue Apr  8 22:45:04 2025.
 Gaussian 16:  ES64L-G16RevC.01  3-Jul-2019

 ----------------------------------------------------------------------
 #t hf aug-cc-pvdz iop(5/13=1,5/36=2,99/5=2) pseudo=read geom=check gue
 ss=(read,tcheck) scf=(maxcycle=1)
 ----------------------------------------------------------------------
 -----
 title
 -----
 Structure from the checkpoint file:  "BDE49_expt_1218_mol1.chk"
 Charge =  0 Multiplicity = 1

                         Standard orientation:
 ---------------------------------------------------------------------
 Center     Atomic      Atomic             Coordinates (Angstroms)
 Number     Number       Type             X           Y           Z
 ---------------------------------------------------------------------
      1          6           0       -0.219814    0.003511    0.119387
      2          7           0       -0.622003    1.344513   -0.549728
      3          8           0       -1.807329    1.506318   -0.736085
      4          8           0        0.281039    2.104644   -0.826424
      5          6           0        1.143779    0.016007    0.784527
      6          7           0       -1.350631   -0.252103    1.149202
      7          8           0       -1.267901    0.436105    2.147415
      8          8           0       -2.200633   -1.063474    0.873810
      9          7           0       -0.300091   -1.093058   -0.956082
     10          8           0       -0.533894   -0.748602   -2.093180
     11          8           0       -0.063644   -2.210327   -0.548056
     12          6           0        2.354920   -0.063531   -0.161534
     13          1           0        1.158523   -0.838365    1.466487
     14          1           0        1.183323    0.919061    1.395903
     15          6           0        3.664742    0.021004    0.627502
     16          1           0        2.308804    0.744264   -0.891955
     17          1           0        2.324830   -1.008355   -0.711763
     18          1           0        3.745096    0.970714    1.163559
     19          1           0        4.521507   -0.054592   -0.045193
     20          1           0        3.744140   -0.787451    1.360089
 ---------------------------------------------------------------------

 SCF Done:  E(RHF) =  -771.102000883     A.U. after    2 cycles

 The electronic state is 1-A.
 Alpha  occ. eigenvalues --  -21.15579 -21.15522 -21.15125 -21.14909 -21.14810
 Alpha  occ. eigenvalues --  -21.14619 -16.05929 -16.05844 -16.05685 -11.66124
 Alpha  occ. eigenvalues --  -11.49144 -11.43762 -11.39365  -2.07876  -2.04301
 Alpha  occ. eigenvalues --   -2.04080  -1.75856  -1.75264  -1.75070  -1.38593
 Alpha  occ. eigenvalues --   -1.23343  -1.06524  -1.05397  -1.04245  -0.90419
 Alpha  occ. eigenvalues --   -0.81451  -0.80204  -0.78783  -0.75695  -0.71682
 Alpha  occ. eigenvalues --   -0.68818  -0.67023  -0.65922  -0.65524  -0.65148
 Alpha  occ. eigenvalues --   -0.62811  -0.60115  -0.58803  -0.52691  -0.51153
 Alpha  occ. eigenvalues --   -0.50652  -0.44264  -0.40223  -0.39564  -0.38621
 Alpha  occ. eigenvalues --   -0.36505  -0.36061  -0.35290  -0.34338  -0.33326
 Alpha virt. eigenvalues --    0.03174   0.04802   0.05002   0.05756   0.05872
 Alpha virt. eigenvalues --    0.07010   0.07794   0.08508   0.09961   0.10023
 Alpha virt. eigenvalues --    0.10719   0.11915   0.13044   0.13590   0.14268

 Mulliken charges:
               1
     1  C    3.124730
     2  N    4.734112
     3  O   -3.089633
     4  O   -3.035609
     5  C   -1.669433
     6  N    4.694689
     7  O   -3.100242
     8  O   -3.042927
     9  N    4.865572
    10  O   -2.972901
    11  O   -3.301543
    12  C   -3.137378
    13  H    1.550436
    14  H    1.564908
    15  C   -3.947837
    16  H    1.679176
    17  H    1.495876
    18  H    1.294641
    19  H    1.029416
    20  H    1.263947
 Sum of Mulliken charges =   0.00000

 Dipole moment (field-independent basis, Debye):
    X=              2.3463    Y=             -0.0998    Z=              0.4696  Tot=              2.3949

 Test job not archived.
 1\1\GINC-SE110\SP\RHF\Aug-CC-pVDZ\C4H7N3O6\OHZDE\08-Apr-2025\0\\#t hf
 aug-cc-pvdz iop(5/13=1,5/36=2,99/5=2) pseudo=read geom=check guess=(re
 ad,tcheck) scf=(maxcycle=1)\\title\\0,1\C,0,-0.219814,0.003511,0.11938
 7\N,0,-0.622003,1.344513,-0.549728\O,0,-1.807329,1.506318,-0.736085\O,
 0,0.281039,2.104644,-0.826424\C,0,1.143779,0.016007,0.784527\N,0,-1.35
 0631,-0.252103,1.149202\O,0,-1.267901,0.436105,2.147415\O,0,-2.200633,
 -1.063474,0.87381\N,0,-0.300091,-1.093058,-0.956082\O,0,-0.533894,-0.7
 48602,-2.09318\O,0,-0.063644,-2.210327,-0.548056\C,0,2.35492,-0.063531

 Normal termination of Gaussian 16 at Tue Apr  8 22:45:18 2025.
