 Gaussian 16, Revision C.01,

 ----------------------------------------------------------------------
 #t hf aug-cc-pvdz symm=none int=(grid=ultrafine) guess=(read,tcheck) s
 table=(opt,rrhf)
 ----------------------------------------------------------------------
 -----
 title
 -----
 Symbolic Z-matrix:
 Charge =  0 Multiplicity = 1

 SCF Done:  E(RHF) =  -654.659298303     A.U. after   14 cycles
 Normal termination of Gaussian 16 at Tue Apr  8 23:51:31 2025.
 Gaussian 16:  ES64L-G16RevC.01  3-Jul-2019

 ----------------------------------------------------------------------
 #t hf aug-cc-pvdz iop(5/13=1,5/36=2,99/5=2) pseudo=read geom=check gue
 ss=(read,tcheck) scf=(maxcycle=1)
 ----------------------------------------------------------------------
 -----
 title
 -----
 Structure from the checkpoint file:  "BDE49_nonexpt_1877_mol1.chk"
 Charge =  0 Multiplicity = 1

                         Standard orientation:
 ---------------------------------------------------------------------
 Center     Atomic      Atomic             Coordinates (Angstroms)
 Number     Number       Type             X           Y           Z
 ---------------------------------------------------------------------
      1         14           0        0.086226    1.141950   -0.194252
      2          6           0       -1.544905    0.671915    0.628561
      3          6           0        1.342544   -0.247001    0.217419
      4          8           0        1.293832   -1.016203    1.116142
      5          1           0        0.631073    2.363613    0.439666
      6          1           0       -0.016169    1.334451   -1.650260
      7          9           0        2.418575   -0.257836   -0.640237
      8          6           0       -2.148232   -0.568597    0.013514
      9          8           0       -1.632010   -1.181412   -0.888291
     10          1           0       -3.116772   -0.904754    0.438407
     11          1           0       -2.273274    1.490966    0.573938
     12          1           0       -1.390213    0.491956    1.700135
 ---------------------------------------------------------------------

 SCF Done:  E(RHF) =  -656.288475586     A.U. after    2 cycles

 The electronic state is 1-A.
 Alpha  occ. eigenvalues --  -76.25209 -29.29117 -21.09557 -21.08489 -11.51970
 Alpha  occ. eigenvalues --  -11.50669 -11.40271  -5.58958  -2.23086  -2.22069
 Alpha  occ. eigenvalues --   -2.21248  -1.75928  -1.73249  -1.13890  -1.03910
 Alpha  occ. eigenvalues --   -0.85084  -0.77653  -0.67542  -0.65208  -0.61804
 Alpha  occ. eigenvalues --   -0.57172  -0.55829  -0.53143  -0.48900  -0.45701
 Alpha  occ. eigenvalues --   -0.44709  -0.42158  -0.32212  -0.29105  -0.27902
 Alpha  occ. eigenvalues --   -0.26759
 Alpha virt. eigenvalues --    0.02985   0.04692   0.05035   0.05511   0.06267
 Alpha virt. eigenvalues --    0.07837   0.07908   0.10241   0.10420   0.11275
 Alpha virt. eigenvalues --    0.12159   0.12405   0.13171   0.13473   0.14482

 Mulliken charges:
               1
     1  Si   5.911707
     2  C   -4.211466
     3  C    0.996241
     4  O   -2.560913
     5  H   -1.913048
     6  H   -1.930795
     7  F    0.461308
     8  C    1.658401
     9  O   -2.712644
    10  H    1.454202
    11  H    1.362599
    12  H    1.484408
 Sum of Mulliken charges =   0.00000

 Dipole moment (field-independent basis, Debye):
    X=              0.2417    Y=              1.2500    Z=             -1.4964  Tot=              1.9647

 Test job not archived.
 1\1\GINC-SE096\SP\RHF\Aug-CC-pVDZ\C3H5F1O2Si1\OHZDE\08-Apr-2025\0\\#t
 hf aug-cc-pvdz iop(5/13=1,5/36=2,99/5=2) pseudo=read geom=check guess=
 (read,tcheck) scf=(maxcycle=1)\\title\\0,1\Si,0,0.086226,1.14195,-0.19
 4252\C,0,-1.544905,0.671915,0.628561\C,0,1.342544,-0.247001,0.217419\O
 ,0,1.293832,-1.016203,1.116142\H,0,0.631073,2.363613,0.439666\H,0,-0.0
 16169,1.334451,-1.65026\F,0,2.418575,-0.257836,-0.640237\C,0,-2.148232
 ,-0.568597,0.013514\O,0,-1.63201,-1.181412,-0.888291\H,0,-3.116772,-0.
 904754,0.438407\H,0,-2.273274,1.490966,0.573938\H,0,-1.390213,0.491956

 Normal termination of Gaussian 16 at Tue Apr  8 23:51:37 2025.
