 Gaussian 16, Revision C.01,

 ----------------------------------------------------------------------
 #t hf aug-cc-pvdz symm=none int=(grid=ultrafine) guess=(read,tcheck) s
 table=(opt,rrhf)
 ----------------------------------------------------------------------
 -----
 title
 -----
 Symbolic Z-matrix:
 Charge =  0 Multiplicity = 1

 SCF Done:  E(RHF) =  -139.057305349     A.U. after   10 cycles
 Normal termination of Gaussian 16 at Tue Apr  8 22:37:20 2025.
 Gaussian 16:  ES64L-G16RevC.01  3-Jul-2019

 ----------------------------------------------------------------------
 #t hf aug-cc-pvdz iop(5/13=1,5/36=2,99/5=2) pseudo=read geom=check gue
 ss=(read,tcheck) scf=(maxcycle=1)
 ----------------------------------------------------------------------
 -----
 title
 -----
 Structure from the checkpoint file:  "BDE49_expt_113_mol1.chk"
 Charge =  0 Multiplicity = 1

                         Standard orientation:
 ---------------------------------------------------------------------
 Center     Atomic      Atomic             Coordinates (Angstroms)
 Number     Number       Type             X           Y           Z
 ---------------------------------------------------------------------
      1          6           0       -0.634442    0.000000   -0.000003
      2          1           0       -0.993444   -0.887233   -0.528008
      3          1           0       -0.993444    0.900890   -0.504354
      4          9           0        0.754110   -0.000000    0.000001
      5          1           0       -0.993455   -0.013657    1.032369
 ---------------------------------------------------------------------

 SCF Done:  E(RHF) =  -139.609119797     A.U. after    2 cycles

 The electronic state is 1-A.
 Alpha  occ. eigenvalues --  -29.25087 -11.43093  -1.14308  -0.66244  -0.62382
 Alpha  occ. eigenvalues --   -0.62381  -0.36981  -0.24684  -0.24684
 Alpha virt. eigenvalues --    0.03780   0.06048   0.06048   0.12002   0.14997
 Alpha virt. eigenvalues --    0.14997   0.16669   0.24592   0.26289   0.26289
 Alpha virt. eigenvalues --    0.31072   0.31072   0.34916   0.38953   0.38953

 Mulliken charges:
               1
     1  C   -3.995015
     2  H    1.249468
     3  H    1.249468
     4  F    0.246612
     5  H    1.249467
 Sum of Mulliken charges =  -0.00000

 Dipole moment (field-independent basis, Debye):
    X=              0.7260    Y=             -0.0000    Z=             -0.0000  Tot=              0.7260

 Test job not archived.
 1\1\GINC-SE402\SP\RHF\Aug-CC-pVDZ\C1H3F1\OHZDE\08-Apr-2025\0\\#t hf au
 g-cc-pvdz iop(5/13=1,5/36=2,99/5=2) pseudo=read geom=check guess=(read
 ,tcheck) scf=(maxcycle=1)\\title\\0,1\C,0,0.634442,0.,-0.000003\H,0,0.
 993444,0.890285,-0.522846\H,0,0.993444,-0.897946,-0.509577\F,0,-0.7541
 1,0.,0.000001\H,0,0.993455,0.007661,1.032431\\Version=ES64L-G16RevC.01
 \State=1-A\HF=-139.6091198\RMSD=6.443e-02\Dipole=-0.2856487,0.,-0.0000
 031\Quadrupole=-0.3937958,0.1969182,0.1968776,0.0000003,-0.0000041,-0.
 0000003\PG=C01 [X(C1H3F1)]\\@

 Normal termination of Gaussian 16 at Tue Apr  8 22:37:22 2025.
