 Gaussian 16, Revision C.01,

 ----------------------------------------------------------------------
 #t hf aug-cc-pvdz symm=none int=(grid=ultrafine) guess=(read,tcheck) s
 table=opt
 ----------------------------------------------------------------------
 -----
 title
 -----
 Symbolic Z-matrix:
 Charge =  0 Multiplicity = 2

 SCF Done:  E(UHF) =  -957.411117809     A.U. after   16 cycles

 1\1\GINC-SE049\Stability\UHF\Aug-CC-pVDZ\C1H1Cl2\OHZDE\08-Apr-2025\0\\
 #t hf aug-cc-pvdz symm=none int=(grid=ultrafine) guess=(read,tcheck) s
 table=opt\\title\\0,2\C,0,-0.000046,0.688699,-0.095737\H,0,0.000181,1.
 707156,0.263058\Cl,0,-1.479314,-0.171743,0.009159\Cl,0,1.47932,-0.1717
 48,0.009156\\Version=ES64L-G16RevC.01\HF=-957.4111178\S2=0.767743\S2-1
 =0.\S2A=0.750258\RMSD=9.027e-09\Dipole=-0.0001752,0.464797,0.1031291\Q
 uadrupole=-0.5833713,1.4092312,-0.8258599,0.000403,0.0000773,0.3813696
 \PG=Unknown\\@

 Normal termination of Gaussian 16 at Tue Apr  8 22:31:18 2025.
 Gaussian 16:  ES64L-G16RevC.01  3-Jul-2019

 ----------------------------------------------------------------------
 #t hf aug-cc-pvdz iop(5/13=1,5/36=2,99/5=2) pseudo=read geom=check gue
 ss=(read,tcheck) scf=(maxcycle=1)
 ----------------------------------------------------------------------
 -----
 title
 -----
 Structure from the checkpoint file:  "BDE49_expt_1015_mol2.chk"
 Charge =  0 Multiplicity = 2

                         Standard orientation:
 ---------------------------------------------------------------------
 Center     Atomic      Atomic             Coordinates (Angstroms)
 Number     Number       Type             X           Y           Z
 ---------------------------------------------------------------------
      1          6           0       -0.000046    0.688699   -0.095737
      2          1           0        0.000180    1.707156    0.263058
      3         17           0       -1.479314   -0.171744    0.009159
      4         17           0        1.479320   -0.171748    0.009156
 ---------------------------------------------------------------------

 SCF Done:  E(UHF) =  -958.062810951     A.U. after    2 cycles

 The electronic state is 2-A.
 Alpha  occ. eigenvalues --  -99.91985 -99.91975 -11.48152 -10.49483 -10.49328
 Alpha  occ. eigenvalues --   -9.69131  -9.68940  -9.68496  -9.68451  -9.68363
 Alpha  occ. eigenvalues --   -9.68323  -1.42347  -1.30976  -0.98319  -0.71124
 Alpha  occ. eigenvalues --   -0.66901  -0.64416  -0.54793  -0.52018  -0.51787
 Alpha  occ. eigenvalues --   -0.38346
 Alpha virt. eigenvalues --    0.02216   0.04381   0.07233   0.08849   0.12207
 Alpha virt. eigenvalues --    0.12552   0.13990   0.15329   0.16268   0.17194
 Alpha virt. eigenvalues --    0.17475   0.17980   0.19398   0.22860   0.25015

  Beta  occ. eigenvalues --  -99.91943 -99.91933 -11.45443 -10.49437 -10.49283
  Beta  occ. eigenvalues --   -9.69378  -9.69164  -9.68338  -9.68301  -9.68066
  Beta  occ. eigenvalues --   -9.68036  -1.40387  -1.30603  -0.91650  -0.69731
  Beta  occ. eigenvalues --   -0.65720  -0.57882  -0.52450  -0.51798  -0.51672
  Beta virt. eigenvalues --    0.02560   0.04130   0.05360   0.07518   0.08972
  Beta virt. eigenvalues --    0.12534   0.12923   0.14065   0.15368   0.17235
  Beta virt. eigenvalues --    0.17516   0.18258   0.18479   0.19969   0.23101

 Mulliken charges and spin densities:
               1          2
     1  C   -2.366768   1.181207
     2  H    1.832285  -0.098940
     3  Cl   0.267274  -0.041120
     4  Cl   0.267208  -0.041147
 Sum of Mulliken charges =   0.00000   1.00000

 Dipole moment (field-independent basis, Debye):
    X=             -0.0005    Y=              1.0951    Z=              0.2127  Tot=              1.1155
                          Isotropic Fermi Contact Couplings
        Atom                 a.u.       MegaHertz       Gauss      10(-4) cm-1
     1  C(13)              0.21164     237.92785      84.89857      79.36419
     2  H(1)              -0.01441     -64.41613     -22.98528     -21.48691
     3  Cl(35)             0.04664      20.45060       7.29728       6.82159
     4  Cl(35)             0.04663      20.44597       7.29563       6.82004
 --------------------------------------------------------
       Center         ----  Spin Dipole Couplings  ----
                      3XX-RR        3YY-RR        3ZZ-RR
 --------------------------------------------------------

 Normal termination of Gaussian 16 at Tue Apr  8 22:31:19 2025.
