 Gaussian 16, Revision C.01,

 ----------------------------------------------------------------------
 #t hf aug-cc-pvdz symm=none int=(grid=ultrafine) guess=(read,tcheck) s
 table=(opt,rrhf)
 ----------------------------------------------------------------------
 -----
 title
 -----
 Symbolic Z-matrix:
 Charge =  0 Multiplicity = 1

 SCF Done:  E(RHF) =  -631.819809127     A.U. after   10 cycles

 1\1\GINC-SE461\Stability\RHF\Aug-CC-pVDZ\B2H8Si2\OHZDE\09-Apr-2025\0\\
 #t hf aug-cc-pvdz symm=none int=(grid=ultrafine) guess=(read,tcheck) s
 table=(opt,rrhf)\\title\\0,1\Si,0,-0.939628,-0.753203,0.\Si,0,0.939627
 ,0.753202,0.\B,0,2.428215,-0.563906,0.000001\H,0,0.831796,1.606876,1.2
 08647\H,0,0.831797,1.606875,-1.208648\H,0,2.842391,-1.008826,1.024189\
 H,0,2.84239,-1.008827,-1.024188\B,0,-2.428214,0.563907,0.\H,0,-0.83179
 8,-1.606878,1.208647\H,0,-0.831797,-1.606876,-1.208649\H,0,-2.842382,1
 .008834,1.024188\H,0,-2.842381,1.008836,-1.024188\\Version=ES64L-G16Re

 Normal termination of Gaussian 16 at Wed Apr  9 00:13:36 2025.
 Gaussian 16:  ES64L-G16RevC.01  3-Jul-2019

 ----------------------------------------------------------------------
 #t hf aug-cc-pvdz iop(5/13=1,5/36=2,99/5=2) pseudo=read geom=check gue
 ss=(read,tcheck) scf=(maxcycle=1)
 ----------------------------------------------------------------------
 -----
 title
 -----
 Structure from the checkpoint file:  "BDE49_nonexpt_2452_mol1.chk"
 Charge =  0 Multiplicity = 1

                         Standard orientation:
 ---------------------------------------------------------------------
 Center     Atomic      Atomic             Coordinates (Angstroms)
 Number     Number       Type             X           Y           Z
 ---------------------------------------------------------------------
      1         14           0       -0.939628    0.753203    0.000000
      2         14           0        0.939627   -0.753202    0.000000
      3          5           0        2.428215    0.563906   -0.000001
      4          1           0        0.831796   -1.606876   -1.208647
      5          1           0        0.831797   -1.606875    1.208648
      6          1           0        2.842391    1.008826   -1.024189
      7          1           0        2.842390    1.008827    1.024188
      8          5           0       -2.428214   -0.563907    0.000000
      9          1           0       -0.831798    1.606878   -1.208647
     10          1           0       -0.831797    1.606876    1.208649
     11          1           0       -2.842382   -1.008834   -1.024188
     12          1           0       -2.842381   -1.008836    1.024188
 ---------------------------------------------------------------------

 SCF Done:  E(RHF) =  -632.388882657     A.U. after    2 cycles

 The electronic state is 1-A.
 Alpha  occ. eigenvalues --  -76.20240 -76.20211  -7.62266  -7.62239  -5.53889
 Alpha  occ. eigenvalues --   -5.53877  -2.16988  -2.16724  -2.15938  -2.15865
 Alpha  occ. eigenvalues --   -2.15761  -2.14108  -0.89831  -0.85966  -0.72914
 Alpha  occ. eigenvalues --   -0.67252  -0.51414  -0.49754  -0.46024  -0.45247
 Alpha  occ. eigenvalues --   -0.39787  -0.39533  -0.30216
 Alpha virt. eigenvalues --    0.01207   0.03231   0.03241   0.03941   0.04575
 Alpha virt. eigenvalues --    0.04757   0.05461   0.06183   0.08859   0.08969
 Alpha virt. eigenvalues --    0.09744   0.09868   0.09910   0.10476   0.10678

 Mulliken charges:
               1
     1  Si   4.675517
     2  Si   4.675516
     3  B    2.789105
     4  H   -1.708825
     5  H   -1.708825
     6  H   -2.023488
     7  H   -2.023485
     8  B    2.789061
     9  H   -1.708826
    10  H   -1.708823
    11  H   -2.023463
    12  H   -2.023463
 Sum of Mulliken charges =   0.00000

 Dipole moment (field-independent basis, Debye):
    X=              0.0000    Y=              0.0000    Z=             -0.0000  Tot=              0.0000

 Test job not archived.
 1\1\GINC-SE461\SP\RHF\Aug-CC-pVDZ\B2H8Si2\OHZDE\09-Apr-2025\0\\#t hf a
 ug-cc-pvdz iop(5/13=1,5/36=2,99/5=2) pseudo=read geom=check guess=(rea
 d,tcheck) scf=(maxcycle=1)\\title\\0,1\Si,0,-0.939628,-0.753203,0.\Si,
 0,0.939627,0.753202,0.\B,0,2.428215,-0.563906,0.000001\H,0,0.831796,1.
 606876,1.208647\H,0,0.831797,1.606875,-1.208648\H,0,2.842391,-1.008826
 ,1.024189\H,0,2.84239,-1.008827,-1.024188\B,0,-2.428214,0.563907,0.\H,
 0,-0.831798,-1.606878,1.208647\H,0,-0.831797,-1.606876,-1.208649\H,0,-
 2.842382,1.008834,1.024188\H,0,-2.842381,1.008836,-1.024188\\Version=E

 Normal termination of Gaussian 16 at Wed Apr  9 00:13:39 2025.
