 Gaussian 16, Revision C.01,

 ----------------------------------------------------------------------
 #t hf aug-cc-pvdz symm=none int=(grid=ultrafine) guess=(read,tcheck) s
 table=(opt,rrhf)
 ----------------------------------------------------------------------
 -----
 title
 -----
 Symbolic Z-matrix:
 Charge =  0 Multiplicity = 1

 SCF Done:  E(RHF) =  -522.312293573     A.U. after   12 cycles
 Normal termination of Gaussian 16 at Wed Apr  9 00:05:57 2025.
 Gaussian 16:  ES64L-G16RevC.01  3-Jul-2019

 ----------------------------------------------------------------------
 #t hf aug-cc-pvdz iop(5/13=1,5/36=2,99/5=2) pseudo=read geom=check gue
 ss=(read,tcheck) scf=(maxcycle=1)
 ----------------------------------------------------------------------
 -----
 title
 -----
 Structure from the checkpoint file:  "BDE49_nonexpt_2215_mol1.chk"
 Charge =  0 Multiplicity = 1

                         Standard orientation:
 ---------------------------------------------------------------------
 Center     Atomic      Atomic             Coordinates (Angstroms)
 Number     Number       Type             X           Y           Z
 ---------------------------------------------------------------------
      1          6           0        3.238024   -0.560883   -0.084641
      2          6           0        1.772269   -0.450880    0.347622
      3          1           0        3.741847   -1.388885    0.422461
      4          1           0        3.788244    0.356707    0.146403
      5          1           0        3.318037   -0.731864   -1.162647
      6          6           0        1.021218    0.703027   -0.343006
      7          1           0        1.724768   -0.317549    1.434747
      8          1           0        1.256552   -1.392617    0.134791
      9         14           0       -0.777341    0.871538    0.142360
     10          1           0        1.069159    0.583079   -1.432574
     11          1           0        1.514917    1.659708   -0.123628
     12          8           0       -1.530171   -0.544505   -0.257617
     13          6           0       -2.895167   -0.846137   -0.009574
     14          1           0       -3.129429   -0.796317    1.060862
     15          1           0       -3.086588   -1.861908   -0.360139
     16          1           0       -3.561481   -0.160402   -0.546986
     17          1           0       -1.412780    2.012310   -0.571431
     18          1           0       -0.917171    1.121491    1.603622
 ---------------------------------------------------------------------

 SCF Done:  E(RHF) =  -523.611650481     A.U. after    2 cycles

 The electronic state is 1-A.
 Alpha  occ. eigenvalues --  -76.21585 -21.03584 -11.40763 -11.40507 -11.36881
 Alpha  occ. eigenvalues --  -11.33806  -5.55523  -2.22533  -2.19019  -2.17159
 Alpha  occ. eigenvalues --   -1.68861  -1.20028  -1.00071  -0.97086  -0.84285
 Alpha  occ. eigenvalues --   -0.71644  -0.63166  -0.60582  -0.60312  -0.56871
 Alpha  occ. eigenvalues --   -0.54285  -0.52892  -0.50864  -0.47759  -0.45992
 Alpha  occ. eigenvalues --   -0.44906  -0.38405  -0.35556  -0.34095
 Alpha virt. eigenvalues --    0.03941   0.04606   0.05383   0.05827   0.06021
 Alpha virt. eigenvalues --    0.06314   0.06488   0.06689   0.07483   0.08041
 Alpha virt. eigenvalues --    0.08261   0.09652   0.10064   0.10297   0.11673

 Mulliken charges:
               1
     1  C   -3.858186
     2  C   -2.747359
     3  H    1.142701
     4  H    1.272182
     5  H    1.245353
     6  C   -3.846856
     7  H    1.478376
     8  H    1.539661
     9  Si   6.413550
    10  H    1.626759
    11  H    1.455866
    12  O   -3.371996
    13  C   -2.542033
    14  H    1.396783
    15  H    1.366427
    16  H    1.394380
    17  H   -2.042826
    18  H   -1.922781
 Sum of Mulliken charges =   0.00000

 Dipole moment (field-independent basis, Debye):
    X=              0.0938    Y=             -0.7979    Z=             -0.2404  Tot=              0.8386

 Test job not archived.
 1\1\GINC-SE365\SP\RHF\Aug-CC-pVDZ\C4H12O1Si1\OHZDE\09-Apr-2025\0\\#t h
 f aug-cc-pvdz iop(5/13=1,5/36=2,99/5=2) pseudo=read geom=check guess=(
 read,tcheck) scf=(maxcycle=1)\\title\\0,1\C,0,3.238024,-0.560883,-0.08
 4641\C,0,1.772269,-0.45088,0.347622\H,0,3.741847,-1.388885,0.422461\H,
 0,3.788244,0.356707,0.146403\H,0,3.318037,-0.731864,-1.162647\C,0,1.02
 1218,0.703027,-0.343006\H,0,1.724768,-0.317549,1.434747\H,0,1.256552,-
 1.392617,0.134791\Si,0,-0.777341,0.871538,0.14236\H,0,1.069159,0.58307
 9,-1.432574\H,0,1.514917,1.659708,-0.123628\O,0,-1.530171,-0.544505,-0

 Normal termination of Gaussian 16 at Wed Apr  9 00:06:02 2025.
