 Gaussian 16, Revision C.01,

 ----------------------------------------------------------------------
 #t hf aug-cc-pvdz symm=none int=(grid=ultrafine) guess=(read,tcheck) s
 table=(opt,rrhf)
 ----------------------------------------------------------------------
 -----
 title
 -----
 Symbolic Z-matrix:
 Charge =  0 Multiplicity = 1

 SCF Done:  E(RHF) =  -469.866772035     A.U. after   14 cycles
 Normal termination of Gaussian 16 at Wed Apr  9 00:34:31 2025.
 Gaussian 16:  ES64L-G16RevC.01  3-Jul-2019

 ----------------------------------------------------------------------
 #t hf aug-cc-pvdz iop(5/13=1,5/36=2,99/5=2) pseudo=read geom=check gue
 ss=(read,tcheck) scf=(maxcycle=1)
 ----------------------------------------------------------------------
 -----
 title
 -----
 Structure from the checkpoint file:  "BDE49_nonexpt_429_mol1.chk"
 Charge =  0 Multiplicity = 1

                         Standard orientation:
 ---------------------------------------------------------------------
 Center     Atomic      Atomic             Coordinates (Angstroms)
 Number     Number       Type             X           Y           Z
 ---------------------------------------------------------------------
      1          9           0       -2.429019   -1.127021    0.000000
      2          5           0       -1.715812   -0.016997   -0.000002
      3          9           0       -2.391206    1.131170   -0.000010
      4          6           0       -0.157827   -0.008205    0.000000
      5          6           0        0.548772    1.200980   -0.000002
      6          7           0        0.466878   -1.206670    0.000004
      7          6           0        1.796906   -1.215531    0.000006
      8          6           0        1.940592    1.176781    0.000001
      9          6           0        2.578940   -0.057025    0.000005
     10          1           0        0.007238    2.139459   -0.000005
     11          1           0        2.511916    2.098114    0.000000
     12          1           0        3.660219   -0.130977    0.000007
     13          1           0        2.269278   -2.194261    0.000010
 ---------------------------------------------------------------------

 SCF Done:  E(RHF) =  -471.790490136     A.U. after    2 cycles

 The electronic state is 1-A.
 Alpha  occ. eigenvalues --  -29.25594 -29.24911 -15.75478 -11.50354 -11.45914
 Alpha  occ. eigenvalues --  -11.44585 -11.42661 -11.39014  -7.71230  -1.46499
 Alpha  occ. eigenvalues --   -1.20346  -1.19257  -1.07603  -0.90818  -0.88994
 Alpha  occ. eigenvalues --   -0.74261  -0.73987  -0.66974  -0.61410  -0.60565
 Alpha  occ. eigenvalues --   -0.56891  -0.56729  -0.50114  -0.49010  -0.45438
 Alpha  occ. eigenvalues --   -0.43813  -0.38051  -0.37580  -0.35124  -0.33616
 Alpha  occ. eigenvalues --   -0.32241  -0.26083
 Alpha virt. eigenvalues --    0.02723   0.04935   0.04959   0.05157   0.05375
 Alpha virt. eigenvalues --    0.05793   0.08288   0.08644   0.09040   0.09838
 Alpha virt. eigenvalues --    0.10203   0.12377   0.12984   0.13402   0.13841

 Mulliken charges:
               1
     1  F   -0.329173
     2  B    0.949257
     3  F   -0.900075
     4  C   -2.626584
     5  C    0.252621
     6  N   -2.372943
     7  C   -0.569925
     8  C    0.025544
     9  C   -0.961144
    10  H    1.918001
    11  H    1.534988
    12  H    1.438588
    13  H    1.640845
 Sum of Mulliken charges =   0.00000

 Dipole moment (field-independent basis, Debye):
    X=             -0.3769    Y=              1.3303    Z=             -0.0000  Tot=              1.3827

 Test job not archived.
 1\1\GINC-SE090\SP\RHF\Aug-CC-pVDZ\C5H4B1F2N1\OHZDE\09-Apr-2025\0\\#t h
 f aug-cc-pvdz iop(5/13=1,5/36=2,99/5=2) pseudo=read geom=check guess=(
 read,tcheck) scf=(maxcycle=1)\\title\\0,1\F,0,-2.429019,-1.127021,0.\B
 ,0,-1.715812,-0.016997,-0.000002\F,0,-2.391206,1.13117,-0.00001\C,0,-0
 .157827,-0.008205,0.\C,0,0.548772,1.20098,-0.000002\N,0,0.466878,-1.20
 667,0.000004\C,0,1.796906,-1.215531,0.000006\C,0,1.940592,1.176781,0.0
 00001\C,0,2.57894,-0.057025,0.000005\H,0,0.007238,2.139459,-0.000005\H
 ,0,2.511916,2.098114,0.\H,0,3.660219,-0.130977,0.000007\H,0,2.269278,-

 Normal termination of Gaussian 16 at Wed Apr  9 00:34:36 2025.
