 Gaussian 16, Revision C.01,

 ----------------------------------------------------------------------
 #t hf aug-cc-pvdz symm=none int=(grid=ultrafine) guess=(read,tcheck) s
 table=(opt,rrhf)
 ----------------------------------------------------------------------
 -----
 title
 -----
 Symbolic Z-matrix:
 Charge =  0 Multiplicity = 1

 SCF Done:  E(RHF) =  -994.646901447     A.U. after   13 cycles
 Normal termination of Gaussian 16 at Wed Apr  9 00:16:48 2025.
 Gaussian 16:  ES64L-G16RevC.01  3-Jul-2019

 ----------------------------------------------------------------------
 #t hf aug-cc-pvdz iop(5/13=1,5/36=2,99/5=2) pseudo=read geom=check gue
 ss=(read,tcheck) scf=(maxcycle=1)
 ----------------------------------------------------------------------
 -----
 title
 -----
 Structure from the checkpoint file:  "BDE49_nonexpt_2514_mol1.chk"
 Charge =  0 Multiplicity = 1

                         Standard orientation:
 ---------------------------------------------------------------------
 Center     Atomic      Atomic             Coordinates (Angstroms)
 Number     Number       Type             X           Y           Z
 ---------------------------------------------------------------------
      1         16           0       -1.136732    0.207667    0.000002
      2          6           0       -1.923462   -1.421352   -0.000003
      3          8           0       -1.502579    0.845485   -1.267188
      4          8           0       -1.502576    0.845476    1.267198
      5          1           0       -1.639101   -1.961929   -0.902584
      6          1           0       -2.997285   -1.225114   -0.000002
      7          1           0       -1.639100   -1.961936    0.902573
      8         14           0        1.108501   -0.059480   -0.000001
      9          6           0        1.703199    1.711420   -0.000005
     10          1           0        1.341753    2.240902    0.884425
     11          1           0        1.341751    2.240899   -0.884436
     12          6           0        1.566845   -0.983902   -1.563223
     13          1           0        2.655844   -1.018970   -1.671874
     14          1           0        1.154238   -0.481315   -2.441184
     15          1           0        1.201944   -2.014379   -1.553591
     16          6           0        1.566849   -0.983898    1.563222
     17          1           0        1.154244   -0.481308    2.441182
     18          1           0        2.655849   -1.018966    1.671870
     19          1           0        1.201948   -2.014375    1.553593
     20          1           0        2.797265    1.745234   -0.000006
 ---------------------------------------------------------------------

 SCF Done:  E(RHF) =  -996.533844303     A.U. after    2 cycles

 The electronic state is 1-A.
 Alpha  occ. eigenvalues --  -76.23548 -75.84710 -21.02067 -21.02025 -13.46107
 Alpha  occ. eigenvalues --  -13.35008 -13.29759 -11.41284 -11.37326 -11.37312
 Alpha  occ. eigenvalues --  -11.36404  -8.19720  -5.57663  -2.21414  -2.21362
 Alpha  occ. eigenvalues --   -2.20052  -1.79332  -1.62051  -1.13693  -1.10221
 Alpha  occ. eigenvalues --   -1.03466  -1.02887  -0.90272  -0.69273  -0.62197
 Alpha  occ. eigenvalues --   -0.61946  -0.59344  -0.58779  -0.58354  -0.57571
 Alpha  occ. eigenvalues --   -0.57206  -0.55465  -0.54934  -0.50063  -0.44004
 Alpha  occ. eigenvalues --   -0.41793  -0.40788  -0.37417  -0.35927  -0.32926
 Alpha  occ. eigenvalues --   -0.28880
 Alpha virt. eigenvalues --    0.01983   0.03962   0.04534   0.05049   0.05850
 Alpha virt. eigenvalues --    0.06035   0.06431   0.07118   0.07190   0.08230
 Alpha virt. eigenvalues --    0.08390   0.08646   0.08838   0.10605   0.11026

 Mulliken charges:
               1
     1  S    3.331473
     2  C   -4.761661
     3  O   -2.249727
     4  O   -2.249725
     5  H    1.426771
     6  H    1.319465
     7  H    1.426769
     8  Si  10.185153
     9  C   -6.005761
    10  H    1.105059
    11  H    1.105058
    12  C   -6.149333
    13  H    1.058773
    14  H    1.073360
    15  H    1.138244
    16  C   -6.149331
    17  H    1.073362
    18  H    1.058773
    19  H    1.138241
    20  H    1.125036
 Sum of Mulliken charges =  -0.00000

 Dipole moment (field-independent basis, Debye):
    X=              2.6316    Y=             -1.5112    Z=             -0.0000  Tot=              3.0347

 Test job not archived.
 1\1\GINC-SE435\SP\RHF\Aug-CC-pVDZ\C4H12O2S1Si1\OHZDE\09-Apr-2025\0\\#t
  hf aug-cc-pvdz iop(5/13=1,5/36=2,99/5=2) pseudo=read geom=check guess
 =(read,tcheck) scf=(maxcycle=1)\\title\\0,1\S,0,1.136732,0.207667,-0.0
 00002\C,0,1.923462,-1.421352,0.000003\O,0,1.502579,0.845485,1.267188\O
 ,0,1.502576,0.845476,-1.267198\H,0,1.639101,-1.961929,0.902584\H,0,2.9
 97285,-1.225114,0.000002\H,0,1.6391,-1.961936,-0.902573\Si,0,-1.108501
 ,-0.05948,0.000001\C,0,-1.703199,1.71142,0.000005\H,0,-1.341753,2.2409
 02,-0.884425\H,0,-1.341751,2.240899,0.884436\C,0,-1.566845,-0.983902,1

 Normal termination of Gaussian 16 at Wed Apr  9 00:16:58 2025.
