 Gaussian 16, Revision C.01,

 ----------------------------------------------------------------------
 #t hf aug-cc-pvdz symm=none int=(grid=ultrafine) guess=(read,tcheck) s
 table=(opt,rrhf)
 ----------------------------------------------------------------------
 -----
 title
 -----
 Symbolic Z-matrix:
 Charge =  0 Multiplicity = 1

 SCF Done:  E(RHF) =  -442.076496282     A.U. after   13 cycles
 Normal termination of Gaussian 16 at Wed Apr  9 00:41:20 2025.
 Gaussian 16:  ES64L-G16RevC.01  3-Jul-2019

 ----------------------------------------------------------------------
 #t hf aug-cc-pvdz iop(5/13=1,5/36=2,99/5=2) pseudo=read geom=check gue
 ss=(read,tcheck) scf=(maxcycle=1)
 ----------------------------------------------------------------------
 -----
 title
 -----
 Structure from the checkpoint file:  "BDE49_nonexpt_663_mol1.chk"
 Charge =  0 Multiplicity = 1

                         Standard orientation:
 ---------------------------------------------------------------------
 Center     Atomic      Atomic             Coordinates (Angstroms)
 Number     Number       Type             X           Y           Z
 ---------------------------------------------------------------------
      1          6           0        1.914189   -0.808960    0.000007
      2          6           0        0.684906    0.065618    0.000020
      3          8           0       -0.448558   -0.668577    0.000004
      4          8           0        0.702449    1.277584    0.000003
      5          5           0       -1.746337   -0.106580   -0.000009
      6          8           0       -2.744484   -1.025051   -0.000024
      7          6           0        3.223999   -0.027022   -0.000001
      8          1           0        1.835620   -1.470143   -0.869714
      9          1           0        1.835633   -1.470147    0.869727
     10          1           0        3.299390    0.614115   -0.880132
     11          1           0        4.074542   -0.712070   -0.000009
     12          1           0        3.299403    0.614112    0.880130
     13          1           0       -3.608408   -0.602027   -0.000028
     14          8           0       -1.984115    1.224218    0.000004
     15          1           0       -1.145392    1.715853    0.000021
 ---------------------------------------------------------------------

 SCF Done:  E(RHF) =  -443.950479937     A.U. after    2 cycles

 The electronic state is 1-A.
 Alpha  occ. eigenvalues --  -21.07858 -21.06767 -21.06132 -21.05133 -11.55058
 Alpha  occ. eigenvalues --  -11.43156 -11.37919  -7.67640  -1.92559  -1.77154
 Alpha  occ. eigenvalues --   -1.67887  -1.66002  -1.19425  -0.97274  -0.82808
 Alpha  occ. eigenvalues --   -0.74938  -0.66749  -0.65803  -0.62073  -0.61577
 Alpha  occ. eigenvalues --   -0.57008  -0.54385  -0.51482  -0.50796  -0.48745
 Alpha  occ. eigenvalues --   -0.47004  -0.45146  -0.36933  -0.35872  -0.35573
 Alpha  occ. eigenvalues --   -0.30076
 Alpha virt. eigenvalues --    0.03045   0.04275   0.05395   0.05441   0.05833
 Alpha virt. eigenvalues --    0.06207   0.06275   0.06927   0.07714   0.08857
 Alpha virt. eigenvalues --    0.10100   0.11318   0.13421   0.14321   0.14411

 Mulliken charges:
               1
     1  C   -3.645560
     2  C    6.899927
     3  O   -6.508183
     4  O   -3.151513
     5  B    8.183225
     6  O   -3.281784
     7  C   -3.554145
     8  H    1.473270
     9  H    1.473290
    10  H    1.260834
    11  H    1.084348
    12  H    1.260826
    13  H    0.842553
    14  O   -4.172311
    15  H    1.835223
 Sum of Mulliken charges =  -0.00000

 Dipole moment (field-independent basis, Debye):
    X=              1.1683    Y=             -0.1900    Z=             -0.0000  Tot=              1.1836

 Test job not archived.
 1\1\GINC-SE069\SP\RHF\Aug-CC-pVDZ\C3H7B1O4\OHZDE\09-Apr-2025\0\\#t hf
 aug-cc-pvdz iop(5/13=1,5/36=2,99/5=2) pseudo=read geom=check guess=(re
 ad,tcheck) scf=(maxcycle=1)\\title\\0,1\C,0,1.914189,-0.80896,0.000007
 \C,0,0.684906,0.065618,0.00002\O,0,-0.448558,-0.668577,0.000004\O,0,0.
 702449,1.277584,0.000003\B,0,-1.746337,-0.10658,-0.000009\O,0,-2.74448
 4,-1.025051,-0.000024\C,0,3.223999,-0.027022,-0.000001\H,0,1.83562,-1.
 470143,-0.869714\H,0,1.835633,-1.470147,0.869727\H,0,3.29939,0.614115,
 -0.880132\H,0,4.074542,-0.71207,-0.000009\H,0,3.299403,0.614112,0.8801

 Normal termination of Gaussian 16 at Wed Apr  9 00:41:25 2025.
