 Gaussian 16, Revision C.01,

 ----------------------------------------------------------------------
 #t hf aug-cc-pvdz symm=none int=(grid=ultrafine) guess=(read,tcheck) s
 table=opt
 ----------------------------------------------------------------------
 -----
 title
 -----
 Symbolic Z-matrix:
 Charge =  0 Multiplicity = 2

 SCF Done:  E(UHF) =  -719.505583747     A.U. after   16 cycles
 Normal termination of Gaussian 16 at Tue Apr  8 23:54:54 2025.
 Gaussian 16:  ES64L-G16RevC.01  3-Jul-2019

 ----------------------------------------------------------------------
 #t hf aug-cc-pvdz iop(5/13=1,5/36=2,99/5=2) pseudo=read geom=check gue
 ss=(read,tcheck) scf=(maxcycle=1)
 ----------------------------------------------------------------------
 -----
 title
 -----
 Structure from the checkpoint file:  "BDE49_nonexpt_1956_mol2.chk"
 Charge =  0 Multiplicity = 2

                         Standard orientation:
 ---------------------------------------------------------------------
 Center     Atomic      Atomic             Coordinates (Angstroms)
 Number     Number       Type             X           Y           Z
 ---------------------------------------------------------------------
      1          6           0       -2.094043   -1.227700   -0.040207
      2         15           0       -0.052071    0.387193    0.100558
      3          8           0        1.393214    0.130948   -0.483439
      4          8           0       -0.536514    1.621227   -0.779171
      5          1           0       -0.599474    2.425298   -0.250452
      6          8           0       -0.193588    0.544102    1.548754
      7          8           0       -0.861976   -0.851155   -0.536275
      8          6           0        2.195350   -0.956541    0.024989
      9          1           0        3.183500   -0.832522   -0.412480
     10          1           0        1.766773   -1.910940   -0.286646
     11          1           0        2.256607   -0.906016    1.113390
     12          1           0       -2.316709   -0.975640    0.987500
     13          1           0       -2.526564   -2.063608   -0.567336
 ---------------------------------------------------------------------

 SCF Done:  E(UHF) =  -721.305182652     A.U. after    2 cycles

 The electronic state is 2-A.
 Alpha  occ. eigenvalues -- -105.32622 -21.12058 -21.10101 -21.08770 -21.02828
 Alpha  occ. eigenvalues --  -11.43030 -11.42391  -2.96160  -2.01768  -1.93565
 Alpha  occ. eigenvalues --   -1.93355  -1.76524  -1.45226  -1.42076  -1.26599
 Alpha  occ. eigenvalues --   -0.98647  -0.95209  -0.70391  -0.65103  -0.63324
 Alpha  occ. eigenvalues --   -0.62076  -0.58500  -0.54657  -0.52744  -0.48480
 Alpha  occ. eigenvalues --   -0.43017  -0.40064  -0.34914  -0.34659  -0.29954
 Alpha  occ. eigenvalues --   -0.28532  -0.26369  -0.16339
 Alpha virt. eigenvalues --    0.03391   0.04922   0.05601   0.06337   0.06812
 Alpha virt. eigenvalues --    0.07153   0.10479   0.11807   0.11823   0.12981
 Alpha virt. eigenvalues --    0.13559   0.14461   0.14692   0.15356   0.16192

  Beta  occ. eigenvalues -- -105.32622 -21.12059 -21.09722 -21.08778 -21.02839
  Beta  occ. eigenvalues --  -11.43029 -11.40026  -2.96151  -2.01691  -1.93323
  Beta  occ. eigenvalues --   -1.93015  -1.76215  -1.44464  -1.41946  -1.26447
  Beta  occ. eigenvalues --   -0.98471  -0.88262  -0.69885  -0.64176  -0.63153
  Beta  occ. eigenvalues --   -0.61944  -0.57945  -0.52678  -0.48666  -0.46846
  Beta  occ. eigenvalues --   -0.41892  -0.39459  -0.34840  -0.34568  -0.28425
  Beta  occ. eigenvalues --   -0.27101  -0.16593
  Beta virt. eigenvalues --    0.03411   0.04974   0.05632   0.06345   0.06812
  Beta virt. eigenvalues --    0.07165   0.08970   0.10733   0.11830   0.12047
  Beta virt. eigenvalues --    0.13527   0.14459   0.14643   0.14926   0.15943

 Mulliken charges and spin densities:
               1          2
     1  C   -1.782397   1.151235
     2  P    9.266577  -0.007555
     3  O   -3.289841  -0.006045
     4  O   -2.577907   0.001875
     5  H    0.767445   0.000629
     6  O   -2.894129   0.009554
     7  O   -3.387766   0.013967
     8  C   -2.938792   0.000389
     9  H    1.222291  -0.000930
    10  H    1.409347   0.002801
    11  H    1.322605   0.002202
    12  H    1.396746  -0.091429
    13  H    1.485822  -0.076693
 Sum of Mulliken charges =   0.00000   1.00000

 Dipole moment (field-independent basis, Debye):
    X=              0.9258    Y=             -0.5983    Z=             -2.3641  Tot=              2.6085
                          Isotropic Fermi Contact Couplings
        Atom                 a.u.       MegaHertz       Gauss      10(-4) cm-1
     1  C(13)              0.14457     162.52346      57.99241      54.21199
     2  P(31)              0.00044       0.80513       0.28729       0.26856
     3  O(17)             -0.00093       0.56478       0.20153       0.18839
     4  O(17)             -0.00037       0.22564       0.08051       0.07527
     5  H(1)               0.00044       1.98452       0.70813       0.66197
     6  O(17)             -0.00056       0.34080       0.12161       0.11368
     7  O(17)              0.03365     -20.39750      -7.27833      -6.80387
     8  C(13)              0.00110       1.23415       0.44038       0.41167

 Normal termination of Gaussian 16 at Tue Apr  8 23:54:59 2025.
