 Gaussian 16, Revision C.01,

 ----------------------------------------------------------------------
 #t hf aug-cc-pvdz symm=none int=(grid=ultrafine) guess=(read,tcheck) s
 table=opt
 ----------------------------------------------------------------------
 -----
 title
 -----
 Symbolic Z-matrix:
 Charge =  0 Multiplicity = 2

 SCF Done:  E(UHF) =  -737.133928414     A.U. after   19 cycles

 1\1\GINC-SE335\Stability\UHF\Aug-CC-pVDZ\F3O2Si1\OHZDE\09-Apr-2025\0\\
 #t hf aug-cc-pvdz symm=none int=(grid=ultrafine) guess=(read,tcheck) s
 table=opt\\title\\0,2\O,0,-2.117344,-0.031496,-0.000014\O,0,-1.10064,0
 .86483,-0.000035\Si,0,0.332559,-0.006203,0.000003\F,0,0.436118,-0.9013
 83,-1.282121\F,0,1.470898,1.071591,-0.000024\F,0,0.4361,-0.9013,1.2821
 85\\Version=ES64L-G16RevC.01\HF=-737.1339284\S2=0.76269\S2-1=0.\S2A=0.
 750123\RMSD=8.794e-09\Dipole=0.0976651,-0.0540264,0.0000044\Quadrupole
 =-0.1081976,-0.3467289,0.4549265,0.1123685,-0.0000054,0.0000228\PG=Unk

 Normal termination of Gaussian 16 at Wed Apr  9 00:05:32 2025.
 Gaussian 16:  ES64L-G16RevC.01  3-Jul-2019

 ----------------------------------------------------------------------
 #t hf aug-cc-pvdz iop(5/13=1,5/36=2,99/5=2) pseudo=read geom=check gue
 ss=(read,tcheck) scf=(maxcycle=1)
 ----------------------------------------------------------------------
 -----
 title
 -----
 Structure from the checkpoint file:  "BDE49_nonexpt_2212_mol2.chk"
 Charge =  0 Multiplicity = 2

                         Standard orientation:
 ---------------------------------------------------------------------
 Center     Atomic      Atomic             Coordinates (Angstroms)
 Number     Number       Type             X           Y           Z
 ---------------------------------------------------------------------
      1          8           0       -2.117344   -0.031496   -0.000014
      2          8           0       -1.100640    0.864830   -0.000035
      3         14           0        0.332559   -0.006203    0.000003
      4          9           0        0.436118   -0.901383   -1.282121
      5          9           0        1.470898    1.071591   -0.000024
      6          9           0        0.436100   -0.901300    1.282185
 ---------------------------------------------------------------------

 SCF Done:  E(UHF) =  -738.858921072     A.U. after    2 cycles

 The electronic state is 2-A.
 Alpha  occ. eigenvalues --  -76.36289 -29.33065 -29.33059 -29.33012 -21.20511
 Alpha  occ. eigenvalues --  -21.16043  -5.73781  -2.38451  -2.37782  -2.37605
 Alpha  occ. eigenvalues --   -2.04698  -1.40320  -1.01583  -0.76462  -0.76108
 Alpha  occ. eigenvalues --   -0.64946  -0.63560  -0.56467  -0.46402  -0.46147
 Alpha  occ. eigenvalues --   -0.45650  -0.43174  -0.41166  -0.38472  -0.35109
 Alpha  occ. eigenvalues --   -0.34208  -0.33608  -0.33141  -0.32230
 Alpha virt. eigenvalues --    0.06655   0.07558   0.07666   0.10976   0.14509
 Alpha virt. eigenvalues --    0.18747   0.19573   0.20606   0.20976   0.23127
 Alpha virt. eigenvalues --    0.23417   0.25741   0.26055   0.26539   0.26807

  Beta  occ. eigenvalues --  -76.36293 -29.33070 -29.33064 -29.33021 -21.16598
  Beta  occ. eigenvalues --  -21.15555  -5.73788  -2.38462  -2.37775  -2.37572
  Beta  occ. eigenvalues --   -1.99178  -1.31271  -1.01290  -0.76148  -0.76072
  Beta  occ. eigenvalues --   -0.63986  -0.54910  -0.52415  -0.46111  -0.45942
  Beta  occ. eigenvalues --   -0.45590  -0.42330  -0.38316  -0.36965  -0.33899
  Beta  occ. eigenvalues --   -0.33638  -0.32282  -0.31662
  Beta virt. eigenvalues --    0.06663   0.07585   0.07671   0.10022   0.11037
  Beta virt. eigenvalues --    0.14845   0.18821   0.19963   0.21032   0.22461
  Beta virt. eigenvalues --    0.23187   0.23448   0.26015   0.26134   0.26905

 Mulliken charges and spin densities:
               1          2
     1  O   -0.094055   0.960305
     2  O   -0.683799   0.046504
     3  Si   3.943679  -0.019875
     4  F   -0.974391   0.007813
     5  F   -1.217042  -0.002559
     6  F   -0.974392   0.007813
 Sum of Mulliken charges =  -0.00000   1.00000

 Dipole moment (field-independent basis, Debye):
    X=              2.0713    Y=             -1.1259    Z=              0.0001  Tot=              2.3575
                          Isotropic Fermi Contact Couplings
        Atom                 a.u.       MegaHertz       Gauss      10(-4) cm-1
     1  O(17)              0.19023    -115.31813     -41.14838     -38.46599
     2  O(17)              0.03879     -23.51575      -8.39100      -7.84401
     3  Si(29)            -0.00463       4.11752       1.46923       1.37346
     4  F(19)             -0.00143      -5.99910      -2.14063      -2.00108
     5  F(19)             -0.00186      -7.83491      -2.79569      -2.61344
     6  F(19)             -0.00143      -5.99911      -2.14063      -2.00109
 --------------------------------------------------------
       Center         ----  Spin Dipole Couplings  ----

 Normal termination of Gaussian 16 at Wed Apr  9 00:05:34 2025.
