 Gaussian 16, Revision C.01,

 ----------------------------------------------------------------------
 #t hf aug-cc-pvdz symm=none int=(grid=ultrafine) guess=(read,tcheck) s
 table=(opt,rrhf)
 ----------------------------------------------------------------------
 -----
 title
 -----
 Symbolic Z-matrix:
 Charge =  0 Multiplicity = 1

 SCF Done:  E(RHF) =  -766.133342201     A.U. after   17 cycles
 Normal termination of Gaussian 16 at Wed Apr  9 00:25:12 2025.
 Gaussian 16:  ES64L-G16RevC.01  3-Jul-2019

 ----------------------------------------------------------------------
 #t hf aug-cc-pvdz iop(5/13=1,5/36=2,99/5=2) pseudo=read geom=check gue
 ss=(read,tcheck) scf=(maxcycle=1)
 ----------------------------------------------------------------------
 -----
 title
 -----
 Structure from the checkpoint file:  "BDE49_nonexpt_2697_mol1.chk"
 Charge =  0 Multiplicity = 1

                         Standard orientation:
 ---------------------------------------------------------------------
 Center     Atomic      Atomic             Coordinates (Angstroms)
 Number     Number       Type             X           Y           Z
 ---------------------------------------------------------------------
      1          9           0        2.489966   -0.016717    0.906531
      2         16           0        1.766550   -0.727285   -0.450021
      3          6           0        0.068777   -0.377772   -0.141829
      4          6           0       -0.422724    0.948383   -0.101771
      5          6           0       -1.796396    1.120860    0.069856
      6          6           0       -2.664693    0.033193    0.164288
      7          6           0       -0.801104   -1.469517   -0.015492
      8          1           0       -0.390260   -2.471771   -0.017179
      9          6           0       -2.171101   -1.266726    0.113490
     10          1           0       -2.840602   -2.114490    0.198373
     11          1           0       -2.196211    2.128196    0.116552
     12          6           0        0.496232    2.134369   -0.219051
     13          1           0        1.213232    2.157138    0.604260
     14          1           0       -0.068890    3.067360   -0.220309
     15          1           0        1.082704    2.077918   -1.141168
     16          1           0       -3.728415    0.205935    0.284079
 ---------------------------------------------------------------------

 SCF Done:  E(RHF) =  -768.002234519     A.U. after    2 cycles

 The electronic state is 1-A.
 Alpha  occ. eigenvalues --  -75.75588 -29.25550 -13.23623 -13.19706 -13.12068
 Alpha  occ. eigenvalues --  -11.52695 -11.46627 -11.45068 -11.43133 -11.42249
 Alpha  occ. eigenvalues --  -11.39326 -11.37716  -8.09507  -1.38535  -1.21381
 Alpha  occ. eigenvalues --   -1.15678  -1.07379  -1.00345  -0.87275  -0.84557
 Alpha  occ. eigenvalues --   -0.71629  -0.67257  -0.63195  -0.62194  -0.58510
 Alpha  occ. eigenvalues --   -0.57134  -0.54007  -0.52291  -0.50413  -0.45868
 Alpha  occ. eigenvalues --   -0.43750  -0.39903  -0.36214  -0.33620  -0.30600
 Alpha  occ. eigenvalues --   -0.26683  -0.17052
 Alpha virt. eigenvalues --    0.03095   0.04729   0.04951   0.05419   0.06213
 Alpha virt. eigenvalues --    0.07228   0.07606   0.08401   0.09858   0.10186
 Alpha virt. eigenvalues --    0.10914   0.11214   0.12578   0.13667   0.13702

 Mulliken charges:
               1
     1  F   -0.315193
     2  S    0.313921
     3  C    3.213808
     4  C    2.458423
     5  C   -1.204330
     6  C   -2.443160
     7  C   -4.894858
     8  H    1.703990
     9  C   -2.149785
    10  H    1.533331
    11  H    1.731484
    12  C   -5.003522
    13  H    1.055575
    14  H    1.246800
    15  H    1.236723
    16  H    1.516795
 Sum of Mulliken charges =   0.00000

 Dipole moment (field-independent basis, Debye):
    X=              0.7422    Y=              1.0320    Z=              1.5794  Tot=              2.0274

 Test job not archived.
 1\1\GINC-SE249\SP\RHF\Aug-CC-pVDZ\C7H7F1S1\OHZDE\09-Apr-2025\0\\#t hf
 aug-cc-pvdz iop(5/13=1,5/36=2,99/5=2) pseudo=read geom=check guess=(re
 ad,tcheck) scf=(maxcycle=1)\\title\\0,1\F,0,2.489966,-0.016718,0.90653
 1\S,0,1.76655,-0.727286,-0.450021\C,0,0.068777,-0.377772,-0.141829\C,0
 ,-0.422724,0.948383,-0.101771\C,0,-1.796396,1.12086,0.069856\C,0,-2.66
 4693,0.033193,0.164288\C,0,-0.801104,-1.469517,-0.015492\H,0,-0.39026,
 -2.471771,-0.017179\C,0,-2.171101,-1.266726,0.11349\H,0,-2.840602,-2.1
 1449,0.198373\H,0,-2.19621,2.128196,0.116552\C,0,0.496233,2.134369,-0.

 Normal termination of Gaussian 16 at Wed Apr  9 00:25:20 2025.
