 Gaussian 16, Revision C.01,

 ----------------------------------------------------------------------
 #t hf aug-cc-pvdz symm=none int=(grid=ultrafine) guess=(read,tcheck) s
 table=(opt,rrhf)
 ----------------------------------------------------------------------
 -----
 title
 -----
 Symbolic Z-matrix:
 Charge =  0 Multiplicity = 1

 SCF Done:  E(RHF) =  -2003.83164763     A.U. after   12 cycles
 Normal termination of Gaussian 16 at Tue Apr  8 23:50:30 2025.
 Gaussian 16:  ES64L-G16RevC.01  3-Jul-2019

 ----------------------------------------------------------------------
 #t hf aug-cc-pvdz iop(5/13=1,5/36=2,99/5=2) pseudo=read geom=check gue
 ss=(read,tcheck) scf=(maxcycle=1)
 ----------------------------------------------------------------------
 -----
 title
 -----
 Structure from the checkpoint file:  "BDE49_nonexpt_1859_mol1.chk"
 Charge =  0 Multiplicity = 1

                         Standard orientation:
 ---------------------------------------------------------------------
 Center     Atomic      Atomic             Coordinates (Angstroms)
 Number     Number       Type             X           Y           Z
 ---------------------------------------------------------------------
      1          6           0       -1.047727   -0.541266   -0.252441
      2         14           0        0.662234    0.118386    0.305107
      3          9           0        0.615676    0.266368    1.883367
      4         17           0        1.031401    1.926180   -0.541135
      5          9           0       -1.268597   -1.766191    0.278978
      6         17           0       -2.366894    0.556970    0.275209
      7         17           0        2.087695   -1.242620   -0.194963
      8          9           0       -1.099562   -0.666711   -1.598094
 ---------------------------------------------------------------------

 SCF Done:  E(RHF) =  -2005.88839708     A.U. after    2 cycles

 The electronic state is 1-A.
 Alpha  occ. eigenvalues --  -99.93201 -99.93055 -99.92781 -76.36727 -29.33228
 Alpha  occ. eigenvalues --  -29.33141 -29.32134 -11.57381 -10.50735 -10.50567
 Alpha  occ. eigenvalues --  -10.50212  -9.70572  -9.70428  -9.70043  -9.69961
 Alpha  occ. eigenvalues --   -9.69910  -9.69778  -9.69695  -9.69266  -9.69182
 Alpha  occ. eigenvalues --   -5.71687  -2.36140  -2.33449  -2.33149  -1.43799
 Alpha  occ. eigenvalues --   -1.35543  -1.32916  -1.22432  -0.93019  -0.88008
 Alpha  occ. eigenvalues --   -0.76602  -0.73652  -0.67889  -0.64116  -0.59506
 Alpha  occ. eigenvalues --   -0.58249  -0.57887  -0.55849  -0.55292  -0.53579
 Alpha  occ. eigenvalues --   -0.48122  -0.42497  -0.40760  -0.39094  -0.38654
 Alpha  occ. eigenvalues --   -0.37032  -0.33571  -0.28161  -0.25743
 Alpha virt. eigenvalues --    0.04489   0.05188   0.06085   0.07068   0.07358
 Alpha virt. eigenvalues --    0.09278   0.10820   0.11593   0.12161   0.13401
 Alpha virt. eigenvalues --    0.13460   0.14132   0.14644   0.16153   0.16378

 Mulliken charges:
               1
     1  C   -0.831932
     2  Si   2.855188
     3  F   -0.582043
     4  Cl  -0.802636
     5  F    0.413356
     6  Cl  -0.562633
     7  Cl  -0.823285
     8  F    0.333984
 Sum of Mulliken charges =  -0.00000

 Dipole moment (field-independent basis, Debye):
    X=              0.5359    Y=             -3.6516    Z=              0.9204  Tot=              3.8037

 Test job not archived.
 1\1\GINC-SE253\SP\RHF\Aug-CC-pVDZ\C1Cl3F3Si1\OHZDE\08-Apr-2025\0\\#t h
 f aug-cc-pvdz iop(5/13=1,5/36=2,99/5=2) pseudo=read geom=check guess=(
 read,tcheck) scf=(maxcycle=1)\\title\\0,1\C,0,-1.047727,-0.541266,-0.2
 52441\Si,0,0.662234,0.118386,0.305107\F,0,0.615676,0.266368,1.883367\C
 l,0,1.031401,1.92618,-0.541135\F,0,-1.268597,-1.766191,0.278978\Cl,0,-
 2.366894,0.55697,0.275209\Cl,0,2.087695,-1.24262,-0.194963\F,0,-1.0995
 62,-0.666711,-1.598094\\Version=ES64L-G16RevC.01\State=1-A\HF=-2005.88
 83971\RMSD=4.387e-02\Dipole=0.2108529,-1.4366404,0.362095\Quadrupole=-

 Normal termination of Gaussian 16 at Tue Apr  8 23:50:34 2025.
