 Gaussian 16, Revision C.01,

 ----------------------------------------------------------------------
 #t hf aug-cc-pvdz symm=none int=(grid=ultrafine) guess=(read,tcheck) s
 table=(opt,rrhf)
 ----------------------------------------------------------------------
 -----
 title
 -----
 Symbolic Z-matrix:
 Charge =  0 Multiplicity = 1

 SCF Done:  E(RHF) =  -1297.20220657     A.U. after   13 cycles
 Normal termination of Gaussian 16 at Wed Apr  9 00:49:52 2025.
 Gaussian 16:  ES64L-G16RevC.01  3-Jul-2019

 ----------------------------------------------------------------------
 #t hf aug-cc-pvdz iop(5/13=1,5/36=2,99/5=2) pseudo=read geom=check gue
 ss=(read,tcheck) scf=(maxcycle=1)
 ----------------------------------------------------------------------
 -----
 title
 -----
 Structure from the checkpoint file:  "BDE49_nonexpt_877_mol1.chk"
 Charge =  0 Multiplicity = 1

                         Standard orientation:
 ---------------------------------------------------------------------
 Center     Atomic      Atomic             Coordinates (Angstroms)
 Number     Number       Type             X           Y           Z
 ---------------------------------------------------------------------
      1          6           0       -2.148442   -0.251392   -0.506622
      2         16           0       -0.592069   -1.216961   -0.260525
      3          5           0        0.729030   -0.003647   -0.057492
      4         16           0        0.417674    1.790526   -0.163494
      5         16           0        2.429858   -0.586083    0.246964
      6          6           0       -2.828699    0.158842    0.795871
      7          1           0       -2.785918   -0.921581   -1.086293
      8          1           0       -1.922994    0.608393   -1.138890
      9          1           0       -3.057642   -0.713931    1.411014
     10          1           0       -3.767450    0.677884    0.577344
     11          1           0       -2.198916    0.830976    1.381358
     12          1           0        1.687250    2.199317    0.005224
     13          1           0        2.175942   -1.907249    0.235092
 ---------------------------------------------------------------------

 SCF Done:  E(RHF) =  -1298.40968904     A.U. after    2 cycles

 The electronic state is 1-A.
 Alpha  occ. eigenvalues --  -75.69922 -75.69592 -75.68316 -13.17379 -13.16664
 Alpha  occ. eigenvalues --  -13.14306 -13.11346 -13.10547 -13.07455 -13.04893
 Alpha  occ. eigenvalues --  -13.03983 -13.03503 -11.43049 -11.37633  -8.03966
 Alpha  occ. eigenvalues --   -8.03491  -8.02368  -7.67746  -1.27344  -1.18307
 Alpha  occ. eigenvalues --   -1.10144  -1.05345  -0.88145  -0.67217  -0.63288
 Alpha  occ. eigenvalues --   -0.59073  -0.55235  -0.53064  -0.50767  -0.48955
 Alpha  occ. eigenvalues --   -0.39907  -0.37646  -0.34118  -0.32420  -0.25499
 Alpha  occ. eigenvalues --   -0.24270
 Alpha virt. eigenvalues --    0.02034   0.02326   0.02850   0.02973   0.06357
 Alpha virt. eigenvalues --    0.07219   0.07604   0.08625   0.08999   0.09429
 Alpha virt. eigenvalues --    0.10165   0.11526   0.11701   0.12261   0.12523

 Mulliken charges:
               1
     1  C   -4.009260
     2  S   -0.733589
     3  B    4.558616
     4  S   -2.435466
     5  S   -2.714644
     6  C   -3.563286
     7  H    1.483153
     8  H    1.554801
     9  H    1.350720
    10  H    1.180580
    11  H    1.322120
    12  H    0.955128
    13  H    1.051127
 Sum of Mulliken charges =   0.00000

 Dipole moment (field-independent basis, Debye):
    X=             -1.2926    Y=              0.5511    Z=             -0.2901  Tot=              1.4348

 Test job not archived.
 1\1\GINC-SE038\SP\RHF\Aug-CC-pVDZ\C2H7B1S3\OHZDE\09-Apr-2025\0\\#t hf
 aug-cc-pvdz iop(5/13=1,5/36=2,99/5=2) pseudo=read geom=check guess=(re
 ad,tcheck) scf=(maxcycle=1)\\title\\0,1\C,0,-2.148442,-0.251392,-0.506
 622\S,0,-0.592069,-1.216961,-0.260525\B,0,0.72903,-0.003647,-0.057492\
 S,0,0.417674,1.790526,-0.163494\S,0,2.429858,-0.586083,0.246964\C,0,-2
 .828699,0.158842,0.795871\H,0,-2.785918,-0.921581,-1.086293\H,0,-1.922
 994,0.608393,-1.13889\H,0,-3.057642,-0.713931,1.411014\H,0,-3.76745,0.
 677884,0.577344\H,0,-2.198916,0.830976,1.381358\H,0,1.68725,2.199317,0

 Normal termination of Gaussian 16 at Wed Apr  9 00:49:57 2025.
