 Gaussian 16, Revision C.01,

 ----------------------------------------------------------------------
 #t hf aug-cc-pvdz symm=none int=(grid=ultrafine) guess=(read,tcheck) s
 table=(opt,rrhf)
 ----------------------------------------------------------------------
 -----
 title
 -----
 Symbolic Z-matrix:
 Charge =  0 Multiplicity = 1

 SCF Done:  E(RHF) =  -458.957134879     A.U. after   13 cycles
 Normal termination of Gaussian 16 at Wed Apr  9 00:01:57 2025.
 Gaussian 16:  ES64L-G16RevC.01  3-Jul-2019

 ----------------------------------------------------------------------
 #t hf aug-cc-pvdz iop(5/13=1,5/36=2,99/5=2) pseudo=read geom=check gue
 ss=(read,tcheck) scf=(maxcycle=1)
 ----------------------------------------------------------------------
 -----
 title
 -----
 Structure from the checkpoint file:  "BDE49_nonexpt_2144_mol1.chk"
 Charge =  0 Multiplicity = 1

                         Standard orientation:
 ---------------------------------------------------------------------
 Center     Atomic      Atomic             Coordinates (Angstroms)
 Number     Number       Type             X           Y           Z
 ---------------------------------------------------------------------
      1         14           0       -0.514160   -0.681630    0.000053
      2          7           0        1.333566   -0.398059   -0.000028
      3          8           0        1.666240    0.771345   -0.000090
      4          6           0       -1.487651    0.910240   -0.000002
      5          1           0       -1.252806    1.508126    0.883763
      6          1           0       -2.560985    0.700836    0.000089
      7          1           0       -1.252930    1.507992   -0.883890
      8          1           0       -0.736965   -1.509892    1.207623
      9          1           0       -0.737053   -1.510031   -1.207405
 ---------------------------------------------------------------------

 SCF Done:  E(RHF) =  -459.857681742     A.U. after    2 cycles

 The electronic state is 1-A.
 Alpha  occ. eigenvalues --  -76.24250 -21.12672 -15.82933 -11.36823  -5.58019
 Alpha  occ. eigenvalues --   -2.22092  -2.20842  -2.19945  -1.83266  -1.06650
 Alpha  occ. eigenvalues --   -0.99481  -0.72887  -0.60312  -0.58304  -0.55490
 Alpha  occ. eigenvalues --   -0.52948  -0.52194  -0.46971  -0.43927  -0.24384
 Alpha virt. eigenvalues --    0.03109   0.05024   0.05677   0.06099   0.07554
 Alpha virt. eigenvalues --    0.07658   0.07972   0.10194   0.11621   0.12441
 Alpha virt. eigenvalues --    0.14322   0.15607   0.15687   0.16206   0.17018

 Mulliken charges:
               1
     1  Si   5.698687
     2  N    0.360480
     3  O   -1.452613
     4  C   -4.927491
     5  H    1.306598
     6  H    1.309173
     7  H    1.306603
     8  H   -1.800716
     9  H   -1.800720
 Sum of Mulliken charges =  -0.00000

 Dipole moment (field-independent basis, Debye):
    X=             -2.0103    Y=              1.2257    Z=             -0.0000  Tot=              2.3545

 Test job not archived.
 1\1\GINC-SE424\SP\RHF\Aug-CC-pVDZ\C1H5N1O1Si1\OHZDE\09-Apr-2025\0\\#t
 hf aug-cc-pvdz iop(5/13=1,5/36=2,99/5=2) pseudo=read geom=check guess=
 (read,tcheck) scf=(maxcycle=1)\\title\\0,1\Si,0,-0.51416,-0.68163,0.00
 0053\N,0,1.333566,-0.398059,-0.000028\O,0,1.66624,0.771345,-0.00009\C,
 0,-1.487651,0.91024,-0.000002\H,0,-1.252806,1.508126,0.883763\H,0,-2.5
 60985,0.700835,0.000089\H,0,-1.25293,1.507992,-0.88389\H,0,-0.736965,-
 1.509892,1.207623\H,0,-0.737053,-1.510031,-1.207405\\Version=ES64L-G16
 RevC.01\State=1-A\HF=-459.8576817\RMSD=7.862e-02\Dipole=-0.7908979,0.4

 Normal termination of Gaussian 16 at Wed Apr  9 00:01:59 2025.
