 Gaussian 16, Revision C.01,

 ----------------------------------------------------------------------
 #t hf aug-cc-pvdz symm=none int=(grid=ultrafine) guess=(read,tcheck) s
 table=(opt,rrhf)
 ----------------------------------------------------------------------
 -----
 title
 -----
 Symbolic Z-matrix:
 Charge =  0 Multiplicity = 1

 SCF Done:  E(RHF) =  -686.753488131     A.U. after   13 cycles
 Normal termination of Gaussian 16 at Tue Apr  8 22:36:40 2025.
 Gaussian 16:  ES64L-G16RevC.01  3-Jul-2019

 ----------------------------------------------------------------------
 #t hf aug-cc-pvdz iop(5/13=1,5/36=2,99/5=2) pseudo=read geom=check gue
 ss=(read,tcheck) scf=(maxcycle=1)
 ----------------------------------------------------------------------
 -----
 title
 -----
 Structure from the checkpoint file:  "BDE49_expt_1109_mol1.chk"
 Charge =  0 Multiplicity = 1

                         Standard orientation:
 ---------------------------------------------------------------------
 Center     Atomic      Atomic             Coordinates (Angstroms)
 Number     Number       Type             X           Y           Z
 ---------------------------------------------------------------------
      1          6           0       -0.225918   -0.787706    0.000016
      2          6           0        0.964161    0.175412    0.000068
      3          8           0        0.903032    1.363608    0.000008
      4          8           0        2.162880   -0.468855   -0.000018
      5          1           0        2.048853   -1.427354   -0.000033
      6         17           0       -1.802141    0.046410   -0.000024
      7          1           0       -0.184627   -1.422951    0.886725
      8          1           0       -0.184572   -1.422932   -0.886704
 ---------------------------------------------------------------------

 SCF Done:  E(RHF) =  -687.958043035     A.U. after    2 cycles

 The electronic state is 1-A.
 Alpha  occ. eigenvalues --  -99.90157 -21.14456 -21.07127 -11.54830 -11.47093
 Alpha  occ. eigenvalues --  -10.47431  -9.67306  -9.66523  -9.66456  -1.84177
 Alpha  occ. eigenvalues --   -1.67583  -1.35110  -1.08860  -0.82238  -0.72329
 Alpha  occ. eigenvalues --   -0.69617  -0.64763  -0.54776  -0.54319  -0.51858
 Alpha  occ. eigenvalues --   -0.49269  -0.46503  -0.35833  -0.32360
 Alpha virt. eigenvalues --    0.01802   0.05008   0.05264   0.06555   0.09435
 Alpha virt. eigenvalues --    0.11125   0.12074   0.12169   0.12798   0.14965
 Alpha virt. eigenvalues --    0.14978   0.16705   0.16886   0.17812   0.18920

 Mulliken charges:
               1
     1  C   -3.942027
     2  C    5.389852
     3  O   -2.785222
     4  O   -2.992105
     5  H    1.039447
     6  Cl   0.098876
     7  H    1.595613
     8  H    1.595566
 Sum of Mulliken charges =  -0.00000

 Dipole moment (field-independent basis, Debye):
    X=              1.4297    Y=             -2.7923    Z=             -0.0000  Tot=              3.1370

 Test job not archived.
 1\1\GINC-SE126\SP\RHF\Aug-CC-pVDZ\C2H3Cl1O2\OHZDE\08-Apr-2025\0\\#t hf
  aug-cc-pvdz iop(5/13=1,5/36=2,99/5=2) pseudo=read geom=check guess=(r
 ead,tcheck) scf=(maxcycle=1)\\title\\0,1\C,0,0.225918,-0.787706,-0.000
 016\C,0,-0.964161,0.175412,-0.000068\O,0,-0.903032,1.363608,-0.000008\
 O,0,-2.16288,-0.468855,0.000018\H,0,-2.048853,-1.427354,0.000033\Cl,0,
 1.802141,0.04641,0.000024\H,0,0.184627,-1.422951,-0.886725\H,0,0.18457
 2,-1.422932,0.886704\\Version=ES64L-G16RevC.01\State=1-A\HF=-687.95804
 3\RMSD=1.438e-01\Dipole=-0.5624846,-1.0985691,0.000013\Quadrupole=-1.6

 Normal termination of Gaussian 16 at Tue Apr  8 22:36:42 2025.
