 Gaussian 16, Revision C.01,

 ----------------------------------------------------------------------
 #t hf aug-cc-pvdz symm=none int=(grid=ultrafine) guess=(read,tcheck) s
 table=(opt,rrhf)
 ----------------------------------------------------------------------
 -----
 title
 -----
 Symbolic Z-matrix:
 Charge =  0 Multiplicity = 1

 SCF Done:  E(RHF) =  -382.520121724     A.U. after   15 cycles
 Normal termination of Gaussian 16 at Tue Apr  8 22:37:20 2025.
 Gaussian 16:  ES64L-G16RevC.01  3-Jul-2019

 ----------------------------------------------------------------------
 #t hf aug-cc-pvdz iop(5/13=1,5/36=2,99/5=2) pseudo=read geom=check gue
 ss=(read,tcheck) scf=(maxcycle=1)
 ----------------------------------------------------------------------
 -----
 title
 -----
 Structure from the checkpoint file:  "BDE49_expt_1098_mol1.chk"
 Charge =  0 Multiplicity = 1

                         Standard orientation:
 ---------------------------------------------------------------------
 Center     Atomic      Atomic             Coordinates (Angstroms)
 Number     Number       Type             X           Y           Z
 ---------------------------------------------------------------------
      1          6           0        0.432881    1.193210   -0.000032
      2          6           0       -0.203960   -0.053876   -0.000045
      3          6           0       -1.698397   -0.204835   -0.000096
      4          8           0       -2.209078   -1.307241    0.000041
      5          6           0       -2.560301    1.045341    0.000022
      6          1           0       -2.358647    1.660368    0.881906
      7          1           0       -3.606406    0.744299    0.000103
      8          1           0       -2.358796    1.660418   -0.881859
      9          6           0        1.823037    1.274896    0.000008
     10          6           0        2.589394    0.111694    0.000038
     11          6           0        1.963361   -1.135775    0.000028
     12          6           0        0.577285   -1.217191   -0.000013
     13          1           0        0.068733   -2.173326   -0.000023
     14          1           0        3.671798    0.176065    0.000070
     15          1           0        2.558983   -2.041622    0.000051
     16          1           0       -0.150068    2.106151   -0.000055
     17          1           0        2.307229    2.244794    0.000016
 ---------------------------------------------------------------------

 SCF Done:  E(RHF) =  -384.302194260     A.U. after    2 cycles

 The electronic state is 1-A.
 Alpha  occ. eigenvalues --  -21.04629 -11.52857 -11.50128 -11.44515 -11.43605
 Alpha  occ. eigenvalues --  -11.42025 -11.41609 -11.39673 -11.37388  -1.70667
 Alpha  occ. eigenvalues --   -1.35091  -1.14630  -1.10274  -1.07291  -0.90270
 Alpha  occ. eigenvalues --   -0.87159  -0.77587  -0.71451  -0.64687  -0.61865
 Alpha  occ. eigenvalues --   -0.59856  -0.59716  -0.58785  -0.53386  -0.51842
 Alpha  occ. eigenvalues --   -0.50202  -0.45666  -0.44442  -0.43408  -0.34002
 Alpha  occ. eigenvalues --   -0.32368  -0.28422
 Alpha virt. eigenvalues --    0.03009   0.04687   0.04994   0.05748   0.06241
 Alpha virt. eigenvalues --    0.06670   0.07418   0.08350   0.08498   0.09098
 Alpha virt. eigenvalues --    0.11101   0.11218   0.13039   0.13174   0.13312

 Mulliken charges:
               1
     1  C    0.931911
     2  C    3.082386
     3  C    3.556716
     4  O   -3.831388
     5  C   -5.273507
     6  H    1.259428
     7  H    1.122237
     8  H    1.259378
     9  C   -2.043755
    10  C   -3.327876
    11  C   -1.395766
    12  C   -3.465752
    13  H    1.788120
    14  H    1.521265
    15  H    1.473109
    16  H    1.850349
    17  H    1.493145
 Sum of Mulliken charges =  -0.00000

 Dipole moment (field-independent basis, Debye):
    X=              1.1427    Y=              1.0906    Z=              0.0001  Tot=              1.5796

 Test job not archived.
 1\1\GINC-SE435\SP\RHF\Aug-CC-pVDZ\C8H8O1\OHZDE\08-Apr-2025\0\\#t hf au
 g-cc-pvdz iop(5/13=1,5/36=2,99/5=2) pseudo=read geom=check guess=(read
 ,tcheck) scf=(maxcycle=1)\\title\\0,1\C,0,-0.432881,1.19321,0.000032\C
 ,0,0.20396,-0.053876,0.000045\C,0,1.698397,-0.204835,0.000096\O,0,2.20
 9078,-1.307241,-0.000041\C,0,2.560301,1.045341,-0.000022\H,0,2.358647,
 1.660368,-0.881906\H,0,3.606406,0.744299,-0.000103\H,0,2.358796,1.6604
 18,0.881859\C,0,-1.823037,1.274896,-0.000008\C,0,-2.589394,0.111694,-0
 .000038\C,0,-1.963361,-1.135775,-0.000028\C,0,-0.577285,-1.217191,0.00

 Normal termination of Gaussian 16 at Tue Apr  8 22:37:27 2025.
