 Gaussian 16, Revision C.01,

 ----------------------------------------------------------------------
 #t hf aug-cc-pvdz symm=none int=(grid=ultrafine) guess=(read,tcheck) s
 table=(opt,rrhf)
 ----------------------------------------------------------------------
 -----
 title
 -----
 Symbolic Z-matrix:
 Charge =  0 Multiplicity = 1

 SCF Done:  E(RHF) =  -316.035723594     A.U. after   12 cycles
 Normal termination of Gaussian 16 at Wed Apr  9 00:32:44 2025.
 Gaussian 16:  ES64L-G16RevC.01  3-Jul-2019

 ----------------------------------------------------------------------
 #t hf aug-cc-pvdz iop(5/13=1,5/36=2,99/5=2) pseudo=read geom=check gue
 ss=(read,tcheck) scf=(maxcycle=1)
 ----------------------------------------------------------------------
 -----
 title
 -----
 Structure from the checkpoint file:  "BDE49_nonexpt_387_mol1.chk"
 Charge =  0 Multiplicity = 1

                         Standard orientation:
 ---------------------------------------------------------------------
 Center     Atomic      Atomic             Coordinates (Angstroms)
 Number     Number       Type             X           Y           Z
 ---------------------------------------------------------------------
      1          9           0       -0.000147   -1.109125    1.135316
      2          9           0       -0.000147   -1.109125   -1.135316
      3          5           0       -0.000147   -0.451622   -0.000000
      4          6           0        0.000142    1.088470   -0.000000
      5          7           0        0.000360    2.241648    0.000000
 ---------------------------------------------------------------------

 SCF Done:  E(RHF) =  -317.200085549     A.U. after    2 cycles

 The electronic state is 1-A'.
 Alpha  occ. eigenvalues --  -29.30246 -29.30144 -15.81171 -11.42650  -7.77938
 Alpha  occ. eigenvalues --   -1.35037  -1.20696  -0.81157  -0.80050  -0.57646
 Alpha  occ. eigenvalues --   -0.57330  -0.52513  -0.49499  -0.49209  -0.47045
 Alpha  occ. eigenvalues --   -0.38226  -0.37100  -0.31416
 Alpha virt. eigenvalues --    0.01225   0.03365   0.05169   0.05454   0.07347
 Alpha virt. eigenvalues --    0.10333   0.10763   0.13915   0.15318   0.15484
 Alpha virt. eigenvalues --    0.16972   0.19753   0.20167   0.20703   0.22698

 Mulliken charges:
               1
     1  F   -0.257833
     2  F   -0.257833
     3  B    2.414218
     4  C    0.491337
     5  N   -2.389889
 Sum of Mulliken charges =   0.00000

 Dipole moment (field-independent basis, Debye):
    X=             -0.0006    Y=             -4.6509    Z=              0.0000  Tot=              4.6509

 Test job not archived.
 1\1\GINC-SE150\SP\RHF\Aug-CC-pVDZ\C1B1F2N1\OHZDE\09-Apr-2025\0\\#t hf
 aug-cc-pvdz iop(5/13=1,5/36=2,99/5=2) pseudo=read geom=check guess=(re
 ad,tcheck) scf=(maxcycle=1)\\title\\0,1\F,0,-1.109125,-1.135316,-0.000
 024\F,0,-1.109125,1.135316,-0.000024\B,0,-0.451622,0.,0.000077\C,0,1.0
 8847,0.,0.000025\N,0,2.241648,0.,-0.000016\\Version=ES64L-G16RevC.01\S
 tate=1-A'\HF=-317.2000855\RMSD=3.520e-01\Dipole=-1.8298059,0.,-0.00005
 14\Quadrupole=-3.3190036,4.4762064,-1.1572027,0.,0.000213,0.\PG=CS [SG
 (C1B1N1),X(F2)]\\@

 Normal termination of Gaussian 16 at Wed Apr  9 00:32:53 2025.
