 Gaussian 16, Revision C.01,

 ----------------------------------------------------------------------
 #t hf aug-cc-pvdz symm=none int=(grid=ultrafine) guess=(read,tcheck) s
 table=(opt,rrhf)
 ----------------------------------------------------------------------
 -----
 title
 -----
 Symbolic Z-matrix:
 Charge =  0 Multiplicity = 1

 SCF Done:  E(RHF) =  -832.964179547     A.U. after   15 cycles
 Normal termination of Gaussian 16 at Tue Apr  8 23:09:01 2025.
 Gaussian 16:  ES64L-G16RevC.01  3-Jul-2019

 ----------------------------------------------------------------------
 #t hf aug-cc-pvdz iop(5/13=1,5/36=2,99/5=2) pseudo=read geom=check gue
 ss=(read,tcheck) scf=(maxcycle=1)
 ----------------------------------------------------------------------
 -----
 title
 -----
 Structure from the checkpoint file:  "BDE49_expt_433_mol1.chk"
 Charge =  0 Multiplicity = 1

                         Standard orientation:
 ---------------------------------------------------------------------
 Center     Atomic      Atomic             Coordinates (Angstroms)
 Number     Number       Type             X           Y           Z
 ---------------------------------------------------------------------
      1         16           0       -1.467309    0.000001   -0.153122
      2          8           0       -1.875868    1.267571   -0.711980
      3          7           0       -1.938733   -0.000008    1.454087
      4          6           0        0.318030   -0.000000   -0.057421
      5          6           0        0.999144    1.215076   -0.031404
      6          6           0        2.389335    1.208665    0.040619
      7          6           0        3.082835   -0.000001    0.080209
      8          6           0        2.389334   -1.208666    0.040619
      9          6           0        0.999143   -1.215076   -0.031405
     10          1           0        2.930311   -2.147591    0.057771
     11          1           0        0.445364   -2.143383   -0.084358
     12          1           0        0.445366    2.143383   -0.084357
     13          1           0        2.930313    2.147590    0.057772
     14          1           0        4.165564   -0.000001    0.132900
     15          8           0       -1.875869   -1.267562   -0.711992
     16          1           0       -2.460945   -0.842090    1.668037
     17          1           0       -2.460932    0.842078    1.668051
 ---------------------------------------------------------------------

 SCF Done:  E(RHF) =  -835.213873807     A.U. after    2 cycles

 The electronic state is 1-A.
 Alpha  occ. eigenvalues --  -75.90425 -21.04946 -21.04897 -15.78394 -13.53554
 Alpha  occ. eigenvalues --  -13.42909 -13.37989 -11.53972 -11.45526 -11.45524
 Alpha  occ. eigenvalues --  -11.43424 -11.42734 -11.38733  -8.25644  -1.84437
 Alpha  occ. eigenvalues --   -1.66108  -1.37450  -1.34654  -1.13732  -1.11431
 Alpha  occ. eigenvalues --   -0.97314  -0.88912  -0.84876  -0.73900  -0.71364
 Alpha  occ. eigenvalues --   -0.67331  -0.62962  -0.61401  -0.60571  -0.59832
 Alpha  occ. eigenvalues --   -0.52449  -0.50924  -0.47699  -0.46354  -0.43780
 Alpha  occ. eigenvalues --   -0.39834  -0.38871  -0.37340  -0.36141  -0.34808
 Alpha  occ. eigenvalues --   -0.34481
 Alpha virt. eigenvalues --    0.02871   0.04256   0.04929   0.05095   0.05599
 Alpha virt. eigenvalues --    0.07179   0.07749   0.08753   0.09971   0.10298
 Alpha virt. eigenvalues --    0.11181   0.12749   0.13312   0.13637   0.13726

 Mulliken charges:
               1
     1  S    7.074021
     2  O   -2.842471
     3  N   -2.508970
     4  C    1.990774
     5  C   -3.219346
     6  C   -0.499366
     7  C   -2.738818
     8  C   -0.499341
     9  C   -3.219311
    10  H    1.486072
    11  H    1.883230
    12  H    1.883232
    13  H    1.486072
    14  H    1.550474
    15  O   -2.842476
    16  H    0.508111
    17  H    0.508114
 Sum of Mulliken charges =  -0.00000

 Dipole moment (field-independent basis, Debye):
    X=              1.5518    Y=             -0.0000    Z=              1.7551  Tot=              2.3427

 Test job not archived.
 1\1\GINC-SE457\SP\RHF\Aug-CC-pVDZ\C6H7N1O2S1\OHZDE\08-Apr-2025\0\\#t h
 f aug-cc-pvdz iop(5/13=1,5/36=2,99/5=2) pseudo=read geom=check guess=(
 read,tcheck) scf=(maxcycle=1)\\title\\0,1\S,0,-1.467309,0.000001,-0.15
 3122\O,0,-1.875868,1.267571,-0.71198\N,0,-1.938733,-0.000008,1.454087\
 C,0,0.31803,0.,-0.057421\C,0,0.999144,1.215076,-0.031404\C,0,2.389335,
 1.208665,0.040619\C,0,3.082835,-0.000001,0.080209\C,0,2.389334,-1.2086
 66,0.040619\C,0,0.999143,-1.215076,-0.031405\H,0,2.930311,-2.147591,0.
 057771\H,0,0.445364,-2.143383,-0.084358\H,0,0.445366,2.143383,-0.08435

 Normal termination of Gaussian 16 at Tue Apr  8 23:09:09 2025.
