 Gaussian 16, Revision C.01,

 ----------------------------------------------------------------------
 #t hf aug-cc-pvdz symm=none int=(grid=ultrafine) guess=(read,tcheck) s
 table=(opt,rrhf)
 ----------------------------------------------------------------------
 -----
 title
 -----
 Symbolic Z-matrix:
 Charge =  0 Multiplicity = 1

 SCF Done:  E(RHF) =  -342.575113247     A.U. after   15 cycles
 Normal termination of Gaussian 16 at Tue Apr  8 23:20:51 2025.
 Gaussian 16:  ES64L-G16RevC.01  3-Jul-2019

 ----------------------------------------------------------------------
 #t hf aug-cc-pvdz iop(5/13=1,5/36=2,99/5=2) pseudo=read geom=check gue
 ss=(read,tcheck) scf=(maxcycle=1)
 ----------------------------------------------------------------------
 -----
 title
 -----
 Structure from the checkpoint file:  "BDE49_nonexpt_1139_mol1.chk"
 Charge =  0 Multiplicity = 1

                         Standard orientation:
 ---------------------------------------------------------------------
 Center     Atomic      Atomic             Coordinates (Angstroms)
 Number     Number       Type             X           Y           Z
 ---------------------------------------------------------------------
      1          9           0        1.754089   -0.010976   -0.000031
      2          8           0        0.548735   -0.838033    0.000008
      3          6           0       -0.601739   -0.047863    0.000052
      4          8           0       -1.622063   -0.677957   -0.000022
      5          7           0       -0.411130    1.280973    0.000014
      6          1           0        0.513428    1.676224    0.000014
      7          1           0       -1.225261    1.870848   -0.000034
 ---------------------------------------------------------------------

 SCF Done:  E(RHF) =  -343.921250023     A.U. after    2 cycles

 The electronic state is 1-A.
 Alpha  occ. eigenvalues --  -29.32786 -21.20247 -21.06922 -15.82041 -11.56275
 Alpha  occ. eigenvalues --   -1.89135  -1.69297  -1.38922  -0.89228  -0.76982
 Alpha  occ. eigenvalues --   -0.76591  -0.64452  -0.56928  -0.55113  -0.47680
 Alpha  occ. eigenvalues --   -0.40337  -0.37710  -0.35161  -0.28024  -0.24855
 Alpha virt. eigenvalues --    0.03353   0.05640   0.10738   0.10956   0.11846
 Alpha virt. eigenvalues --    0.12792   0.15135   0.17311   0.18913   0.19558
 Alpha virt. eigenvalues --    0.21220   0.23197   0.23767   0.25413   0.26147

 Mulliken charges:
               1
     1  F   -0.114699
     2  O   -1.432655
     3  C    5.149683
     4  O   -2.576882
     5  N   -2.264253
     6  H    0.538234
     7  H    0.700572
 Sum of Mulliken charges =  -0.00000

 Dipole moment (field-independent basis, Debye):
    X=              2.2450    Y=              3.0731    Z=             -0.0001  Tot=              3.8058

 Test job not archived.
 1\1\GINC-SE333\SP\RHF\Aug-CC-pVDZ\C1H2F1N1O2\OHZDE\08-Apr-2025\0\\#t h
 f aug-cc-pvdz iop(5/13=1,5/36=2,99/5=2) pseudo=read geom=check guess=(
 read,tcheck) scf=(maxcycle=1)\\title\\0,1\F,0,-1.754089,-0.010976,0.00
 0031\O,0,-0.548735,-0.838033,-0.000008\C,0,0.601739,-0.047863,-0.00005
 2\O,0,1.622063,-0.677957,0.000022\N,0,0.41113,1.280973,-0.000014\H,0,-
 0.513428,1.676224,-0.000014\H,0,1.225261,1.870848,0.000034\\Version=ES
 64L-G16RevC.01\State=1-A\HF=-343.92125\RMSD=4.636e-02\Dipole=-0.883255
 8,1.2090411,0.0000357\Quadrupole=-0.5274177,1.5672454,-1.0398277,1.827

 Normal termination of Gaussian 16 at Tue Apr  8 23:20:53 2025.
