 Gaussian 16, Revision C.01,

 ----------------------------------------------------------------------
 #t hf aug-cc-pvdz symm=none int=(grid=ultrafine) guess=(read,tcheck) s
 table=opt
 ----------------------------------------------------------------------
 -----
 title
 -----
 Symbolic Z-matrix:
 Charge =  0 Multiplicity = 2

 SCF Done:  E(UHF) =  -848.540374636     A.U. after   15 cycles
 Normal termination of Gaussian 16 at Tue Apr  8 23:48:13 2025.
 Gaussian 16:  ES64L-G16RevC.01  3-Jul-2019

 ----------------------------------------------------------------------
 #t hf aug-cc-pvdz iop(5/13=1,5/36=2,99/5=2) pseudo=read geom=check gue
 ss=(read,tcheck) scf=(maxcycle=1)
 ----------------------------------------------------------------------
 -----
 title
 -----
 Structure from the checkpoint file:  "BDE49_nonexpt_1808_mol2.chk"
 Charge =  0 Multiplicity = 2

                         Standard orientation:
 ---------------------------------------------------------------------
 Center     Atomic      Atomic             Coordinates (Angstroms)
 Number     Number       Type             X           Y           Z
 ---------------------------------------------------------------------
      1         14           0       -0.572423    0.547547   -0.136852
      2          9           0       -1.594641   -0.678125    0.058755
      3         17           0        1.362487   -0.179516    0.023198
      4          1           0       -0.796581    1.489237    0.992754
 ---------------------------------------------------------------------

 SCF Done:  E(UHF) =  -849.253851372     A.U. after    2 cycles

 The electronic state is 2-A.
 Alpha  occ. eigenvalues --  -99.90243 -76.32035 -29.29084 -10.47680  -9.67598
 Alpha  occ. eigenvalues --   -9.66819  -9.66798  -5.66155  -2.29921  -2.26793
 Alpha  occ. eigenvalues --   -2.25399  -1.31152  -0.89261  -0.64119  -0.58961
 Alpha  occ. eigenvalues --   -0.56106  -0.52895  -0.42646  -0.36085  -0.35209
 Alpha  occ. eigenvalues --   -0.26767
 Alpha virt. eigenvalues --    0.04866   0.05208   0.06288   0.07396   0.11490
 Alpha virt. eigenvalues --    0.13353   0.13815   0.14761   0.15564   0.15982
 Alpha virt. eigenvalues --    0.18095   0.22181   0.24121   0.25135   0.28033

  Beta  occ. eigenvalues --  -99.90129 -76.31449 -29.28795 -10.47554  -9.67330
  Beta  occ. eigenvalues --   -9.66743  -9.66547  -5.65175  -2.29267  -2.26209
  Beta  occ. eigenvalues --   -2.22025  -1.30190  -0.85969  -0.62716  -0.57353
  Beta  occ. eigenvalues --   -0.54804  -0.51681  -0.37385  -0.35872  -0.34702
  Beta virt. eigenvalues --    0.02578   0.05295   0.05837   0.06676   0.08554
  Beta virt. eigenvalues --    0.12172   0.14268   0.15394   0.15800   0.16135
  Beta virt. eigenvalues --    0.16556   0.19983   0.23001   0.24758   0.25558

 Mulliken charges and spin densities:
               1          2
     1  Si   3.388406   0.838555
     2  F   -0.840960   0.009412
     3  Cl  -0.817002   0.055349
     4  H   -1.730445   0.096684
 Sum of Mulliken charges =  -0.00000   1.00000

 Dipole moment (field-independent basis, Debye):
    X=             -2.9678    Y=             -1.1285    Z=             -0.3019  Tot=              3.1894
                          Isotropic Fermi Contact Couplings
        Atom                 a.u.       MegaHertz       Gauss      10(-4) cm-1
     1  Si(29)             0.65071    -578.30177    -206.35245    -192.90071
     2  F(19)              0.04751     199.91428      71.33439      66.68423
     3  Cl(35)             0.08892      38.98753      13.91172      13.00484
     4  H(1)               0.03071     137.27080      48.98164      45.78861
 --------------------------------------------------------
       Center         ----  Spin Dipole Couplings  ----
                      3XX-RR        3YY-RR        3ZZ-RR
 --------------------------------------------------------

 Normal termination of Gaussian 16 at Tue Apr  8 23:48:15 2025.
