 Gaussian 16, Revision C.01,

 ----------------------------------------------------------------------
 #t hf aug-cc-pvdz symm=none int=(grid=ultrafine) guess=(read,tcheck) s
 table=opt
 ----------------------------------------------------------------------
 -----
 title
 -----
 Symbolic Z-matrix:
 Charge =  0 Multiplicity = 2

 SCF Done:  E(UHF) =  -331.537849145     A.U. after   21 cycles
 Normal termination of Gaussian 16 at Wed Apr  9 00:33:07 2025.
 Gaussian 16:  ES64L-G16RevC.01  3-Jul-2019

 ----------------------------------------------------------------------
 #t hf aug-cc-pvdz iop(5/13=1,5/36=2,99/5=2) pseudo=read geom=check gue
 ss=(read,tcheck) scf=(maxcycle=1)
 ----------------------------------------------------------------------
 -----
 title
 -----
 Structure from the checkpoint file:  "BDE49_nonexpt_390_mol2.chk"
 Charge =  0 Multiplicity = 2

                         Standard orientation:
 ---------------------------------------------------------------------
 Center     Atomic      Atomic             Coordinates (Angstroms)
 Number     Number       Type             X           Y           Z
 ---------------------------------------------------------------------
      1          9           0       -2.516023   -0.320319    0.309321
      2          5           0       -1.499599   -0.345572   -0.513456
      3          6           0       -0.049866    0.174473   -0.146051
      4          8           0        0.007901    1.396731   -0.024468
      5          7           0        1.016517   -0.661095   -0.075918
      6          6           0        2.375411   -0.192902    0.161084
      7          1           0        0.859282   -1.642618   -0.245515
      8          1           0        2.331744    0.885881    0.299101
      9          1           0        3.022026   -0.416209   -0.692221
     10          1           0        2.797052   -0.651934    1.059000
 ---------------------------------------------------------------------

 SCF Done:  E(UHF) =  -332.873859600     A.U. after    2 cycles

 The electronic state is 2-A.
 Alpha  occ. eigenvalues --  -29.27833 -21.03725 -15.78009 -11.46691 -11.40720
 Alpha  occ. eigenvalues --   -7.70632  -1.71372  -1.39990  -1.07275  -0.99378
 Alpha  occ. eigenvalues --   -0.80790  -0.72424  -0.62934  -0.60048  -0.56008
 Alpha  occ. eigenvalues --   -0.53830  -0.49892  -0.48012  -0.44378  -0.39935
 Alpha  occ. eigenvalues --   -0.32497  -0.31390  -0.21373
 Alpha virt. eigenvalues --    0.02797   0.03728   0.04652   0.05787   0.06456
 Alpha virt. eigenvalues --    0.07362   0.07577   0.09883   0.11954   0.13363
 Alpha virt. eigenvalues --    0.14234   0.14392   0.15200   0.17004   0.17811

  Beta  occ. eigenvalues --  -29.27536 -21.03561 -15.77989 -11.46402 -11.40721
  Beta  occ. eigenvalues --   -7.68767  -1.70974  -1.39845  -1.05447  -0.97256
  Beta  occ. eigenvalues --   -0.80265  -0.71441  -0.62649  -0.59718  -0.55827
  Beta  occ. eigenvalues --   -0.51087  -0.49482  -0.43816  -0.42211  -0.38675
  Beta  occ. eigenvalues --   -0.31472  -0.28840
  Beta virt. eigenvalues --    0.02624   0.03767   0.04329   0.05823   0.06210
  Beta virt. eigenvalues --    0.07354   0.07599   0.08844   0.11515   0.12910
  Beta virt. eigenvalues --    0.14069   0.14377   0.15112   0.15267   0.17774

 Mulliken charges and spin densities:
               1          2
     1  F   -0.560261  -0.078106
     2  B    0.914409   1.035908
     3  C    3.426232  -0.101080
     4  O   -2.734735   0.091715
     5  N   -2.714458   0.052251
     6  C   -3.139778  -0.000424
     7  H    0.806462   0.002869
     8  H    1.385861  -0.001751
     9  H    1.312290   0.000144
    10  H    1.303979  -0.001525
 Sum of Mulliken charges =   0.00000   1.00000

 Dipole moment (field-independent basis, Debye):
    X=             -0.9407    Y=             -1.8073    Z=              2.3763  Tot=              3.1302
                          Isotropic Fermi Contact Couplings
        Atom                 a.u.       MegaHertz       Gauss      10(-4) cm-1
     1  F(19)              0.05039     212.00977      75.65036      70.71885
     2  B(11)              0.18530     265.78853      94.83996      88.65751
     3  C(13)              0.06386      71.79315      25.61758      23.94762
     4  O(17)              0.00991      -6.00990      -2.14448      -2.00469
     5  N(14)             -0.00147      -0.47500      -0.16949      -0.15844
     6  C(13)              0.00077       0.86362       0.30816       0.28807
     7  H(1)              -0.00023      -1.02151      -0.36450      -0.34074
     8  H(1)               0.00009       0.39232       0.13999       0.13086

 Normal termination of Gaussian 16 at Wed Apr  9 00:33:10 2025.
