 Gaussian 16, Revision C.01,

 ----------------------------------------------------------------------
 #t hf aug-cc-pvdz symm=none int=(grid=ultrafine) guess=(read,tcheck) s
 table=(opt,rrhf)
 ----------------------------------------------------------------------
 -----
 title
 -----
 Symbolic Z-matrix:
 Charge =  0 Multiplicity = 1

 SCF Done:  E(RHF) =  -1125.35812592     A.U. after   13 cycles
 Normal termination of Gaussian 16 at Tue Apr  8 23:53:22 2025.
 Gaussian 16:  ES64L-G16RevC.01  3-Jul-2019

 ----------------------------------------------------------------------
 #t hf aug-cc-pvdz iop(5/13=1,5/36=2,99/5=2) pseudo=read geom=check gue
 ss=(read,tcheck) scf=(maxcycle=1)
 ----------------------------------------------------------------------
 -----
 title
 -----
 Structure from the checkpoint file:  "BDE49_nonexpt_1927_mol1.chk"
 Charge =  0 Multiplicity = 1

                         Standard orientation:
 ---------------------------------------------------------------------
 Center     Atomic      Atomic             Coordinates (Angstroms)
 Number     Number       Type             X           Y           Z
 ---------------------------------------------------------------------
      1         14           0        2.472431    0.027209   -0.016219
      2          6           0        0.691229    0.683189    0.031744
      3         16           0       -0.508214   -0.695402    0.029303
      4          1           0        3.379643    1.197585    0.015488
      5          1           0        2.703335   -0.745941   -1.255598
      6         16           0       -2.370876    0.249127   -0.103142
      7          1           0        2.738420   -0.832482    1.158132
      8          1           0       -2.597057    0.437376    1.213529
      9          1           0        0.522456    1.313811   -0.844092
     10          1           0        0.557236    1.289975    0.930565
 ---------------------------------------------------------------------

 SCF Done:  E(RHF) =  -1126.18682498     A.U. after    2 cycles

 The electronic state is 1-A.
 Alpha  occ. eigenvalues --  -76.22684 -75.71605 -75.71239 -13.14478 -13.12693
 Alpha  occ. eigenvalues --  -13.09208 -13.07821 -13.03912 -13.03681 -11.38993
 Alpha  occ. eigenvalues --   -8.05316  -8.05038  -5.56164  -2.19688  -2.18392
 Alpha  occ. eigenvalues --   -2.18307  -1.24278  -1.07710  -0.91505  -0.75956
 Alpha  occ. eigenvalues --   -0.61221  -0.54850  -0.49560  -0.47477  -0.47185
 Alpha  occ. eigenvalues --   -0.43599  -0.34081  -0.26141  -0.24737
 Alpha virt. eigenvalues --    0.02907   0.03288   0.04805   0.05222   0.05429
 Alpha virt. eigenvalues --    0.07821   0.08060   0.09031   0.09712   0.10092
 Alpha virt. eigenvalues --    0.11153   0.12645   0.13686   0.14440   0.15314

 Mulliken charges:
               1
     1  Si   6.143849
     2  C   -4.210329
     3  S    0.206275
     4  H   -1.652559
     5  H   -1.691047
     6  S   -1.283883
     7  H   -1.688033
     8  H    1.212972
     9  H    1.499680
    10  H    1.463077
 Sum of Mulliken charges =  -0.00000

 Dipole moment (field-independent basis, Debye):
    X=             -0.4267    Y=             -0.2131    Z=             -0.8234  Tot=              0.9516

 Test job not archived.
 1\1\GINC-SE249\SP\RHF\Aug-CC-pVDZ\C1H6S2Si1\OHZDE\08-Apr-2025\0\\#t hf
  aug-cc-pvdz iop(5/13=1,5/36=2,99/5=2) pseudo=read geom=check guess=(r
 ead,tcheck) scf=(maxcycle=1)\\title\\0,1\Si,0,2.472431,0.027209,-0.016
 219\C,0,0.691229,0.683189,0.031744\S,0,-0.508214,-0.695402,0.029303\H,
 0,3.379643,1.197585,0.015488\H,0,2.703335,-0.745941,-1.255598\S,0,-2.3
 70876,0.249127,-0.103142\H,0,2.73842,-0.832482,1.158132\H,0,-2.597057,
 0.437376,1.213529\H,0,0.522456,1.313811,-0.844092\H,0,0.557236,1.28997
 5,0.930565\\Version=ES64L-G16RevC.01\State=1-A\HF=-1126.186825\RMSD=1.

 Normal termination of Gaussian 16 at Tue Apr  8 23:53:25 2025.
