 Gaussian 16, Revision C.01,

 ----------------------------------------------------------------------
 #t hf aug-cc-pvdz symm=none int=(grid=ultrafine) guess=(read,tcheck) s
 table=opt
 ----------------------------------------------------------------------
 -----
 title
 -----
 Symbolic Z-matrix:
 Charge =  0 Multiplicity = 2

 SCF Done:  E(UHF) =  -786.351242808     A.U. after   18 cycles
 Normal termination of Gaussian 16 at Wed Apr  9 00:08:49 2025.
 Gaussian 16:  ES64L-G16RevC.01  3-Jul-2019

 ----------------------------------------------------------------------
 #t hf aug-cc-pvdz iop(5/13=1,5/36=2,99/5=2) pseudo=read geom=check gue
 ss=(read,tcheck) scf=(maxcycle=1)
 ----------------------------------------------------------------------
 -----
 title
 -----
 Structure from the checkpoint file:  "BDE49_nonexpt_229_mol2.chk"
 Charge =  0 Multiplicity = 2

                         Standard orientation:
 ---------------------------------------------------------------------
 Center     Atomic      Atomic             Coordinates (Angstroms)
 Number     Number       Type             X           Y           Z
 ---------------------------------------------------------------------
      1          5           0        1.403536    0.519450    0.000162
      2         17           0        2.995809   -0.211067    0.000466
      3          8           0        0.298255   -0.261319   -0.000332
      4          6           0       -0.978824    0.258472   -0.000623
      5          8           0       -1.257372    1.419289   -0.000019
      6          8           0       -1.810102   -0.774036   -0.000398
      7          6           0       -3.211406   -0.426654    0.000074
      8          1           0       -3.455913    0.152531    0.890830
      9          1           0       -3.738912   -1.376647    0.000200
     10          1           0       -3.456477    0.152612   -0.890474
 ---------------------------------------------------------------------

 SCF Done:  E(UHF) =  -787.925687845     A.U. after    2 cycles

 The electronic state is 2-A.
 Alpha  occ. eigenvalues --  -99.90446 -21.12367 -21.10403 -21.07888 -11.57132
 Alpha  occ. eigenvalues --  -11.43832 -10.47718  -9.67778  -9.67150  -9.66964
 Alpha  occ. eigenvalues --   -7.72742  -1.94443  -1.77862  -1.69830  -1.34138
 Alpha  occ. eigenvalues --   -1.05314  -0.86960  -0.74051  -0.68682  -0.67292
 Alpha  occ. eigenvalues --   -0.65104  -0.60077  -0.58557  -0.55179  -0.54890
 Alpha  occ. eigenvalues --   -0.53343  -0.45153  -0.42940  -0.35194  -0.34060
 Alpha  occ. eigenvalues --   -0.33280
 Alpha virt. eigenvalues --    0.03197   0.04178   0.04623   0.04906   0.05925
 Alpha virt. eigenvalues --    0.06187   0.07449   0.08143   0.11291   0.13087
 Alpha virt. eigenvalues --    0.13812   0.13937   0.15201   0.15699   0.15841

  Beta  occ. eigenvalues --  -99.90330 -21.12372 -21.10255 -21.07876 -11.57101
  Beta  occ. eigenvalues --  -11.43833 -10.47581  -9.67466  -9.66951  -9.66901
  Beta  occ. eigenvalues --   -7.70502  -1.94198  -1.77500  -1.69776  -1.32998
  Beta  occ. eigenvalues --   -1.05183  -0.85912  -0.73496  -0.67282  -0.65735
  Beta  occ. eigenvalues --   -0.64158  -0.59965  -0.57173  -0.55070  -0.54245
  Beta  occ. eigenvalues --   -0.50587  -0.44789  -0.42903  -0.35219  -0.33118
  Beta virt. eigenvalues --    0.02216   0.03883   0.04525   0.04874   0.05580
  Beta virt. eigenvalues --    0.05999   0.06189   0.09160   0.10610   0.12066
  Beta virt. eigenvalues --    0.13366   0.13954   0.13980   0.15226   0.15867

 Mulliken charges and spin densities:
               1          2
     1  B    1.324312   1.045219
     2  Cl  -0.968604   0.119537
     3  O   -2.885704  -0.370507
     4  C    6.860831   0.208383
     5  O   -2.255292  -0.018065
     6  O   -3.009898  -0.001798
     7  C   -3.001353   0.015282
     8  H    1.287469   0.001175
     9  H    1.361014  -0.000388
    10  H    1.287226   0.001162
 Sum of Mulliken charges =  -0.00000   1.00000

 Dipole moment (field-independent basis, Debye):
    X=             -2.8091    Y=             -1.1482    Z=              0.0002  Tot=              3.0347
                          Isotropic Fermi Contact Couplings
        Atom                 a.u.       MegaHertz       Gauss      10(-4) cm-1
     1  B(11)              0.36250     519.95960     185.53451     173.43985
     2  Cl(35)             0.17101      74.98170      26.75533      25.01120
     3  O(17)              0.02194     -13.29911      -4.74545      -4.43610
     4  C(13)              0.00591       6.64849       2.37235       2.21770
     5  O(17)              0.00305      -1.85003      -0.66014      -0.61710
     6  O(17)              0.00185      -1.12119      -0.40007      -0.37399
     7  C(13)             -0.00025      -0.27648      -0.09865      -0.09222
     8  H(1)              -0.00001      -0.02715      -0.00969      -0.00906

 1\1\GINC-SE074\SP\UHF\Aug-CC-pVDZ\C2H3B1Cl1O3(2)\OHZDE\09-Apr-2025\0\\
 #t hf aug-cc-pvdz iop(5/13=1,5/36=2,99/5=2) pseudo=read geom=check gue
 ss=(read,tcheck) scf=(maxcycle=1)\\title\\0,2\B,0,-1.403536,0.51945,-0
 .000162\Cl,0,-2.995809,-0.211067,-0.000466\O,0,-0.298255,-0.261319,0.0
 00332\C,0,0.978824,0.258472,0.000623\O,0,1.257372,1.419289,0.000019\O,
 0,1.810102,-0.774036,0.000398\C,0,3.211406,-0.426654,-0.000074\H,0,3.4
 55913,0.152531,-0.89083\H,0,3.738912,-1.376647,-0.0002\H,0,3.456477,0.
 152612,0.890474\\Version=ES64L-G16RevC.01\State=2-A\HF=-787.9256878\S2

 Normal termination of Gaussian 16 at Wed Apr  9 00:08:53 2025.
