 Gaussian 16, Revision C.01,

 ----------------------------------------------------------------------
 #t hf aug-cc-pvdz symm=none int=(grid=ultrafine) guess=(read,tcheck) s
 table=opt
 ----------------------------------------------------------------------
 -----
 title
 -----
 Symbolic Z-matrix:
 Charge =  0 Multiplicity = 2

 SCF Done:  E(UHF) =  -524.874375893     A.U. after   15 cycles
 Normal termination of Gaussian 16 at Tue Apr  8 23:47:07 2025.
 Gaussian 16:  ES64L-G16RevC.01  3-Jul-2019

 ----------------------------------------------------------------------
 #t hf aug-cc-pvdz iop(5/13=1,5/36=2,99/5=2) pseudo=read geom=check gue
 ss=(read,tcheck) scf=(maxcycle=1)
 ----------------------------------------------------------------------
 -----
 title
 -----
 Structure from the checkpoint file:  "BDE49_nonexpt_1742_mol2.chk"
 Charge =  0 Multiplicity = 2

                         Standard orientation:
 ---------------------------------------------------------------------
 Center     Atomic      Atomic             Coordinates (Angstroms)
 Number     Number       Type             X           Y           Z
 ---------------------------------------------------------------------
      1         14           0       -2.627362   -0.499653    0.203947
      2          6           0       -0.865764   -0.890751   -0.378256
      3          6           0        0.233391    0.005930    0.230865
      4          1           0       -0.839172   -0.819472   -1.472582
      5          1           0       -0.657900   -1.940883   -0.140614
      6          6           0       -3.183940    1.241884   -0.274164
      7          1           0       -2.541043    2.000559    0.186586
      8          1           0       -4.208379    1.426543    0.058902
      9          1           0       -3.151148    1.383667   -1.357743
     10          6           0        1.646873   -0.359191   -0.244535
     11          1           0        0.195096   -0.059359    1.324900
     12          1           0        0.034769    1.055324   -0.017899
     13          6           0        2.743730    0.528195    0.355440
     14          1           0        1.686362   -0.295199   -1.339600
     15          1           0        1.850690   -1.408104    0.006235
     16          6           0        4.150615    0.157079   -0.122575
     17          1           0        2.701127    0.464029    1.449449
     18          1           0        2.537674    1.575856    0.104582
     19          1           0        4.399769   -0.874557    0.144847
     20          1           0        4.908504    0.807414    0.322710
     21          1           0        4.234916    0.245320   -1.210249
     22          1           0       -2.717624   -0.664876    1.684571
 ---------------------------------------------------------------------

 SCF Done:  E(UHF) =  -526.258170103     A.U. after    2 cycles

 The electronic state is 2-A.
 Alpha  occ. eigenvalues --  -76.20515 -11.42075 -11.40780 -11.37671 -11.35733
 Alpha  occ. eigenvalues --  -11.34848 -11.33830  -5.54101  -2.18322  -2.16777
 Alpha  occ. eigenvalues --   -2.15759  -1.25499  -1.12233  -1.03570  -0.98159
 Alpha  occ. eigenvalues --   -0.86974  -0.82110  -0.69164  -0.65602  -0.59951
 Alpha  occ. eigenvalues --   -0.58256  -0.56023  -0.55603  -0.54617  -0.52958
 Alpha  occ. eigenvalues --   -0.49484  -0.47462  -0.45786  -0.45088  -0.44045
 Alpha  occ. eigenvalues --   -0.42455  -0.36676  -0.24790
 Alpha virt. eigenvalues --    0.03828   0.04561   0.05205   0.05317   0.05623
 Alpha virt. eigenvalues --    0.05893   0.05919   0.06417   0.07022   0.07505
 Alpha virt. eigenvalues --    0.07625   0.08124   0.08695   0.09254   0.09805

  Beta  occ. eigenvalues --  -76.19984 -11.42025 -11.40750 -11.37648 -11.35703
  Beta  occ. eigenvalues --  -11.34798 -11.33792  -5.53269  -2.17698  -2.16044
  Beta  occ. eigenvalues --   -2.12435  -1.25347  -1.11972  -1.02952  -0.97986
  Beta  occ. eigenvalues --   -0.86720  -0.82051  -0.65780  -0.65212  -0.59886
  Beta  occ. eigenvalues --   -0.58007  -0.55486  -0.55191  -0.54270  -0.52910
  Beta  occ. eigenvalues --   -0.49235  -0.47415  -0.45524  -0.45077  -0.43860
  Beta  occ. eigenvalues --   -0.41528  -0.35752
  Beta virt. eigenvalues --    0.03429   0.04569   0.05039   0.05250   0.05542
  Beta virt. eigenvalues --    0.05734   0.05896   0.06402   0.07067   0.07083
  Beta virt. eigenvalues --    0.07669   0.07949   0.08347   0.09280   0.09634

 Mulliken charges and spin densities:
               1          2
     1  Si   3.905309   1.233588
     2  C   -4.158477  -0.116279
     3  C   -2.646070   0.044871
     4  H    1.464549  -0.046636
     5  H    1.428118   0.012054
     6  C   -5.153820  -0.047271
     7  H    1.313751   0.006771
     8  H    1.338472  -0.036900
     9  H    1.278979  -0.019348
    10  C   -2.500108  -0.003283
    11  H    1.641763  -0.021502
    12  H    1.734303  -0.006714
    13  C   -2.987309  -0.008547
    14  H    1.502524   0.001147
    15  H    1.526533  -0.003120
    16  C   -4.460108   0.000491
    17  H    1.433735   0.000295
    18  H    1.455214   0.000903
    19  H    1.329529   0.000899
    20  H    1.074101   0.000120
    21  H    1.327887   0.000488
    22  H   -1.848875   0.007973
 Sum of Mulliken charges =   0.00000   1.00000

 Dipole moment (field-independent basis, Debye):
    X=              0.6505    Y=              0.4838    Z=             -0.5542  Tot=              0.9820
                          Isotropic Fermi Contact Couplings
        Atom                 a.u.       MegaHertz       Gauss      10(-4) cm-1
     1  Si(29)             0.42881    -381.09794    -135.98522    -127.12059
     2  C(13)              0.01709      19.21191       6.85529       6.40840
     3  C(13)              0.01656      18.61467       6.64218       6.20918
     4  H(1)               0.00014       0.63071       0.22505       0.21038
     5  H(1)               0.00045       2.02676       0.72320       0.67605
     6  C(13)              0.01810      20.34287       7.25884       6.78565
     7  H(1)               0.00752      33.61506      11.99469      11.21278
     8  H(1)               0.00040       1.77984       0.63509       0.59369

 Normal termination of Gaussian 16 at Tue Apr  8 23:47:18 2025.
