 Gaussian 16, Revision C.01,

 ----------------------------------------------------------------------
 #t hf aug-cc-pvdz symm=none int=(grid=ultrafine) guess=(read,tcheck) s
 table=(opt,rrhf)
 ----------------------------------------------------------------------
 -----
 title
 -----
 Symbolic Z-matrix:
 Charge =  0 Multiplicity = 1

 SCF Done:  E(RHF) =  -476.770100465     A.U. after   12 cycles
 Normal termination of Gaussian 16 at Tue Apr  8 22:46:28 2025.
 Gaussian 16:  ES64L-G16RevC.01  3-Jul-2019

 ----------------------------------------------------------------------
 #t hf aug-cc-pvdz iop(5/13=1,5/36=2,99/5=2) pseudo=read geom=check gue
 ss=(read,tcheck) scf=(maxcycle=1)
 ----------------------------------------------------------------------
 -----
 title
 -----
 Structure from the checkpoint file:  "BDE49_expt_1546_mol1.chk"
 Charge =  0 Multiplicity = 1

                         Standard orientation:
 ---------------------------------------------------------------------
 Center     Atomic      Atomic             Coordinates (Angstroms)
 Number     Number       Type             X           Y           Z
 ---------------------------------------------------------------------
      1         16           0       -1.113776   -0.232816   -0.000001
      2          6           0        0.495189    0.671675    0.000001
      3          6           0        1.643155   -0.334376    0.000001
      4          1           0        0.540899    1.304978    0.887079
      5          1           0        0.540900    1.304979   -0.887076
      6          1           0        1.609596   -0.974619    0.884978
      7          1           0        2.601436    0.192185    0.000002
      8          1           0        1.609597   -0.974618   -0.884977
      9          1           0       -1.912083    0.848352   -0.000001
 ---------------------------------------------------------------------

 SCF Done:  E(RHF) =  -477.418663520     A.U. after    2 cycles

 The electronic state is 1-A.
 Alpha  occ. eigenvalues --  -75.67977 -13.12251 -13.06481 -13.00202 -11.41761
 Alpha  occ. eigenvalues --  -11.37122  -8.01843  -1.22407  -1.04146  -0.86479
 Alpha  occ. eigenvalues --   -0.63233  -0.60645  -0.52576  -0.50434  -0.46231
 Alpha  occ. eigenvalues --   -0.37702  -0.23466
 Alpha virt. eigenvalues --    0.03005   0.04449   0.05455   0.05626   0.06514
 Alpha virt. eigenvalues --    0.07650   0.10202   0.12197   0.12645   0.14770
 Alpha virt. eigenvalues --    0.14847   0.15489   0.17026   0.17962   0.19101

 Mulliken charges:
               1
     1  S   -0.292591
     2  C   -3.655790
     3  C   -3.406171
     4  H    1.356770
     5  H    1.356771
     6  H    1.289151
     7  H    1.168882
     8  H    1.289151
     9  H    0.893826
 Sum of Mulliken charges =  -0.00000

 Dipole moment (field-independent basis, Debye):
    X=              0.8758    Y=             -0.4842    Z=              0.0000  Tot=              1.0007

 Test job not archived.
 1\1\GINC-SE227\SP\RHF\Aug-CC-pVDZ\C2H6S1\OHZDE\08-Apr-2025\0\\#t hf au
 g-cc-pvdz iop(5/13=1,5/36=2,99/5=2) pseudo=read geom=check guess=(read
 ,tcheck) scf=(maxcycle=1)\\title\\0,1\S,0,-1.113776,-0.232816,-0.00000
 1\C,0,0.495189,0.671675,0.000001\C,0,1.643155,-0.334376,0.000001\H,0,0
 .540899,1.304978,0.887079\H,0,0.5409,1.304979,-0.887076\H,0,1.609596,-
 0.974619,0.884978\H,0,2.601436,0.192185,0.000002\H,0,1.609597,-0.97461
 8,-0.884977\H,0,-1.912083,0.848352,-0.000001\\Version=ES64L-G16RevC.01
 \State=1-A\HF=-477.4186635\RMSD=1.633e-01\Dipole=0.3445668,-0.1904793,

 Normal termination of Gaussian 16 at Tue Apr  8 22:46:30 2025.
