 Gaussian 16, Revision C.01,

 ----------------------------------------------------------------------
 #t hf aug-cc-pvdz symm=none int=(grid=ultrafine) guess=(read,tcheck) s
 table=opt
 ----------------------------------------------------------------------
 -----
 title
 -----
 Symbolic Z-matrix:
 Charge =  0 Multiplicity = 2

 SCF Done:  E(UHF) =  -700.659406325     A.U. after   17 cycles
 Normal termination of Gaussian 16 at Tue Apr  8 23:53:35 2025.
 Gaussian 16:  ES64L-G16RevC.01  3-Jul-2019

 ----------------------------------------------------------------------
 #t hf aug-cc-pvdz iop(5/13=1,5/36=2,99/5=2) pseudo=read geom=check gue
 ss=(read,tcheck) scf=(maxcycle=1)
 ----------------------------------------------------------------------
 -----
 title
 -----
 Structure from the checkpoint file:  "BDE49_nonexpt_1934_mol2.chk"
 Charge =  0 Multiplicity = 2

                         Standard orientation:
 ---------------------------------------------------------------------
 Center     Atomic      Atomic             Coordinates (Angstroms)
 Number     Number       Type             X           Y           Z
 ---------------------------------------------------------------------
      1          6           0        0.848727    1.552015   -0.105772
      2         16           0        0.467210   -0.130095    0.055895
      3          8           0        1.382076   -0.887983   -0.750136
      4          8           0       -0.941062   -0.241068   -0.729827
      5          8           0        0.261345   -0.421284    1.450246
      6          6           0       -2.153061    0.100117   -0.015115
      7          1           0       -2.962625   -0.213036   -0.670945
      8          1           0       -2.208479    1.177814    0.154961
      9          1           0       -2.197660   -0.436133    0.931651
     10          1           0        0.799613    1.997429   -1.089434
     11          1           0        1.300923    2.045339    0.742506
 ---------------------------------------------------------------------

 SCF Done:  E(UHF) =  -702.229986006     A.U. after    2 cycles

 The electronic state is 2-A.
 Alpha  occ. eigenvalues --  -75.92331 -21.10421 -21.06282 -21.05874 -13.55537
 Alpha  occ. eigenvalues --  -13.46311 -13.38701 -11.45209 -11.43863  -8.27615
 Alpha  occ. eigenvalues --   -1.91391  -1.74105  -1.66872  -1.16138  -1.03750
 Alpha  occ. eigenvalues --   -0.87386  -0.68738  -0.67212  -0.65516  -0.61916
 Alpha  occ. eigenvalues --   -0.58381  -0.53888  -0.47197  -0.42392  -0.41722
 Alpha  occ. eigenvalues --   -0.40576  -0.37511  -0.37468  -0.35652
 Alpha virt. eigenvalues --    0.02444   0.04065   0.05027   0.05704   0.06539
 Alpha virt. eigenvalues --    0.09650   0.11405   0.12302   0.12736   0.13216
 Alpha virt. eigenvalues --    0.14247   0.14546   0.15619   0.16026   0.17429

  Beta  occ. eigenvalues --  -75.92414 -21.10377 -21.06252 -21.05635 -13.55616
  Beta  occ. eigenvalues --  -13.46438 -13.38971 -11.43891 -11.42883  -8.27723
  Beta  occ. eigenvalues --   -1.91275  -1.73942  -1.66535  -1.10574  -1.01980
  Beta  occ. eigenvalues --   -0.85545  -0.67902  -0.66403  -0.64984  -0.61290
  Beta  occ. eigenvalues --   -0.57970  -0.51339  -0.44219  -0.41843  -0.39733
  Beta  occ. eigenvalues --   -0.38762  -0.37432  -0.36404
  Beta virt. eigenvalues --    0.01879   0.03557   0.04360   0.05103   0.06111
  Beta virt. eigenvalues --    0.06555   0.09687   0.12056   0.12441   0.12783
  Beta virt. eigenvalues --    0.13600   0.14629   0.15087   0.15814   0.16187

 Mulliken charges and spin densities:
               1          2
     1  C   -3.767926   1.278163
     2  S    7.663312  -0.134248
     3  O   -2.481227   0.028330
     4  O   -3.001955  -0.003117
     5  O   -2.628328   0.009788
     6  C   -2.833164   0.006450
     7  H    1.269002  -0.000568
     8  H    1.425779  -0.021505
     9  H    1.402249   0.003178
    10  H    1.469394  -0.072146
    11  H    1.482864  -0.094324
 Sum of Mulliken charges =  -0.00000   1.00000

 Dipole moment (field-independent basis, Debye):
    X=             -1.8259    Y=              1.8691    Z=             -0.4953  Tot=              2.6595
                          Isotropic Fermi Contact Couplings
        Atom                 a.u.       MegaHertz       Gauss      10(-4) cm-1
     1  C(13)              0.12138     136.45947      48.69213      45.51798
     2  S(33)             -0.13854     -47.58566     -16.97975     -15.87287
     3  O(17)              0.01529      -9.26646      -3.30650      -3.09096
     4  O(17)             -0.00025       0.14939       0.05331       0.04983
     5  O(17)              0.00107      -0.65145      -0.23245      -0.21730
     6  C(13)              0.00077       0.87074       0.31070       0.29045
     7  H(1)              -0.00017      -0.76576      -0.27324      -0.25543
     8  H(1)              -0.00028      -1.24208      -0.44321      -0.41431

 Normal termination of Gaussian 16 at Tue Apr  8 23:53:39 2025.
