 Gaussian 16, Revision C.01,

 ----------------------------------------------------------------------
 #t hf aug-cc-pvdz symm=none int=(grid=ultrafine) guess=(read,tcheck) s
 table=(opt,rrhf)
 ----------------------------------------------------------------------
 -----
 title
 -----
 Symbolic Z-matrix:
 Charge =  0 Multiplicity = 1

 SCF Done:  E(RHF) =  -890.467245515     A.U. after   14 cycles
 Normal termination of Gaussian 16 at Tue Apr  8 23:31:40 2025.
 Gaussian 16:  ES64L-G16RevC.01  3-Jul-2019

 ----------------------------------------------------------------------
 #t hf aug-cc-pvdz iop(5/13=1,5/36=2,99/5=2) pseudo=read geom=check gue
 ss=(read,tcheck) scf=(maxcycle=1)
 ----------------------------------------------------------------------
 -----
 title
 -----
 Structure from the checkpoint file:  "BDE49_nonexpt_134_mol1.chk"
 Charge =  0 Multiplicity = 1

                         Standard orientation:
 ---------------------------------------------------------------------
 Center     Atomic      Atomic             Coordinates (Angstroms)
 Number     Number       Type             X           Y           Z
 ---------------------------------------------------------------------
      1          5           0       -0.737626    0.365774    1.154992
      2          5           0        0.737626   -0.365823    1.154979
      3         15           0        2.002924   -0.246981   -0.187961
      4         15           0       -2.002915    0.246974   -0.187959
      5          6           0        2.057876    1.418563   -0.989748
      6          1           0        2.463214    2.181620   -0.321153
      7          1           0        1.043464    1.701755   -1.275514
      8          1           0        2.670817    1.378005   -1.892712
      9          6           0        3.716617   -0.515854    0.455515
     10          1           0        3.725631   -1.431042    1.049980
     11          1           0        4.057124    0.313439    1.079599
     12          1           0        4.413101   -0.639735   -0.376632
     13          6           0       -3.716605    0.515890    0.455508
     14          1           0       -3.725598    1.431075    1.049978
     15          1           0       -4.057138   -0.313397    1.079585
     16          1           0       -4.413080    0.639795   -0.376643
     17          6           0       -2.057906   -1.418564   -0.989756
     18          1           0       -1.043499   -1.701782   -1.275515
     19          1           0       -2.670840   -1.377984   -1.892724
     20          1           0       -2.463270   -2.181613   -0.321168
     21          1           0       -1.000837    1.188109    1.986366
     22          1           0        1.000877   -1.188112    1.986388
 ---------------------------------------------------------------------

 SCF Done:  E(RHF) =  -891.927062979     A.U. after    2 cycles

 The electronic state is 1-A.
 Alpha  occ. eigenvalues -- -105.14493-105.14421 -11.37506 -11.37381 -11.36967
 Alpha  occ. eigenvalues --  -11.36894  -7.58911  -7.57898  -2.73441  -2.73341
 Alpha  occ. eigenvalues --   -1.52786  -1.51473  -1.47428  -1.46862  -1.40359
 Alpha  occ. eigenvalues --   -1.40276  -1.04984  -1.04345  -0.96265  -0.96023
 Alpha  occ. eigenvalues --   -0.85869  -0.70949  -0.61079  -0.56989  -0.56639
 Alpha  occ. eigenvalues --   -0.56340  -0.56174  -0.56045  -0.55623  -0.55214
 Alpha  occ. eigenvalues --   -0.54829  -0.54617  -0.42783  -0.19697  -0.19488
 Alpha  occ. eigenvalues --   -0.14520  -0.12190  -0.04888   0.00447
 Alpha virt. eigenvalues --    0.02781   0.03307   0.03969   0.04679   0.06823
 Alpha virt. eigenvalues --    0.06866   0.06979   0.07095   0.07583   0.07853
 Alpha virt. eigenvalues --    0.08011   0.08158   0.08213   0.08699   0.09463

 Mulliken charges:
               1
     1  B    1.236253
     2  B    1.236613
     3  P    7.548184
     4  P    7.548271
     5  C   -6.792018
     6  H    1.072785
     7  H    1.237771
     8  H    1.249205
     9  C   -6.569796
    10  H    1.316132
    11  H    1.219827
    12  H    1.092972
    13  C   -6.569795
    14  H    1.316119
    15  H    1.219821
    16  H    1.092968
    17  C   -6.792069
    18  H    1.237768
    19  H    1.249186
    20  H    1.072777
    21  H   -2.611390
    22  H   -2.611584
 Sum of Mulliken charges =   0.00000

 Dipole moment (field-independent basis, Debye):
    X=              0.0003    Y=              0.0004    Z=             -5.8040  Tot=              5.8040

 Test job not archived.
 1\1\GINC-SE058\SP\RHF\Aug-CC-pVDZ\C4H14B2P2\OHZDE\08-Apr-2025\0\\#t hf
  aug-cc-pvdz iop(5/13=1,5/36=2,99/5=2) pseudo=read geom=check guess=(r
 ead,tcheck) scf=(maxcycle=1)\\title\\0,1\B,0,-0.737626,0.365774,1.1549
 92\B,0,0.737626,-0.365823,1.154979\P,0,2.002924,-0.246981,-0.187961\P,
 0,-2.002915,0.246974,-0.187959\C,0,2.057876,1.418563,-0.989748\H,0,2.4
 63214,2.18162,-0.321153\H,0,1.043464,1.701755,-1.275514\H,0,2.670817,1
 .378005,-1.892712\C,0,3.716617,-0.515854,0.455515\H,0,3.725631,-1.4310
 42,1.04998\H,0,4.057124,0.313439,1.079599\H,0,4.413101,-0.639735,-0.37

 Normal termination of Gaussian 16 at Tue Apr  8 23:31:51 2025.
