 Gaussian 16, Revision C.01,

 ----------------------------------------------------------------------
 #t hf aug-cc-pvdz symm=none int=(grid=ultrafine) guess=(read,tcheck) s
 table=(opt,rrhf)
 ----------------------------------------------------------------------
 -----
 title
 -----
 Symbolic Z-matrix:
 Charge =  0 Multiplicity = 1

 SCF Done:  E(RHF) =  -1161.81987895     A.U. after   16 cycles
 Normal termination of Gaussian 16 at Wed Apr  9 00:51:09 2025.
 Gaussian 16:  ES64L-G16RevC.01  3-Jul-2019

 ----------------------------------------------------------------------
 #t hf aug-cc-pvdz iop(5/13=1,5/36=2,99/5=2) pseudo=read geom=check gue
 ss=(read,tcheck) scf=(maxcycle=1)
 ----------------------------------------------------------------------
 -----
 title
 -----
 Structure from the checkpoint file:  "BDE49_nonexpt_884_mol1.chk"
 Charge =  0 Multiplicity = 1

                         Standard orientation:
 ---------------------------------------------------------------------
 Center     Atomic      Atomic             Coordinates (Angstroms)
 Number     Number       Type             X           Y           Z
 ---------------------------------------------------------------------
      1          8           0       -0.853979    0.571381   -0.000027
      2          6           0        0.140551   -0.374962   -0.000004
      3          6           0       -0.449180   -1.623425    0.000005
      4          6           0       -1.849088   -1.435711   -0.000013
      5          6           0       -2.050385   -0.077837   -0.000034
      6          5           0        1.610371    0.092889    0.000007
      7         16           0        2.895572   -1.193326    0.000024
      8         16           0        2.071569    1.843635   -0.000010
      9          6           0       -3.262390    0.737622   -0.000062
     10          8           0       -4.379331    0.270545    0.000067
     11          1           0       -3.076935    1.830590    0.000054
     12          1           0        0.077290   -2.565322    0.000022
     13          1           0       -2.627054   -2.181928   -0.000013
     14          1           0        0.822115    2.340761   -0.000025
     15          1           0        3.967900   -0.383025    0.000027
 ---------------------------------------------------------------------

 SCF Done:  E(RHF) =  -1163.86033706     A.U. after    2 cycles

 The electronic state is 1-A.
 Alpha  occ. eigenvalues --  -75.70503 -75.70437 -21.14390 -21.07771 -13.18586
 Alpha  occ. eigenvalues --  -13.17942 -13.12362 -13.10559 -13.05440 -13.03923
 Alpha  occ. eigenvalues --  -11.52242 -11.51031 -11.46634 -11.45111 -11.40477
 Alpha  occ. eigenvalues --   -8.04649  -8.04199  -7.69274  -1.88060  -1.71828
 Alpha  occ. eigenvalues --   -1.24431  -1.21933  -1.11319  -1.10772  -0.94439
 Alpha  occ. eigenvalues --   -0.85212  -0.79370  -0.75041  -0.67521  -0.61494
 Alpha  occ. eigenvalues --   -0.58924  -0.56661  -0.54753  -0.53305  -0.48640
 Alpha  occ. eigenvalues --   -0.48332  -0.45902  -0.39752  -0.38059  -0.36198
 Alpha  occ. eigenvalues --   -0.34904  -0.31216  -0.30652  -0.25975
 Alpha virt. eigenvalues --    0.02256   0.02348   0.03145   0.03374   0.05840
 Alpha virt. eigenvalues --    0.06276   0.07075   0.07083   0.08842   0.09507
 Alpha virt. eigenvalues --    0.10063   0.10646   0.11676   0.12005   0.12579

 Mulliken charges:
               1
     1  O   -4.545647
     2  C    0.807973
     3  C   -0.194628
     4  C   -3.411381
     5  C    5.482774
     6  B    3.909928
     7  S   -2.938544
     8  S   -2.977360
     9  C    0.236763
    10  O   -3.009925
    11  H    1.529642
    12  H    1.725888
    13  H    1.477757
    14  H    1.111102
    15  H    0.795657
 Sum of Mulliken charges =  -0.00000

 Dipole moment (field-independent basis, Debye):
    X=              2.3419    Y=             -1.0345    Z=              0.0001  Tot=              2.5602

 Test job not archived.
 1\1\GINC-SE058\SP\RHF\Aug-CC-pVDZ\C5H5B1O2S2\OHZDE\09-Apr-2025\0\\#t h
 f aug-cc-pvdz iop(5/13=1,5/36=2,99/5=2) pseudo=read geom=check guess=(
 read,tcheck) scf=(maxcycle=1)\\title\\0,1\O,0,-0.853979,0.571381,-0.00
 0027\C,0,0.140551,-0.374962,-0.000004\C,0,-0.44918,-1.623425,0.000005\
 C,0,-1.849088,-1.435711,-0.000013\C,0,-2.050385,-0.077837,-0.000034\B,
 0,1.610371,0.092889,0.000007\S,0,2.895572,-1.193326,0.000024\S,0,2.071
 569,1.843635,-0.00001\C,0,-3.26239,0.737622,-0.000062\O,0,-4.379331,0.
 270545,0.000067\H,0,-3.076935,1.83059,0.000054\H,0,0.07729,-2.565322,0

 Normal termination of Gaussian 16 at Wed Apr  9 00:51:18 2025.
