 Gaussian 16, Revision C.01,

 ----------------------------------------------------------------------
 #t hf aug-cc-pvdz symm=none int=(grid=ultrafine) guess=(read,tcheck) s
 table=(opt,rrhf)
 ----------------------------------------------------------------------
 -----
 title
 -----
 Symbolic Z-matrix:
 Charge =  0 Multiplicity = 1

 SCF Done:  E(RHF) =  -463.879183932     A.U. after   13 cycles
 Normal termination of Gaussian 16 at Tue Apr  8 23:56:17 2025.
 Gaussian 16:  ES64L-G16RevC.01  3-Jul-2019

 ----------------------------------------------------------------------
 #t hf aug-cc-pvdz iop(5/13=1,5/36=2,99/5=2) pseudo=read geom=check gue
 ss=(read,tcheck) scf=(maxcycle=1)
 ----------------------------------------------------------------------
 -----
 title
 -----
 Structure from the checkpoint file:  "BDE49_nonexpt_1993_mol1.chk"
 Charge =  0 Multiplicity = 1

                         Standard orientation:
 ---------------------------------------------------------------------
 Center     Atomic      Atomic             Coordinates (Angstroms)
 Number     Number       Type             X           Y           Z
 ---------------------------------------------------------------------
      1         14           0       -0.078564    0.321754   -0.000074
      2          9           0        1.357125   -0.352948    0.000057
      3          8           0       -1.410591   -0.386702    0.000062
      4          1           0        0.170498    1.765593    0.000017
 ---------------------------------------------------------------------

 SCF Done:  E(RHF) =  -464.672480934     A.U. after    2 cycles

 The electronic state is 1-A.
 Alpha  occ. eigenvalues --  -76.30566 -29.32599 -21.04420  -5.66372  -2.35992
 Alpha  occ. eigenvalues --   -2.27944  -2.22436  -1.54435  -0.87307  -0.61198
 Alpha  occ. eigenvalues --   -0.45818  -0.43546  -0.38441  -0.36554  -0.35462
 Alpha  occ. eigenvalues --   -0.32653
 Alpha virt. eigenvalues --    0.04676   0.04751   0.06676   0.07725   0.09621
 Alpha virt. eigenvalues --    0.11875   0.17877   0.19871   0.22884   0.23712
 Alpha virt. eigenvalues --    0.25390   0.26293   0.27275   0.28032   0.30207

 Mulliken charges:
               1
     1  Si   4.669163
     2  F   -1.026103
     3  O   -2.151619
     4  H   -1.491441
 Sum of Mulliken charges =  -0.00000

 Dipole moment (field-independent basis, Debye):
    X=              4.2621    Y=              0.2064    Z=             -0.0004  Tot=              4.2670

 Test job not archived.
 1\1\GINC-SE424\SP\RHF\Aug-CC-pVDZ\F1H1O1Si1\OHZDE\08-Apr-2025\0\\#t hf
  aug-cc-pvdz iop(5/13=1,5/36=2,99/5=2) pseudo=read geom=check guess=(r
 ead,tcheck) scf=(maxcycle=1)\\title\\0,1\Si,0,0.078564,0.321754,0.0000
 74\F,0,-1.357125,-0.352948,-0.000057\O,0,1.410591,-0.386702,-0.000062\
 H,0,-0.170497,1.765593,-0.000017\\Version=ES64L-G16RevC.01\State=1-A\H
 F=-464.6724809\RMSD=7.217e-02\Dipole=-1.6768212,0.0811965,0.0001501\Qu
 adrupole=-1.4900969,-0.7064618,2.1965587,1.96716,0.0002031,0.0001553\P
 G=C01 [X(F1H1O1Si1)]\\@

 Normal termination of Gaussian 16 at Tue Apr  8 23:56:18 2025.
