 Gaussian 16, Revision C.01,

 ----------------------------------------------------------------------
 #t hf aug-cc-pvdz symm=none int=(grid=ultrafine) guess=(read,tcheck) s
 table=(opt,rrhf)
 ----------------------------------------------------------------------
 -----
 title
 -----
 Symbolic Z-matrix:
 Charge =  0 Multiplicity = 1

 SCF Done:  E(RHF) =  -948.018001072     A.U. after   14 cycles
 Normal termination of Gaussian 16 at Wed Apr  9 00:26:45 2025.
 Gaussian 16:  ES64L-G16RevC.01  3-Jul-2019

 ----------------------------------------------------------------------
 #t hf aug-cc-pvdz iop(5/13=1,5/36=2,99/5=2) pseudo=read geom=check gue
 ss=(read,tcheck) scf=(maxcycle=1)
 ----------------------------------------------------------------------
 -----
 title
 -----
 Structure from the checkpoint file:  "BDE49_nonexpt_2743_mol1.chk"
 Charge =  0 Multiplicity = 1

                         Standard orientation:
 ---------------------------------------------------------------------
 Center     Atomic      Atomic             Coordinates (Angstroms)
 Number     Number       Type             X           Y           Z
 ---------------------------------------------------------------------
      1         16           0       -1.958237    0.230654   -0.116359
      2         16           0       -0.238064   -0.925464    0.053474
      3          6           0        1.109463    0.327551    0.015422
      4          8           0        0.915836    1.505546    0.031456
      5          6           0        2.470161   -0.332460   -0.047506
      6          1           0        2.448732   -1.372793    0.280886
      7          1           0        3.169523    0.239921    0.563496
      8          1           0        2.814952   -0.303001   -1.085088
      9          1           0       -2.096814    0.537922    1.187726
 ---------------------------------------------------------------------

 SCF Done:  E(RHF) =  -949.145293819     A.U. after    2 cycles

 The electronic state is 1-A.
 Alpha  occ. eigenvalues --  -75.72721 -75.72345 -21.07844 -13.15535 -13.13901
 Alpha  occ. eigenvalues --  -13.11730 -13.09268 -13.04868 -13.04544 -11.51604
 Alpha  occ. eigenvalues --  -11.40912  -8.06694  -8.06126  -1.73574  -1.24183
 Alpha  occ. eigenvalues --   -1.12985  -1.00947  -0.75744  -0.63288  -0.61722
 Alpha  occ. eigenvalues --   -0.57678  -0.52941  -0.49632  -0.46093  -0.37194
 Alpha  occ. eigenvalues --   -0.29503  -0.27096  -0.25101
 Alpha virt. eigenvalues --    0.02363   0.03230   0.05734   0.06230   0.07717
 Alpha virt. eigenvalues --    0.08244   0.09728   0.11954   0.12640   0.13310
 Alpha virt. eigenvalues --    0.14014   0.14377   0.14898   0.15376   0.16564

 Mulliken charges:
               1
     1  S   -1.189835
     2  S    0.066845
     3  C    2.753027
     4  O   -2.805599
     5  C   -3.987388
     6  H    1.465044
     7  H    1.194228
     8  H    1.227262
     9  H    1.276416
 Sum of Mulliken charges =  -0.00000

 Dipole moment (field-independent basis, Debye):
    X=             -0.0542    Y=             -1.1514    Z=             -0.8871  Tot=              1.4545

 Test job not archived.
 1\1\GINC-SE096\SP\RHF\Aug-CC-pVDZ\C2H4O1S2\OHZDE\09-Apr-2025\0\\#t hf
 aug-cc-pvdz iop(5/13=1,5/36=2,99/5=2) pseudo=read geom=check guess=(re
 ad,tcheck) scf=(maxcycle=1)\\title\\0,1\S,0,-1.958237,0.230654,-0.1163
 59\S,0,-0.238064,-0.925464,0.053474\C,0,1.109463,0.327551,0.015422\O,0
 ,0.915836,1.505546,0.031456\C,0,2.470161,-0.33246,-0.047506\H,0,2.4487
 32,-1.372793,0.280886\H,0,3.169523,0.239921,0.563496\H,0,2.814952,-0.3
 03001,-1.085088\H,0,-2.096814,0.537922,1.187726\\Version=ES64L-G16RevC
 .01\State=1-A\HF=-949.1452938\RMSD=1.500e-01\Dipole=-0.0213167,-0.4529

 Normal termination of Gaussian 16 at Wed Apr  9 00:26:48 2025.
