 Gaussian 16, Revision C.01,

 ----------------------------------------------------------------------
 #t hf aug-cc-pvdz symm=none int=(grid=ultrafine) guess=(read,tcheck) s
 table=(opt,rrhf)
 ----------------------------------------------------------------------
 -----
 title
 -----
 Symbolic Z-matrix:
 Charge =  0 Multiplicity = 1

 SCF Done:  E(RHF) =  -415.415762395     A.U. after   11 cycles
 Normal termination of Gaussian 16 at Wed Apr  9 00:35:16 2025.
 Gaussian 16:  ES64L-G16RevC.01  3-Jul-2019

 ----------------------------------------------------------------------
 #t hf aug-cc-pvdz iop(5/13=1,5/36=2,99/5=2) pseudo=read geom=check gue
 ss=(read,tcheck) scf=(maxcycle=1)
 ----------------------------------------------------------------------
 -----
 title
 -----
 Structure from the checkpoint file:  "BDE49_nonexpt_458_mol1.chk"
 Charge =  0 Multiplicity = 1

                         Standard orientation:
 ---------------------------------------------------------------------
 Center     Atomic      Atomic             Coordinates (Angstroms)
 Number     Number       Type             X           Y           Z
 ---------------------------------------------------------------------
      1          1           0        1.600513   -1.893162    0.000000
      2          1           0        2.704270   -0.175764    0.000000
      3          5           0        1.634305   -0.703485    0.000000
      4         14           0        0.000000    0.456742    0.000000
      5          9           0       -1.383611   -0.383932    0.000000
      6          1           0       -0.011904    1.323675    1.204977
      7          1           0       -0.011904    1.323675   -1.204977
 ---------------------------------------------------------------------

 SCF Done:  E(RHF) =  -416.038916073     A.U. after    2 cycles

 The electronic state is 1-A'.
 Alpha  occ. eigenvalues --  -76.24268 -29.25715  -7.63228  -5.58639  -2.23467
 Alpha  occ. eigenvalues --   -2.19887  -2.19547  -0.91916  -0.79404  -0.58884
 Alpha  occ. eigenvalues --   -0.50693  -0.49836  -0.42656  -0.32774  -0.31827
 Alpha  occ. eigenvalues --   -0.29631
 Alpha virt. eigenvalues --    0.01774   0.03569   0.03894   0.05242   0.07145
 Alpha virt. eigenvalues --    0.08422   0.09143   0.09350   0.10323   0.10908
 Alpha virt. eigenvalues --    0.12621   0.14050   0.16701   0.18911   0.20629

 Mulliken charges:
               1
     1  H   -1.972959
     2  H   -1.902120
     3  B    2.280048
     4  Si   5.872144
     5  F   -0.858798
     6  H   -1.709158
     7  H   -1.709158
 Sum of Mulliken charges =  -0.00000

 Dipole moment (field-independent basis, Debye):
    X=             -1.3870    Y=             -1.5463    Z=              0.0000  Tot=              2.0772

 Test job not archived.
 1\1\GINC-SE099\SP\RHF\Aug-CC-pVDZ\B1F1H4Si1\OHZDE\09-Apr-2025\0\\#t hf
  aug-cc-pvdz iop(5/13=1,5/36=2,99/5=2) pseudo=read geom=check guess=(r
 ead,tcheck) scf=(maxcycle=1)\\title\\0,1\H,0,1.600513,-1.893162,0.\H,0
 ,2.70427,-0.175764,0.\B,0,1.634305,-0.703485,0.\Si,0,0.,0.456742,0.\F,
 0,-1.383611,-0.383932,0.\H,0,-0.011904,1.323675,1.204977\H,0,-0.011904
 ,1.323675,-1.204977\\Version=ES64L-G16RevC.01\State=1-A'\HF=-416.03891
 61\RMSD=1.117e-01\Dipole=-0.5456896,-0.6083732,0.\Quadrupole=0.5391031
 ,-1.3029065,0.7638034,0.5702435,0.,0.\PG=CS [SG(B1F1H2Si1),X(H2)]\\@

 Normal termination of Gaussian 16 at Wed Apr  9 00:35:19 2025.
