 Gaussian 16, Revision C.01,

 ----------------------------------------------------------------------
 #t hf aug-cc-pvdz symm=none int=(grid=ultrafine) guess=(read,tcheck) s
 table=(opt,rrhf)
 ----------------------------------------------------------------------
 -----
 title
 -----
 Symbolic Z-matrix:
 Charge =  0 Multiplicity = 1

 SCF Done:  E(RHF) =  -709.620317936     A.U. after   15 cycles
 Normal termination of Gaussian 16 at Wed Apr  9 00:06:06 2025.
 Gaussian 16:  ES64L-G16RevC.01  3-Jul-2019

 ----------------------------------------------------------------------
 #t hf aug-cc-pvdz iop(5/13=1,5/36=2,99/5=2) pseudo=read geom=check gue
 ss=(read,tcheck) scf=(maxcycle=1)
 ----------------------------------------------------------------------
 -----
 title
 -----
 Structure from the checkpoint file:  "BDE49_nonexpt_2195_mol1.chk"
 Charge =  0 Multiplicity = 1

                         Standard orientation:
 ---------------------------------------------------------------------
 Center     Atomic      Atomic             Coordinates (Angstroms)
 Number     Number       Type             X           Y           Z
 ---------------------------------------------------------------------
      1          6           0       -1.620646    1.603997   -0.000001
      2          6           0       -1.747088    0.207214    0.000000
      3          6           0       -0.609207   -0.598220    0.000000
      4          6           0       -0.358020    2.172832   -0.000001
      5          6           0        0.794343    1.382619    0.000000
      6          6           0        0.656501   -0.002888    0.000000
      7          1           0       -0.259701    3.252450   -0.000001
      8          1           0        1.774599    1.844516   -0.000001
      9          8           0        1.727588   -0.857161    0.000000
     10         14           0        3.358351   -0.541837    0.000000
     11          1           0       -0.660408   -1.677465    0.000000
     12          1           0       -2.519275    2.207398   -0.000001
     13          8           0       -3.022094   -0.271728    0.000000
     14          6           0       -3.219237   -1.678220    0.000000
     15          1           0       -4.297830   -1.826998    0.000000
     16          1           0       -2.789692   -2.144403    0.893798
     17          1           0       -2.789692   -2.144404   -0.893797
     18          1           0        3.998913   -1.868706    0.000001
     19          1           0        3.751166    0.225218    1.204146
     20          1           0        3.751166    0.225218   -1.204146
 ---------------------------------------------------------------------

 SCF Done:  E(RHF) =  -711.693867774     A.U. after    2 cycles

 The electronic state is 1-A.
 Alpha  occ. eigenvalues --  -76.24692 -21.07544 -21.07008 -11.54093 -11.48600
 Alpha  occ. eigenvalues --  -11.44520 -11.41738 -11.40442 -11.40177 -11.36841
 Alpha  occ. eigenvalues --   -5.58198  -2.24933  -2.20194  -2.19688  -1.79110
 Alpha  occ. eigenvalues --   -1.73749  -1.29924  -1.09113  -1.08087  -0.99013
 Alpha  occ. eigenvalues --   -0.86562  -0.85067  -0.75150  -0.70610  -0.64678
 Alpha  occ. eigenvalues --   -0.63374  -0.62450  -0.61047  -0.56546  -0.55677
 Alpha  occ. eigenvalues --   -0.55117  -0.50158  -0.49147  -0.48092  -0.46533
 Alpha  occ. eigenvalues --   -0.44899  -0.39830  -0.38765  -0.37316  -0.30159
 Alpha  occ. eigenvalues --   -0.25994
 Alpha virt. eigenvalues --    0.03342   0.04547   0.04880   0.05862   0.06145
 Alpha virt. eigenvalues --    0.06444   0.06483   0.06727   0.07056   0.09140
 Alpha virt. eigenvalues --    0.09679   0.09790   0.10244   0.11727   0.11827

 Mulliken charges:
               1
     1  C   -4.043488
     2  C    6.843614
     3  C   -4.998846
     4  C    0.542131
     5  C   -4.634227
     6  C    7.237329
     7  H    1.434970
     8  H    2.007850
     9  O   -5.074881
    10  Si   6.437246
    11  H    1.984583
    12  H    1.866714
    13  O   -4.795381
    14  C   -3.639957
    15  H    1.423639
    16  H    1.378882
    17  H    1.378883
    18  H   -1.850958
    19  H   -1.749052
    20  H   -1.749052
 Sum of Mulliken charges =   0.00000

 Dipole moment (field-independent basis, Debye):
    X=             -0.9626    Y=             -0.8507    Z=             -0.0000  Tot=              1.2846

 Test job not archived.
 1\1\GINC-SE424\SP\RHF\Aug-CC-pVDZ\C7H10O2Si1\OHZDE\09-Apr-2025\0\\#t h
 f aug-cc-pvdz iop(5/13=1,5/36=2,99/5=2) pseudo=read geom=check guess=(
 read,tcheck) scf=(maxcycle=1)\\title\\0,1\C,0,-1.620646,1.603997,-0.00
 0001\C,0,-1.747088,0.207214,0.\C,0,-0.609207,-0.59822,0.\C,0,-0.35802,
 2.172832,-0.000001\C,0,0.794343,1.382619,0.\C,0,0.656501,-0.002888,0.\
 H,0,-0.259701,3.25245,-0.000001\H,0,1.774599,1.844516,-0.000001\O,0,1.
 727588,-0.857161,0.\Si,0,3.358351,-0.541837,0.\H,0,-0.660408,-1.677465
 ,0.\H,0,-2.519275,2.207398,-0.000001\O,0,-3.022094,-0.271728,0.\C,0,-3

 Normal termination of Gaussian 16 at Wed Apr  9 00:06:16 2025.
