 Gaussian 16, Revision C.01,

 ----------------------------------------------------------------------
 #t hf aug-cc-pvdz symm=none int=(grid=ultrafine) guess=(read,tcheck) s
 table=(opt,rrhf)
 ----------------------------------------------------------------------
 -----
 title
 -----
 Symbolic Z-matrix:
 Charge =  0 Multiplicity = 1

 SCF Done:  E(RHF) =  -713.280319205     A.U. after   14 cycles
 Normal termination of Gaussian 16 at Wed Apr  9 00:11:51 2025.
 Gaussian 16:  ES64L-G16RevC.01  3-Jul-2019

 ----------------------------------------------------------------------
 #t hf aug-cc-pvdz iop(5/13=1,5/36=2,99/5=2) pseudo=read geom=check gue
 ss=(read,tcheck) scf=(maxcycle=1)
 ----------------------------------------------------------------------
 -----
 title
 -----
 Structure from the checkpoint file:  "BDE49_nonexpt_2381_mol1.chk"
 Charge =  0 Multiplicity = 1

                         Standard orientation:
 ---------------------------------------------------------------------
 Center     Atomic      Atomic             Coordinates (Angstroms)
 Number     Number       Type             X           Y           Z
 ---------------------------------------------------------------------
      1         14           0       -2.139972    0.339753   -0.333015
      2         14           0       -0.255790   -0.728054    0.610010
      3          6           0        1.391060   -0.041052   -0.084872
      4          1           0       -0.285345   -2.178281    0.293197
      5          1           0       -0.295624   -0.555345    2.084996
      6          1           0       -2.109109    1.792797   -0.036485
      7          1           0       -3.387845   -0.230750    0.229783
      8          7           0        2.156683   -0.713506   -0.854986
      9          1           0       -2.152623    0.156643   -1.804151
     10          1           0        1.783473   -1.649445   -1.034319
     11          6           0        1.805065    1.363890    0.287597
     12          1           0        1.049245    2.091970   -0.026296
     13          1           0        2.756456    1.604365   -0.189558
     14          1           0        1.908504    1.461769    1.373462
 ---------------------------------------------------------------------

 SCF Done:  E(RHF) =  -714.246471841     A.U. after    2 cycles

 The electronic state is 1-A.
 Alpha  occ. eigenvalues --  -76.22488 -76.22458 -15.74360 -11.43178 -11.37170
 Alpha  occ. eigenvalues --   -5.56134  -5.55874  -2.20214  -2.18626  -2.17994
 Alpha  occ. eigenvalues --   -2.17922  -2.17830  -2.16692  -1.34285  -1.07345
 Alpha  occ. eigenvalues --   -0.84102  -0.77571  -0.72540  -0.61123  -0.58249
 Alpha  occ. eigenvalues --   -0.53089  -0.51376  -0.48864  -0.48022  -0.46826
 Alpha  occ. eigenvalues --   -0.42284  -0.37255  -0.32676
 Alpha virt. eigenvalues --    0.03621   0.04377   0.05461   0.05831   0.06730
 Alpha virt. eigenvalues --    0.06940   0.07125   0.07723   0.08150   0.08515
 Alpha virt. eigenvalues --    0.08807   0.09324   0.09566   0.09628   0.10598

 Mulliken charges:
               1
     1  Si   4.918588
     2  Si   3.854988
     3  C    1.059328
     4  H   -1.685402
     5  H   -1.779758
     6  H   -1.516188
     7  H   -1.629202
     8  N   -2.858016
     9  H   -1.549343
    10  H    0.785452
    11  C   -3.509457
    12  H    1.370217
    13  H    1.253276
    14  H    1.285517
 Sum of Mulliken charges =  -0.00000

 Dipole moment (field-independent basis, Debye):
    X=             -0.9123    Y=              0.1155    Z=              0.5930  Tot=              1.0942

 Test job not archived.
 1\1\GINC-SE404\SP\RHF\Aug-CC-pVDZ\C2H9N1Si2\OHZDE\09-Apr-2025\0\\#t hf
  aug-cc-pvdz iop(5/13=1,5/36=2,99/5=2) pseudo=read geom=check guess=(r
 ead,tcheck) scf=(maxcycle=1)\\title\\0,1\Si,0,-2.139972,0.339753,-0.33
 3015\Si,0,-0.25579,-0.728054,0.61001\C,0,1.39106,-0.041052,-0.084872\H
 ,0,-0.285345,-2.178281,0.293197\H,0,-0.295624,-0.555345,2.084996\H,0,-
 2.109109,1.792797,-0.036485\H,0,-3.387845,-0.23075,0.229783\N,0,2.1566
 83,-0.713506,-0.854986\H,0,-2.152623,0.156643,-1.804151\H,0,1.783473,-
 1.649445,-1.034319\C,0,1.805065,1.36389,0.287597\H,0,1.049245,2.09197,

 Normal termination of Gaussian 16 at Wed Apr  9 00:11:55 2025.
