 Gaussian 16, Revision C.01,

 ----------------------------------------------------------------------
 #t hf aug-cc-pvdz symm=none int=(grid=ultrafine) guess=(read,tcheck) s
 table=opt
 ----------------------------------------------------------------------
 -----
 title
 -----
 Symbolic Z-matrix:
 Charge =  0 Multiplicity = 2

 SCF Done:  E(UHF) =  -153.482314808     A.U. after   15 cycles
 Normal termination of Gaussian 16 at Tue Apr  8 22:36:22 2025.
 Gaussian 16:  ES64L-G16RevC.01  3-Jul-2019

 ----------------------------------------------------------------------
 #t hf aug-cc-pvdz iop(5/13=1,5/36=2,99/5=2) pseudo=read geom=check gue
 ss=(read,tcheck) scf=(maxcycle=1)
 ----------------------------------------------------------------------
 -----
 title
 -----
 Structure from the checkpoint file:  "BDE49_expt_1062_mol2.chk"
 Charge =  0 Multiplicity = 2

                         Standard orientation:
 ---------------------------------------------------------------------
 Center     Atomic      Atomic             Coordinates (Angstroms)
 Number     Number       Type             X           Y           Z
 ---------------------------------------------------------------------
      1          6           0       -0.091765    0.507344   -0.101038
      2          8           0       -1.168194   -0.341333    0.022154
      3          1           0       -1.978603    0.175330   -0.009242
      4          6           0        1.227784   -0.163370    0.011228
      5          1           0        1.290836   -1.010534   -0.679558
      6          1           0        1.414089   -0.559700    1.022966
      7          1           0        2.033673    0.534856   -0.226401
      8          1           0       -0.230555    1.526867    0.253865
 ---------------------------------------------------------------------

 SCF Done:  E(UHF) =  -154.170668649     A.U. after    2 cycles

 The electronic state is 2-A.
 Alpha  occ. eigenvalues --  -21.09073 -11.41494 -11.35986  -1.73444  -1.10933
 Alpha  occ. eigenvalues --   -0.85009  -0.67451  -0.59395  -0.54059  -0.50574
 Alpha  occ. eigenvalues --   -0.46670  -0.41708  -0.24038
 Alpha virt. eigenvalues --    0.03677   0.05519   0.06010   0.06674   0.07208
 Alpha virt. eigenvalues --    0.11706   0.12430   0.13599   0.14842   0.15967
 Alpha virt. eigenvalues --    0.17018   0.17946   0.20520   0.22866   0.24317

  Beta  occ. eigenvalues --  -21.08564 -11.39806 -11.35582  -1.71813  -1.08563
  Beta  occ. eigenvalues --   -0.79986  -0.66613  -0.55096  -0.53265  -0.49742
  Beta  occ. eigenvalues --   -0.42585  -0.37717
  Beta virt. eigenvalues --    0.03676   0.05526   0.06047   0.06683   0.07161
  Beta virt. eigenvalues --    0.10398   0.12419   0.13684   0.14943   0.15201
  Beta virt. eigenvalues --    0.16371   0.17723   0.19155   0.22238   0.23415

 Mulliken charges and spin densities:
               1          2
     1  C    0.269592   1.225800
     2  O   -2.711274   0.119842
     3  H    0.961276  -0.017909
     4  C   -3.624971  -0.330699
     5  H    1.227652   0.000814
     6  H    1.228352   0.035035
     7  H    1.220377  -0.007627
     8  H    1.428996  -0.025257
 Sum of Mulliken charges =  -0.00000   1.00000

 Dipole moment (field-independent basis, Debye):
    X=             -0.3760    Y=              0.5462    Z=              0.3422  Tot=              0.7462
                          Isotropic Fermi Contact Couplings
        Atom                 a.u.       MegaHertz       Gauss      10(-4) cm-1
     1  C(13)              0.16709     187.84047      67.02615      62.65684
     2  O(17)              0.03742     -22.68093      -8.09312      -7.56554
     3  H(1)              -0.00091      -4.08637      -1.45812      -1.36307
     4  C(13)             -0.02330     -26.19378      -9.34659      -8.73731
     5  H(1)               0.00758      33.86127      12.08254      11.29490
     6  H(1)               0.01801      80.48270      28.71823      26.84614
     7  H(1)               0.00253      11.31283       4.03670       3.77355
     8  H(1)              -0.01111     -49.67029     -17.72360     -16.56823

 Normal termination of Gaussian 16 at Tue Apr  8 22:36:24 2025.
