 Gaussian 16, Revision C.01,

 ----------------------------------------------------------------------
 #t hf aug-cc-pvdz symm=none int=(grid=ultrafine) guess=(read,tcheck) s
 table=opt
 ----------------------------------------------------------------------
 -----
 title
 -----
 Symbolic Z-matrix:
 Charge =  0 Multiplicity = 2

 SCF Done:  E(UHF) =  -982.716007415     A.U. after   16 cycles
 Normal termination of Gaussian 16 at Tue Apr  8 23:43:11 2025.
 Gaussian 16:  ES64L-G16RevC.01  3-Jul-2019

 ----------------------------------------------------------------------
 #t hf aug-cc-pvdz iop(5/13=1,5/36=2,99/5=2) pseudo=read geom=check gue
 ss=(read,tcheck) scf=(maxcycle=1)
 ----------------------------------------------------------------------
 -----
 title
 -----
 Structure from the checkpoint file:  "BDE49_nonexpt_167_mol2.chk"
 Charge =  0 Multiplicity = 2

                         Standard orientation:
 ---------------------------------------------------------------------
 Center     Atomic      Atomic             Coordinates (Angstroms)
 Number     Number       Type             X           Y           Z
 ---------------------------------------------------------------------
      1         17           0        1.854476   -0.331321   -0.000001
      2          5           0        0.769474    1.001234    0.000001
      3          6           0       -0.770289    1.071581    0.000002
      4         17           0       -1.677320   -0.532136   -0.000000
      5          1           0       -1.118642    1.621554   -0.877757
      6          1           0       -1.118642    1.621552    0.877762
 ---------------------------------------------------------------------

 SCF Done:  E(UHF) =  -983.481904149     A.U. after    2 cycles

 The electronic state is 2-A.
 Alpha  occ. eigenvalues --  -99.91508 -99.88530 -11.42320 -10.48801 -10.45666
 Alpha  occ. eigenvalues --   -9.68722  -9.68299  -9.68048  -9.65630  -9.64810
 Alpha  occ. eigenvalues --   -9.64776  -7.69610  -1.37730  -1.31746  -1.06139
 Alpha  occ. eigenvalues --   -0.78238  -0.65015  -0.63248  -0.61053  -0.55879
 Alpha  occ. eigenvalues --   -0.54372  -0.48660  -0.48043  -0.34084
 Alpha virt. eigenvalues --    0.02766   0.03572   0.04167   0.04576   0.05933
 Alpha virt. eigenvalues --    0.07986   0.09388   0.10324   0.12497   0.14276
 Alpha virt. eigenvalues --    0.14908   0.15816   0.15879   0.16857   0.17175

  Beta  occ. eigenvalues --  -99.91439 -99.88420 -11.42233 -10.48720 -10.45548
  Beta  occ. eigenvalues --   -9.68664  -9.68084  -9.67983  -9.65167  -9.64741
  Beta  occ. eigenvalues --   -9.64714  -7.67712  -1.36708  -1.30995  -1.04981
  Beta  occ. eigenvalues --   -0.75542  -0.64855  -0.60609  -0.59685  -0.55974
  Beta  occ. eigenvalues --   -0.52897  -0.48489  -0.47164
  Beta virt. eigenvalues --    0.00554   0.03830   0.04028   0.04585   0.05356
  Beta virt. eigenvalues --    0.07487   0.08934   0.10203   0.12593   0.13029
  Beta virt. eigenvalues --    0.14468   0.15500   0.15861   0.16578   0.17009

 Mulliken charges and spin densities:
               1          2
     1  Cl  -0.929245   0.040252
     2  B    1.773117   0.886363
     3  C   -4.384733  -0.069369
     4  Cl  -0.054309   0.104777
     5  H    1.797585   0.018989
     6  H    1.797585   0.018989
 Sum of Mulliken charges =  -0.00000   1.00000

 Dipole moment (field-independent basis, Debye):
    X=              0.3510    Y=              1.9296    Z=              0.0000  Tot=              1.9613
                          Isotropic Fermi Contact Couplings
        Atom                 a.u.       MegaHertz       Gauss      10(-4) cm-1
     1  Cl(35)             0.11050      48.45034      17.28829      16.16129
     2  B(11)              0.21813     312.87653     111.64212     104.36438
     3  C(13)              0.07290      81.95324      29.24295      27.33666
     4  Cl(35)             0.03376      14.80459       5.28264       4.93828
     5  H(1)               0.00016       0.72465       0.25857       0.24172
     6  H(1)               0.00016       0.72463       0.25857       0.24171
 --------------------------------------------------------
       Center         ----  Spin Dipole Couplings  ----

 Normal termination of Gaussian 16 at Tue Apr  8 23:43:13 2025.
