 Gaussian 16, Revision C.01,

 ----------------------------------------------------------------------
 #t hf aug-cc-pvdz symm=none int=(grid=ultrafine) guess=(read,tcheck) s
 table=(opt,rrhf)
 ----------------------------------------------------------------------
 -----
 title
 -----
 Symbolic Z-matrix:
 Charge =  0 Multiplicity = 1

 SCF Done:  E(RHF) =  -728.734652218     A.U. after   16 cycles
 Normal termination of Gaussian 16 at Tue Apr  8 22:42:03 2025.
 Gaussian 16:  ES64L-G16RevC.01  3-Jul-2019

 ----------------------------------------------------------------------
 #t hf aug-cc-pvdz iop(5/13=1,5/36=2,99/5=2) pseudo=read geom=check gue
 ss=(read,tcheck) scf=(maxcycle=1)
 ----------------------------------------------------------------------
 -----
 title
 -----
 Structure from the checkpoint file:  "BDE49_expt_1217_mol1.chk"
 Charge =  0 Multiplicity = 1

                         Standard orientation:
 ---------------------------------------------------------------------
 Center     Atomic      Atomic             Coordinates (Angstroms)
 Number     Number       Type             X           Y           Z
 ---------------------------------------------------------------------
      1          6           0        0.018616    0.000536    0.214060
      2          7           0       -0.070955    1.363507   -0.520083
      3          8           0       -1.064958    1.540588   -1.188046
      4          8           0        0.861155    2.122992   -0.363931
      5          6           0        0.937009   -0.006333    1.423987
      6          7           0       -1.445668   -0.307388    0.617154
      7          8           0       -1.838338    0.339518    1.567869
      8          8           0       -2.058464   -1.115989   -0.036774
      9          7           0        0.456288   -1.051832   -0.818796
     10          8           0        0.724688   -0.666150   -1.934697
     11          8           0        0.533265   -2.179646   -0.379582
     12          6           0        2.440023   -0.029337    1.116547
     13          1           0        0.665757   -0.893320    2.001111
     14          1           0        0.666599    0.864413    2.022273
     15          1           0        2.725192   -0.940925    0.587857
     16          1           0        2.984811   -0.015428    2.062090
     17          1           0        2.747310    0.835543    0.532470
 ---------------------------------------------------------------------

 SCF Done:  E(RHF) =  -731.858872012     A.U. after    2 cycles

 The electronic state is 1-A.
 Alpha  occ. eigenvalues --  -21.15706 -21.15630 -21.15231 -21.15007 -21.14924
 Alpha  occ. eigenvalues --  -21.14737 -16.06037 -16.05945 -16.05808 -11.65208
 Alpha  occ. eigenvalues --  -11.48617 -11.41618  -2.08012  -2.04420  -2.04194
 Alpha  occ. eigenvalues --   -1.75963  -1.75373  -1.75221  -1.38418  -1.19192
 Alpha  occ. eigenvalues --   -1.05607  -1.04711  -0.97678  -0.81506  -0.80315
 Alpha  occ. eigenvalues --   -0.79191  -0.75502  -0.71491  -0.68907  -0.66372
 Alpha  occ. eigenvalues --   -0.65595  -0.65542  -0.65013  -0.63506  -0.56678
 Alpha  occ. eigenvalues --   -0.55431  -0.55009  -0.44705  -0.40286  -0.39782
 Alpha  occ. eigenvalues --   -0.38779  -0.36612  -0.36206  -0.35475  -0.34427
 Alpha  occ. eigenvalues --   -0.33536
 Alpha virt. eigenvalues --    0.03213   0.04970   0.05305   0.05982   0.06182
 Alpha virt. eigenvalues --    0.08393   0.09172   0.09857   0.10809   0.11894
 Alpha virt. eigenvalues --    0.13110   0.13531   0.13941   0.14604   0.14931

 Mulliken charges:
               1
     1  C    3.922836
     2  N    4.514410
     3  O   -3.072590
     4  O   -2.992504
     5  C   -2.326348
     6  N    4.589481
     7  O   -3.096353
     8  O   -3.006034
     9  N    4.635898
    10  O   -2.913301
    11  O   -3.247986
    12  C   -3.660387
    13  H    1.454732
    14  H    1.425534
    15  H    1.309683
    16  H    1.028511
    17  H    1.434417
 Sum of Mulliken charges =   0.00000

 Dipole moment (field-independent basis, Debye):
    X=              1.5978    Y=             -0.0953    Z=              1.4161  Tot=              2.1371

 Test job not archived.
 1\1\GINC-SE083\SP\RHF\Aug-CC-pVDZ\C3H5N3O6\OHZDE\08-Apr-2025\0\\#t hf
 aug-cc-pvdz iop(5/13=1,5/36=2,99/5=2) pseudo=read geom=check guess=(re
 ad,tcheck) scf=(maxcycle=1)\\title\\0,1\C,0,0.018616,0.000536,0.21406\
 N,0,-0.070955,1.363507,-0.520083\O,0,-1.064958,1.540588,-1.188046\O,0,
 0.861155,2.122992,-0.363931\C,0,0.937009,-0.006333,1.423987\N,0,-1.445
 668,-0.307388,0.617154\O,0,-1.838338,0.339518,1.567869\O,0,-2.058464,-
 1.115989,-0.036774\N,0,0.456288,-1.051832,-0.818796\O,0,0.724688,-0.66
 615,-1.934697\O,0,0.533266,-2.179646,-0.379582\C,0,2.440023,-0.029337,

 Normal termination of Gaussian 16 at Tue Apr  8 22:42:16 2025.
