 Gaussian 16, Revision C.01,

 ----------------------------------------------------------------------
 #t hf aug-cc-pvdz symm=none int=(grid=ultrafine) guess=(read,tcheck) s
 table=(opt,rrhf)
 ----------------------------------------------------------------------
 -----
 title
 -----
 Symbolic Z-matrix:
 Charge =  0 Multiplicity = 1

 SCF Done:  E(RHF) =  -685.936073706     A.U. after   16 cycles
 Normal termination of Gaussian 16 at Tue Apr  8 23:34:11 2025.
 Gaussian 16:  ES64L-G16RevC.01  3-Jul-2019

 ----------------------------------------------------------------------
 #t hf aug-cc-pvdz iop(5/13=1,5/36=2,99/5=2) pseudo=read geom=check gue
 ss=(read,tcheck) scf=(maxcycle=1)
 ----------------------------------------------------------------------
 -----
 title
 -----
 Structure from the checkpoint file:  "BDE49_nonexpt_1431_mol1.chk"
 Charge =  0 Multiplicity = 1

                         Standard orientation:
 ---------------------------------------------------------------------
 Center     Atomic      Atomic             Coordinates (Angstroms)
 Number     Number       Type             X           Y           Z
 ---------------------------------------------------------------------
      1          6           0       -0.564610    1.403942    0.000002
      2          6           0        0.810557    1.254028    0.000003
      3          6           0        1.404077   -0.020953    0.000000
      4          6           0       -1.399006    0.275664    0.000000
      5          6           0       -0.830856   -0.998866   -0.000003
      6          6           0        0.559691   -1.131845   -0.000004
      7          1           0       -1.025976    2.384226    0.000004
      8          1           0        1.435532    2.140100    0.000005
      9         15           0        3.224466   -0.315278    0.000000
     10          1           0        0.987956   -2.128561   -0.000007
     11          1           0       -1.448008   -1.887106   -0.000006
     12          8           0       -2.735138    0.531261    0.000000
     13          6           0       -3.636839   -0.566953   -0.000003
     14          1           0       -3.512921   -1.188009   -0.894101
     15          1           0       -4.634765   -0.131832   -0.000003
     16          1           0       -3.512922   -1.188013    0.894092
     17          1           0        3.583564    0.594062    1.030367
     18          1           0        3.583570    0.594109   -1.030322
 ---------------------------------------------------------------------

 SCF Done:  E(RHF) =  -687.741649805     A.U. after    2 cycles

 The electronic state is 1-A.
 Alpha  occ. eigenvalues -- -105.17884 -21.07973 -11.53002 -11.46077 -11.43382
 Alpha  occ. eigenvalues --  -11.42228 -11.41333 -11.40674 -11.36798  -2.74708
 Alpha  occ. eigenvalues --   -1.79385  -1.49545  -1.44320  -1.43025  -1.30954
 Alpha  occ. eigenvalues --   -1.10261  -1.07967  -0.98695  -0.87655  -0.82904
 Alpha  occ. eigenvalues --   -0.74582  -0.67638  -0.64079  -0.62853  -0.62177
 Alpha  occ. eigenvalues --   -0.58491  -0.56386  -0.52665  -0.51332  -0.45927
 Alpha  occ. eigenvalues --   -0.41872  -0.39709  -0.33810  -0.27476  -0.24688
 Alpha  occ. eigenvalues --   -0.22856  -0.02455
 Alpha virt. eigenvalues --    0.03384   0.04851   0.05910   0.05947   0.06267
 Alpha virt. eigenvalues --    0.06890   0.07265   0.07973   0.08717   0.09085
 Alpha virt. eigenvalues --    0.10090   0.10287   0.11651   0.12610   0.12666

 Mulliken charges:
               1
     1  C   -3.790627
     2  C   -2.108771
     3  C    3.723352
     4  C    5.567928
     5  C   -3.110571
     6  C   -2.974361
     7  H    1.848758
     8  H    1.832500
     9  P    0.945651
    10  H    1.824932
    11  H    1.929064
    12  O   -4.708835
    13  C   -3.752713
    14  H    1.375959
    15  H    1.406482
    16  H    1.375959
    17  H   -0.692348
    18  H   -0.692359
 Sum of Mulliken charges =  -0.00000

 Dipole moment (field-independent basis, Debye):
    X=             -2.5601    Y=             -2.1701    Z=             -0.0001  Tot=              3.3562

 Test job not archived.
 1\1\GINC-SE402\SP\RHF\Aug-CC-pVDZ\C7H9O1P1\OHZDE\08-Apr-2025\0\\#t hf
 aug-cc-pvdz iop(5/13=1,5/36=2,99/5=2) pseudo=read geom=check guess=(re
 ad,tcheck) scf=(maxcycle=1)\\title\\0,1\C,0,-0.56461,1.403942,0.000002
 \C,0,0.810557,1.254028,0.000003\C,0,1.404077,-0.020953,0.\C,0,-1.39900
 6,0.275664,0.\C,0,-0.830856,-0.998866,-0.000003\C,0,0.559691,-1.131845
 ,-0.000004\H,0,-1.025976,2.384226,0.000004\H,0,1.435532,2.1401,0.00000
 5\P,0,3.224466,-0.315278,0.\H,0,0.987956,-2.128561,-0.000007\H,0,-1.44
 8008,-1.887106,-0.000006\O,0,-2.735138,0.531261,0.\C,0,-3.636839,-0.56

 Normal termination of Gaussian 16 at Tue Apr  8 23:34:20 2025.
