 Gaussian 16, Revision C.01,

 ----------------------------------------------------------------------
 #t hf aug-cc-pvdz symm=none int=(grid=ultrafine) guess=(read,tcheck) s
 table=(opt,rrhf)
 ----------------------------------------------------------------------
 -----
 title
 -----
 Symbolic Z-matrix:
 Charge =  0 Multiplicity = 1

 SCF Done:  E(RHF) =  -510.620459228     A.U. after   12 cycles

 1\1\GINC-SE105\Stability\RHF\Aug-CC-pVDZ\B2Cl1H3\OHZDE\08-Apr-2025\0\\
 #t hf aug-cc-pvdz symm=none int=(grid=ultrafine) guess=(read,tcheck) s
 table=(opt,rrhf)\\title\\0,1\B,0,1.905791,-0.26085,-0.000034\B,0,0.537
 251,0.668237,0.000203\Cl,0,-1.03255,-0.156835,-0.00006\H,0,2.422436,-0
 .615314,1.016735\H,0,2.423299,-0.613535,-1.016982\H,0,0.492404,1.85810
 4,0.000417\\Version=ES64L-G16RevC.01\HF=-510.6204592\RMSD=9.258e-09\Di
 pole=0.4666388,0.21742,0.0001055\Quadrupole=-0.4661074,0.2559188,0.210
 1885,1.0024806,0.0008107,0.0009683\PG=Unknown\\@

 Normal termination of Gaussian 16 at Tue Apr  8 23:40:06 2025.
 Gaussian 16:  ES64L-G16RevC.01  3-Jul-2019

 ----------------------------------------------------------------------
 #t hf aug-cc-pvdz iop(5/13=1,5/36=2,99/5=2) pseudo=read geom=check gue
 ss=(read,tcheck) scf=(maxcycle=1)
 ----------------------------------------------------------------------
 -----
 title
 -----
 Structure from the checkpoint file:  "BDE49_nonexpt_15_mol1.chk"
 Charge =  0 Multiplicity = 1

                         Standard orientation:
 ---------------------------------------------------------------------
 Center     Atomic      Atomic             Coordinates (Angstroms)
 Number     Number       Type             X           Y           Z
 ---------------------------------------------------------------------
      1          5           0       -1.905791   -0.260850    0.000034
      2          5           0       -0.537251    0.668237   -0.000203
      3         17           0        1.032550   -0.156835    0.000060
      4          1           0       -2.422436   -0.615314   -1.016735
      5          1           0       -2.423299   -0.613535    1.016982
      6          1           0       -0.492404    1.858104   -0.000417
 ---------------------------------------------------------------------

 SCF Done:  E(RHF) =  -511.102964400     A.U. after    2 cycles

 The electronic state is 1-A.
 Alpha  occ. eigenvalues --  -99.89231 -10.46470  -9.66408  -9.65956  -9.65788
 Alpha  occ. eigenvalues --   -7.64795  -7.61065  -1.33693  -0.92868  -0.74992
 Alpha  occ. eigenvalues --   -0.58090  -0.54280  -0.52644  -0.48867  -0.39900
 Alpha virt. eigenvalues --    0.01652   0.02287   0.02729   0.04630   0.07019
 Alpha virt. eigenvalues --    0.07401   0.08597   0.10127   0.10518   0.11599
 Alpha virt. eigenvalues --    0.12873   0.13311   0.14509   0.14663   0.17798

 Mulliken charges:
               1
     1  B    5.416276
     2  B    2.929684
     3  Cl  -1.111884
     4  H   -2.515824
     5  H   -2.515715
     6  H   -2.202537
 Sum of Mulliken charges =  -0.00000

 Dipole moment (field-independent basis, Debye):
    X=             -1.1202    Y=              0.4284    Z=             -0.0002  Tot=              1.1993

 Test job not archived.
 1\1\GINC-SE105\SP\RHF\Aug-CC-pVDZ\B2Cl1H3\OHZDE\08-Apr-2025\0\\#t hf a
 ug-cc-pvdz iop(5/13=1,5/36=2,99/5=2) pseudo=read geom=check guess=(rea
 d,tcheck) scf=(maxcycle=1)\\title\\0,1\B,0,1.905791,-0.26085,-0.000034
 \B,0,0.537251,0.668237,0.000203\Cl,0,-1.03255,-0.156835,-0.00006\H,0,2
 .422436,-0.615314,1.016735\H,0,2.423299,-0.613535,-1.016982\H,0,0.4924
 04,1.858104,0.000417\\Version=ES64L-G16RevC.01\State=1-A\HF=-511.10296
 44\RMSD=1.182e-01\Dipole=0.4407284,0.1685531,0.0000919\Quadrupole=-0.1
 42914,0.1536599,-0.0107459,1.5507076,0.0012066,0.0013938\PG=C01 [X(B2C

 Normal termination of Gaussian 16 at Tue Apr  8 23:40:08 2025.
