 Gaussian 16, Revision C.01,

 ----------------------------------------------------------------------
 #t hf aug-cc-pvdz symm=none int=(grid=ultrafine) guess=(read,tcheck) s
 table=(opt,rrhf)
 ----------------------------------------------------------------------
 -----
 title
 -----
 Symbolic Z-matrix:
 Charge =  0 Multiplicity = 1

 SCF Done:  E(RHF) =  -140.396855740     A.U. after   11 cycles
 Normal termination of Gaussian 16 at Wed Apr  9 00:29:40 2025.
 Gaussian 16:  ES64L-G16RevC.01  3-Jul-2019

 ----------------------------------------------------------------------
 #t hf aug-cc-pvdz iop(5/13=1,5/36=2,99/5=2) pseudo=read geom=check gue
 ss=(read,tcheck) scf=(maxcycle=1)
 ----------------------------------------------------------------------
 -----
 title
 -----
 Structure from the checkpoint file:  "BDE49_nonexpt_328_mol1.chk"
 Charge =  0 Multiplicity = 1

                         Standard orientation:
 ---------------------------------------------------------------------
 Center     Atomic      Atomic             Coordinates (Angstroms)
 Number     Number       Type             X           Y           Z
 ---------------------------------------------------------------------
      1          6           0        1.275561   -0.164127    0.000002
      2          5           0       -0.137504    0.520729    0.000010
      3          1           0        1.852682    0.165525   -0.872405
      4          1           0        1.258462   -1.259835   -0.000006
      5          1           0        1.852683    0.165512    0.872413
      6          8           0       -1.310354   -0.160563   -0.000007
      7          1           0       -0.252110    1.711510    0.000003
      8          1           0       -1.194731   -1.117091   -0.000013
 ---------------------------------------------------------------------

 SCF Done:  E(RHF) =  -141.042499015     A.U. after    2 cycles

 The electronic state is 1-A.
 Alpha  occ. eigenvalues --  -21.06088 -11.33563  -7.61088  -1.73987  -1.06583
 Alpha  occ. eigenvalues --   -0.76036  -0.58549  -0.57524  -0.55246  -0.46017
 Alpha  occ. eigenvalues --   -0.41669  -0.37646
 Alpha virt. eigenvalues --    0.02850   0.03858   0.04565   0.05184   0.07844
 Alpha virt. eigenvalues --    0.08483   0.08850   0.10682   0.12037   0.16136
 Alpha virt. eigenvalues --    0.16283   0.16516   0.17018   0.18066   0.21872

 Mulliken charges:
               1
     1  C   -5.584177
     2  B    7.896623
     3  H    1.315920
     4  H    1.018474
     5  H    1.315926
     6  O   -3.464812
     7  H   -3.631227
     8  H    1.133274
 Sum of Mulliken charges =  -0.00000

 Dipole moment (field-independent basis, Debye):
    X=              0.4174    Y=             -1.1988    Z=              0.0000  Tot=              1.2694

 Test job not archived.
 1\1\GINC-SE329\SP\RHF\Aug-CC-pVDZ\C1H5B1O1\OHZDE\09-Apr-2025\0\\#t hf
 aug-cc-pvdz iop(5/13=1,5/36=2,99/5=2) pseudo=read geom=check guess=(re
 ad,tcheck) scf=(maxcycle=1)\\title\\0,1\C,0,1.275561,-0.164127,0.00000
 2\B,0,-0.137504,0.520729,0.00001\H,0,1.852682,0.165525,-0.872405\H,0,1
 .258462,-1.259835,-0.000006\H,0,1.852683,0.165512,0.872413\O,0,-1.3103
 54,-0.160563,-0.000007\H,0,-0.25211,1.71151,0.000003\H,0,-1.194731,-1.
 117091,-0.000013\\Version=ES64L-G16RevC.01\State=1-A\HF=-141.042499\RM
 SD=2.028e-01\Dipole=0.1642288,-0.4716591,0.0000027\Quadrupole=-1.44650

 Normal termination of Gaussian 16 at Wed Apr  9 00:29:42 2025.
