 Gaussian 16, Revision C.01,

 ----------------------------------------------------------------------
 #t hf aug-cc-pvdz symm=none int=(grid=ultrafine) guess=(read,tcheck) s
 table=(opt,rrhf)
 ----------------------------------------------------------------------
 -----
 title
 -----
 Symbolic Z-matrix:
 Charge =  0 Multiplicity = 1

 SCF Done:  E(RHF) =  -436.369506853     A.U. after   17 cycles
 Normal termination of Gaussian 16 at Tue Apr  8 22:44:52 2025.
 Gaussian 16:  ES64L-G16RevC.01  3-Jul-2019

 ----------------------------------------------------------------------
 #t hf aug-cc-pvdz iop(5/13=1,5/36=2,99/5=2) pseudo=read geom=check gue
 ss=(read,tcheck) scf=(maxcycle=1)
 ----------------------------------------------------------------------
 -----
 title
 -----
 Structure from the checkpoint file:  "BDE49_expt_1420_mol1.chk"
 Charge =  0 Multiplicity = 1

                         Standard orientation:
 ---------------------------------------------------------------------
 Center     Atomic      Atomic             Coordinates (Angstroms)
 Number     Number       Type             X           Y           Z
 ---------------------------------------------------------------------
      1          6           0       -1.545306   -0.026068   -0.000000
      2          6           0       -0.966511    1.255968   -0.000000
      3          6           0        0.407027    1.401311   -0.000000
      4          6           0       -0.711530   -1.149396   -0.000000
      5          6           0        0.671697   -1.008249   -0.000000
      6          6           0        1.239284    0.271386   -0.000000
      7          1           0       -1.150010   -2.139661   -0.000000
      8          1           0        1.292042   -1.893660   -0.000000
      9          8           0        2.570353    0.523616   -0.000000
     10          6           0        3.478598   -0.572722    0.000001
     11          1           0        4.473219   -0.131233    0.000001
     12          1           0        3.356661   -1.191993   -0.894884
     13          1           0        3.356661   -1.191993    0.894885
     14          1           0       -1.605106    2.130534   -0.000000
     15          1           0        0.868788    2.380646   -0.000000
     16          6           0       -2.965285   -0.178887   -0.000000
     17          7           0       -4.114703   -0.301660   -0.000000
 ---------------------------------------------------------------------

 SCF Done:  E(RHF) =  -438.366938663     A.U. after    2 cycles

 The electronic state is 1-A.
 Alpha  occ. eigenvalues --  -21.09814 -15.75407 -11.56425 -11.49281 -11.46868
 Alpha  occ. eigenvalues --  -11.46693 -11.43455 -11.43084 -11.42808 -11.39528
 Alpha  occ. eigenvalues --   -1.81309  -1.37501  -1.27947  -1.13028  -1.12341
 Alpha  occ. eigenvalues --   -1.02009  -0.90553  -0.88232  -0.77365  -0.69511
 Alpha  occ. eigenvalues --   -0.65979  -0.64359  -0.63603  -0.60830  -0.57950
 Alpha  occ. eigenvalues --   -0.55795  -0.54001  -0.50121  -0.48997  -0.48137
 Alpha  occ. eigenvalues --   -0.42643  -0.41370  -0.40484  -0.36065  -0.28080
 Alpha virt. eigenvalues --    0.02620   0.04259   0.05134   0.05411   0.06214
 Alpha virt. eigenvalues --    0.06374   0.07187   0.08423   0.09513   0.10082
 Alpha virt. eigenvalues --    0.10595   0.10813   0.12144   0.12339   0.12595

 Mulliken charges:
               1
     1  C    5.073672
     2  C   -1.749256
     3  C   -3.583957
     4  C   -1.406188
     5  C   -2.706794
     6  C    4.462954
     7  H    1.764411
     8  H    1.869306
     9  O   -4.753239
    10  C   -3.728264
    11  H    1.445166
    12  H    1.377051
    13  H    1.377052
    14  H    1.775726
    15  H    1.887633
    16  C   -0.917960
    17  N   -2.187313
 Sum of Mulliken charges =  -0.00000

 Dipole moment (field-independent basis, Debye):
    X=              5.7207    Y=             -0.0143    Z=              0.0000  Tot=              5.7207

 Test job not archived.
 1\1\GINC-SE048\SP\RHF\Aug-CC-pVDZ\C8H7N1O1\OHZDE\08-Apr-2025\0\\#t hf
 aug-cc-pvdz iop(5/13=1,5/36=2,99/5=2) pseudo=read geom=check guess=(re
 ad,tcheck) scf=(maxcycle=1)\\title\\0,1\C,0,-1.545306,-0.026068,0.\C,0
 ,-0.966511,1.255968,0.\C,0,0.407027,1.401311,0.\C,0,-0.71153,-1.149396
 ,0.\C,0,0.671697,-1.008249,0.\C,0,1.239284,0.271386,0.\H,0,-1.15001,-2
 .139661,0.\H,0,1.292042,-1.89366,0.\O,0,2.570353,0.523616,0.\C,0,3.478
 598,-0.572722,0.000001\H,0,4.473219,-0.131233,0.000001\H,0,3.356661,-1
 .191993,-0.894884\H,0,3.356661,-1.191993,0.894885\H,0,-1.605106,2.1305

 Normal termination of Gaussian 16 at Tue Apr  8 22:45:00 2025.
