 Gaussian 16, Revision C.01,

 ----------------------------------------------------------------------
 #t hf aug-cc-pvdz symm=none int=(grid=ultrafine) guess=(read,tcheck) s
 table=opt
 ----------------------------------------------------------------------
 -----
 title
 -----
 Symbolic Z-matrix:
 Charge =  0 Multiplicity = 2

 SCF Done:  E(UHF) =  -411.061869966     A.U. after   16 cycles
 Normal termination of Gaussian 16 at Tue Apr  8 22:56:35 2025.
 Gaussian 16:  ES64L-G16RevC.01  3-Jul-2019

 ----------------------------------------------------------------------
 #t hf aug-cc-pvdz iop(5/13=1,5/36=2,99/5=2) pseudo=read geom=check gue
 ss=(read,tcheck) scf=(maxcycle=1)
 ----------------------------------------------------------------------
 -----
 title
 -----
 Structure from the checkpoint file:  "BDE49_expt_1845_mol2.chk"
 Charge =  0 Multiplicity = 2

                         Standard orientation:
 ---------------------------------------------------------------------
 Center     Atomic      Atomic             Coordinates (Angstroms)
 Number     Number       Type             X           Y           Z
 ---------------------------------------------------------------------
      1          8           0        0.745813   -0.000018    1.172235
      2          6           0        0.005322   -0.000013    0.042181
      3          9           0        0.891279   -0.001014   -0.964436
      4          9           0       -0.778087    1.079356   -0.053254
      5          9           0       -0.779686   -1.078318   -0.052417
 ---------------------------------------------------------------------

 SCF Done:  E(UHF) =  -412.472580854     A.U. after    2 cycles

 The electronic state is 2-A.
 Alpha  occ. eigenvalues --  -29.34689 -29.34042 -29.33996 -21.20102 -11.63077
 Alpha  occ. eigenvalues --   -1.87128  -1.33295  -0.96261  -0.94290  -0.72419
 Alpha  occ. eigenvalues --   -0.54860  -0.50469  -0.48968  -0.46445  -0.45315
 Alpha  occ. eigenvalues --   -0.37050  -0.35598  -0.35448  -0.28288  -0.27264
 Alpha  occ. eigenvalues --   -0.24324
 Alpha virt. eigenvalues --    0.09759   0.11625   0.11844   0.13898   0.18108
 Alpha virt. eigenvalues --    0.20504   0.21228   0.21286   0.21844   0.22234
 Alpha virt. eigenvalues --    0.30942   0.31021   0.33439   0.33692   0.36275

  Beta  occ. eigenvalues --  -29.34430 -29.34017 -29.33970 -21.16348 -11.63316
  Beta  occ. eigenvalues --   -1.76579  -1.30431  -0.94313  -0.94118  -0.70058
  Beta  occ. eigenvalues --   -0.50400  -0.47559  -0.46306  -0.44535  -0.40704
  Beta  occ. eigenvalues --   -0.34445  -0.34203  -0.29588  -0.26770  -0.24235
  Beta virt. eigenvalues --    0.08997   0.10135   0.11871   0.13022   0.13953
  Beta virt. eigenvalues --    0.18363   0.21170   0.21306   0.21869   0.22280
  Beta virt. eigenvalues --    0.24204   0.31164   0.33303   0.33715   0.34180

 Mulliken charges and spin densities:
               1          2
     1  O   -1.833266   1.080861
     2  C   -0.269569  -0.168768
     3  F    0.711830   0.072068
     4  F    0.695540   0.007934
     5  F    0.695464   0.007905
 Sum of Mulliken charges =   0.00000   1.00000

 Dipole moment (field-independent basis, Debye):
    X=             -1.0868    Y=              0.0001    Z=             -2.0561  Tot=              2.3256
                          Isotropic Fermi Contact Couplings
        Atom                 a.u.       MegaHertz       Gauss      10(-4) cm-1
     1  O(17)              0.18398    -111.52678     -39.79553     -37.20133
     2  C(13)             -0.01747     -19.64256      -7.00895      -6.55205
     3  F(19)              0.03190     134.22280      47.89403      44.77191
     4  F(19)             -0.00003      -0.11636      -0.04152      -0.03881
     5  F(19)             -0.00004      -0.16306      -0.05818      -0.05439
 --------------------------------------------------------
       Center         ----  Spin Dipole Couplings  ----
                      3XX-RR        3YY-RR        3ZZ-RR

 Normal termination of Gaussian 16 at Tue Apr  8 22:56:37 2025.
