 Gaussian 16, Revision C.01,

 ----------------------------------------------------------------------
 #t hf aug-cc-pvdz symm=none int=(grid=ultrafine) guess=(read,tcheck) s
 table=(opt,rrhf)
 ----------------------------------------------------------------------
 -----
 title
 -----
 Symbolic Z-matrix:
 Charge =  0 Multiplicity = 1

 SCF Done:  E(RHF) =  -483.306382188     A.U. after   12 cycles
 Normal termination of Gaussian 16 at Wed Apr  9 00:03:45 2025.
 Gaussian 16:  ES64L-G16RevC.01  3-Jul-2019

 ----------------------------------------------------------------------
 #t hf aug-cc-pvdz iop(5/13=1,5/36=2,99/5=2) pseudo=read geom=check gue
 ss=(read,tcheck) scf=(maxcycle=1)
 ----------------------------------------------------------------------
 -----
 title
 -----
 Structure from the checkpoint file:  "BDE49_nonexpt_2167_mol1.chk"
 Charge =  0 Multiplicity = 1

                         Standard orientation:
 ---------------------------------------------------------------------
 Center     Atomic      Atomic             Coordinates (Angstroms)
 Number     Number       Type             X           Y           Z
 ---------------------------------------------------------------------
      1         14           0       -0.472483    0.065404    0.333336
      2          8           0       -0.446241    1.591022   -0.329255
      3          1           0       -1.091549    2.235909   -0.033211
      4          6           0        1.067123   -0.786933   -0.306023
      5          6           0        2.385343   -0.084885    0.066128
      6          1           0        0.977662   -0.868008   -1.396309
      7          1           0        1.066272   -1.817111    0.072321
      8          1           0        2.513144   -0.029806    1.151288
      9          1           0        2.406465    0.937310   -0.318870
     10          6           0       -2.028073   -0.869164   -0.139960
     11          1           0       -2.100880   -0.994866   -1.224280
     12          1           0       -2.929608   -0.350058    0.200156
     13          1           0       -2.032326   -1.864339    0.316859
     14          1           0        3.251728   -0.614507   -0.340692
     15          1           0       -0.422573    0.167530    1.819197
 ---------------------------------------------------------------------

 SCF Done:  E(RHF) =  -484.410176134     A.U. after    2 cycles

 The electronic state is 1-A.
 Alpha  occ. eigenvalues --  -76.20774 -21.06263 -11.38571 -11.34273 -11.33622
 Alpha  occ. eigenvalues --   -5.54905  -2.21535  -2.18699  -2.17074  -1.64745
 Alpha  occ. eigenvalues --   -1.14156  -1.03130  -0.88272  -0.69974  -0.61256
 Alpha  occ. eigenvalues --   -0.56809  -0.56332  -0.55620  -0.54672  -0.49209
 Alpha  occ. eigenvalues --   -0.47941  -0.44460  -0.39852  -0.37468  -0.35321
 Alpha virt. eigenvalues --    0.03544   0.04923   0.05506   0.06208   0.06344
 Alpha virt. eigenvalues --    0.06591   0.06922   0.07305   0.08086   0.08653
 Alpha virt. eigenvalues --    0.09198   0.10100   0.10305   0.12964   0.14418

 Mulliken charges:
               1
     1  Si   6.800849
     2  O   -2.890909
     3  H    1.113111
     4  C   -4.196383
     5  C   -3.706111
     6  H    1.492618
     7  H    1.382082
     8  H    1.315543
     9  H    1.289976
    10  C   -5.281083
    11  H    1.273846
    12  H    1.208987
    13  H    1.300381
    14  H    1.097957
    15  H   -2.200864
 Sum of Mulliken charges =   0.00000

 Dipole moment (field-independent basis, Debye):
    X=             -0.3724    Y=              0.0517    Z=             -0.4225  Tot=              0.5656

 Test job not archived.
 1\1\GINC-SE096\SP\RHF\Aug-CC-pVDZ\C3H10O1Si1\OHZDE\09-Apr-2025\0\\#t h
 f aug-cc-pvdz iop(5/13=1,5/36=2,99/5=2) pseudo=read geom=check guess=(
 read,tcheck) scf=(maxcycle=1)\\title\\0,1\Si,0,-0.472483,0.065404,0.33
 3336\O,0,-0.446241,1.591022,-0.329255\H,0,-1.091549,2.235909,-0.033211
 \C,0,1.067123,-0.786933,-0.306023\C,0,2.385343,-0.084885,0.066128\H,0,
 0.977662,-0.868008,-1.396309\H,0,1.066272,-1.817111,0.072321\H,0,2.513
 144,-0.029806,1.151288\H,0,2.406465,0.93731,-0.31887\C,0,-2.028073,-0.
 869164,-0.13996\H,0,-2.10088,-0.994866,-1.22428\H,0,-2.929608,-0.35005

 Normal termination of Gaussian 16 at Wed Apr  9 00:03:50 2025.
