 Gaussian 16, Revision C.01,

 ----------------------------------------------------------------------
 #t hf aug-cc-pvdz symm=none int=(grid=ultrafine) guess=(read,tcheck) s
 table=(opt,rrhf)
 ----------------------------------------------------------------------
 -----
 title
 -----
 Symbolic Z-matrix:
 Charge =  0 Multiplicity = 1

 SCF Done:  E(RHF) =  -423.171110072     A.U. after   12 cycles
 Normal termination of Gaussian 16 at Tue Apr  8 23:58:24 2025.
 Gaussian 16:  ES64L-G16RevC.01  3-Jul-2019

 ----------------------------------------------------------------------
 #t hf aug-cc-pvdz iop(5/13=1,5/36=2,99/5=2) pseudo=read geom=check gue
 ss=(read,tcheck) scf=(maxcycle=1)
 ----------------------------------------------------------------------
 -----
 title
 -----
 Structure from the checkpoint file:  "BDE49_nonexpt_2060_mol1.chk"
 Charge =  0 Multiplicity = 1

                         Standard orientation:
 ---------------------------------------------------------------------
 Center     Atomic      Atomic             Coordinates (Angstroms)
 Number     Number       Type             X           Y           Z
 ---------------------------------------------------------------------
      1         14           0        1.719144   -0.064587    0.000001
      2          6           0       -0.096217    0.450957    0.000008
      3          7           0       -1.008670   -0.434224   -0.000010
      4          1           0       -0.354733    1.527949    0.000027
      5          6           0       -2.396274   -0.001286   -0.000003
      6          1           0       -2.896460   -0.420233   -0.878176
      7          1           0       -2.516075    1.092807    0.000017
      8          1           0       -2.896461   -0.420265    0.878155
      9          1           0        1.828121   -1.536578   -0.000046
     10          1           0        2.391612    0.500999    1.195714
     11          1           0        2.391625    0.501076   -1.195668
 ---------------------------------------------------------------------

 SCF Done:  E(RHF) =  -423.977726602     A.U. after    2 cycles

 The electronic state is 1-A.
 Alpha  occ. eigenvalues --  -76.21707 -15.74523 -11.39364 -11.38550  -5.55255
 Alpha  occ. eigenvalues --   -2.19279  -2.17644  -2.17233  -1.37859  -1.02380
 Alpha  occ. eigenvalues --   -0.83831  -0.74436  -0.61288  -0.59405  -0.59128
 Alpha  occ. eigenvalues --   -0.47976  -0.47082  -0.45637  -0.40193  -0.35291
 Alpha virt. eigenvalues --    0.03843   0.04755   0.05489   0.06512   0.06654
 Alpha virt. eigenvalues --    0.07028   0.07115   0.09140   0.09847   0.09969
 Alpha virt. eigenvalues --    0.11038   0.12542   0.14623   0.15383   0.15690

 Mulliken charges:
               1
     1  Si   6.098137
     2  C   -1.037668
     3  N   -2.337623
     4  H    1.456383
     5  C   -3.156377
     6  H    1.327246
     7  H    1.239360
     8  H    1.327244
     9  H   -1.593026
    10  H   -1.661839
    11  H   -1.661837
 Sum of Mulliken charges =   0.00000

 Dipole moment (field-independent basis, Debye):
    X=             -0.9356    Y=              0.9113    Z=              0.0000  Tot=              1.3061

 Test job not archived.
 1\1\GINC-SE069\SP\RHF\Aug-CC-pVDZ\C2H7N1Si1\OHZDE\08-Apr-2025\0\\#t hf
  aug-cc-pvdz iop(5/13=1,5/36=2,99/5=2) pseudo=read geom=check guess=(r
 ead,tcheck) scf=(maxcycle=1)\\title\\0,1\Si,0,1.719144,-0.064587,0.000
 001\C,0,-0.096217,0.450957,0.000008\N,0,-1.00867,-0.434224,-0.00001\H,
 0,-0.354733,1.527949,0.000027\C,0,-2.396274,-0.001286,-0.000003\H,0,-2
 .89646,-0.420233,-0.878176\H,0,-2.516075,1.092807,0.000017\H,0,-2.8964
 61,-0.420265,0.878155\H,0,1.828121,-1.536578,-0.000046\H,0,2.391612,0.
 500999,1.195714\H,0,2.391625,0.501076,-1.195668\\Version=ES64L-G16RevC

 Normal termination of Gaussian 16 at Tue Apr  8 23:58:27 2025.
