 Gaussian 16, Revision C.01,

 ----------------------------------------------------------------------
 #t hf aug-cc-pvdz symm=none int=(grid=ultrafine) guess=(read,tcheck) s
 table=(opt,rrhf)
 ----------------------------------------------------------------------
 -----
 title
 -----
 Symbolic Z-matrix:
 Charge =  0 Multiplicity = 1

 SCF Done:  E(RHF) =  -419.357446417     A.U. after   12 cycles
 Normal termination of Gaussian 16 at Tue Apr  8 23:26:57 2025.
 Gaussian 16:  ES64L-G16RevC.01  3-Jul-2019

 ----------------------------------------------------------------------
 #t hf aug-cc-pvdz iop(5/13=1,5/36=2,99/5=2) pseudo=read geom=check gue
 ss=(read,tcheck) scf=(maxcycle=1)
 ----------------------------------------------------------------------
 -----
 title
 -----
 Structure from the checkpoint file:  "BDE49_nonexpt_1289_mol1.chk"
 Charge =  0 Multiplicity = 1

                         Standard orientation:
 ---------------------------------------------------------------------
 Center     Atomic      Atomic             Coordinates (Angstroms)
 Number     Number       Type             X           Y           Z
 ---------------------------------------------------------------------
      1         15           0       -1.111296    0.053035   -0.110733
      2          6           0        0.628321   -0.504376    0.011226
      3          6           0        1.710022    0.272150    0.017160
      4          1           0        0.752102   -1.585035   -0.031442
      5          1           0        1.643331    1.355058    0.048589
      6          1           0        2.709130   -0.151091   -0.009574
      7          1           0       -0.912935    1.387974    0.324770
      8          1           0       -1.552239   -0.409082    1.158330
 ---------------------------------------------------------------------

 SCF Done:  E(RHF) =  -419.937236482     A.U. after    2 cycles

 The electronic state is 1-A.
 Alpha  occ. eigenvalues -- -105.17993 -11.41689 -11.37760  -2.75284  -1.48483
 Alpha  occ. eigenvalues --   -1.44336  -1.42522  -1.12283  -0.82466  -0.71090
 Alpha  occ. eigenvalues --   -0.61076  -0.53477  -0.38088  -0.25677  -0.23468
 Alpha  occ. eigenvalues --   -0.02499
 Alpha virt. eigenvalues --    0.03856   0.05999   0.06209   0.06501   0.08840
 Alpha virt. eigenvalues --    0.09458   0.09884   0.11641   0.14231   0.15083
 Alpha virt. eigenvalues --    0.15096   0.16015   0.16891   0.19431   0.19741

 Mulliken charges:
               1
     1  P    2.412214
     2  C   -2.270361
     3  C   -3.074605
     4  H    1.175979
     5  H    1.393382
     6  H    1.349962
     7  H   -0.632656
     8  H   -0.353916
 Sum of Mulliken charges =  -0.00000

 Dipole moment (field-independent basis, Debye):
    X=             -0.4648    Y=             -0.6025    Z=             -2.1464  Tot=              2.2773

 Test job not archived.
 1\1\GINC-SE073\SP\RHF\Aug-CC-pVDZ\C2H5P1\OHZDE\08-Apr-2025\0\\#t hf au
 g-cc-pvdz iop(5/13=1,5/36=2,99/5=2) pseudo=read geom=check guess=(read
 ,tcheck) scf=(maxcycle=1)\\title\\0,1\P,0,-1.111296,0.053035,-0.110733
 \C,0,0.628321,-0.504376,0.011226\C,0,1.710022,0.27215,0.01716\H,0,0.75
 2103,-1.585035,-0.031442\H,0,1.643331,1.355058,0.048589\H,0,2.70913,-0
 .151091,-0.009574\H,0,-0.912935,1.387974,0.32477\H,0,-1.552239,-0.4090
 83,1.15833\\Version=ES64L-G16RevC.01\State=1-A\HF=-419.9372365\RMSD=6.
 359e-01\Dipole=-0.1828549,-0.2370277,-0.8444523\Quadrupole=0.5619159,2

 Normal termination of Gaussian 16 at Tue Apr  8 23:26:59 2025.
