 Gaussian 16, Revision C.01,

 ----------------------------------------------------------------------
 #t hf aug-cc-pvdz symm=none int=(grid=ultrafine) guess=(read,tcheck) s
 table=(opt,rrhf)
 ----------------------------------------------------------------------
 -----
 title
 -----
 Symbolic Z-matrix:
 Charge =  0 Multiplicity = 1

 SCF Done:  E(RHF) =  -488.255339659     A.U. after   13 cycles
 Normal termination of Gaussian 16 at Tue Apr  8 23:17:50 2025.
 Gaussian 16:  ES64L-G16RevC.01  3-Jul-2019

 ----------------------------------------------------------------------
 #t hf aug-cc-pvdz iop(5/13=1,5/36=2,99/5=2) pseudo=read geom=check gue
 ss=(read,tcheck) scf=(maxcycle=1)
 ----------------------------------------------------------------------
 -----
 title
 -----
 Structure from the checkpoint file:  "BDE49_nonexpt_101_mol1.chk"
 Charge =  0 Multiplicity = 1

                         Standard orientation:
 ---------------------------------------------------------------------
 Center     Atomic      Atomic             Coordinates (Angstroms)
 Number     Number       Type             X           Y           Z
 ---------------------------------------------------------------------
      1          5           0        2.094742    0.610923   -0.000001
      2          5           0        1.075668   -0.687660   -0.000316
      3         16           0       -0.699469   -0.678450    0.000014
      4          6           0       -1.201751    1.090062    0.000088
      5          1           0       -2.291082    1.117367    0.000276
      6          1           0       -0.832741    1.590522   -0.894458
      7          1           0       -0.832434    1.590543    0.894495
      8          1           0        2.497587    1.101136   -1.013952
      9          1           0        2.496943    1.101187    1.014182
     10          1           0        1.511695   -1.802239    0.000287
 ---------------------------------------------------------------------

 SCF Done:  E(RHF) =  -488.933272386     A.U. after    2 cycles

 The electronic state is 1-A.
 Alpha  occ. eigenvalues --  -75.68149 -13.12773 -13.08941 -13.03096 -11.40181
 Alpha  occ. eigenvalues --   -8.02205  -7.60468  -7.59784  -1.21311  -0.98795
 Alpha  occ. eigenvalues --   -0.88304  -0.68460  -0.59491  -0.59354  -0.48444
 Alpha  occ. eigenvalues --   -0.46102  -0.41589  -0.31298  -0.28081
 Alpha virt. eigenvalues --    0.01135   0.02166   0.02944   0.03482   0.06523
 Alpha virt. eigenvalues --    0.07537   0.08555   0.08819   0.08888   0.09327
 Alpha virt. eigenvalues --    0.10946   0.11227   0.12990   0.13251   0.13675

 Mulliken charges:
               1
     1  B    5.203899
     2  B    3.717584
     3  S   -0.941636
     4  C   -4.814942
     5  H    1.366924
     6  H    1.487563
     7  H    1.487851
     8  H   -2.526896
     9  H   -2.526252
    10  H   -2.454093
 Sum of Mulliken charges =   0.00000

 Dipole moment (field-independent basis, Debye):
    X=             -1.9858    Y=              0.0120    Z=              0.0005  Tot=              1.9858

 Test job not archived.
 1\1\GINC-SE096\SP\RHF\Aug-CC-pVDZ\C1H6B2S1\OHZDE\08-Apr-2025\0\\#t hf
 aug-cc-pvdz iop(5/13=1,5/36=2,99/5=2) pseudo=read geom=check guess=(re
 ad,tcheck) scf=(maxcycle=1)\\title\\0,1\B,0,2.094742,0.610923,-0.00000
 1\B,0,1.075668,-0.68766,-0.000316\S,0,-0.699469,-0.67845,0.000014\C,0,
 -1.201751,1.090062,0.000088\H,0,-2.291082,1.117368,0.000276\H,0,-0.832
 74,1.590522,-0.894458\H,0,-0.832433,1.590543,0.894495\H,0,2.497587,1.1
 01136,-1.013952\H,0,2.496943,1.101187,1.014182\H,0,1.511695,-1.802239,
 0.000287\\Version=ES64L-G16RevC.01\State=1-A\HF=-488.9332724\RMSD=1.29

 Normal termination of Gaussian 16 at Tue Apr  8 23:17:53 2025.
