 Gaussian 16, Revision C.01,

 ----------------------------------------------------------------------
 #t hf aug-cc-pvdz symm=none int=(grid=ultrafine) guess=(read,tcheck) s
 table=(opt,rrhf)
 ----------------------------------------------------------------------
 -----
 title
 -----
 Symbolic Z-matrix:
 Charge =  0 Multiplicity = 1

 SCF Done:  E(RHF) =  -986.582927623     A.U. after   13 cycles
 Normal termination of Gaussian 16 at Tue Apr  8 23:41:27 2025.
 Gaussian 16:  ES64L-G16RevC.01  3-Jul-2019

 ----------------------------------------------------------------------
 #t hf aug-cc-pvdz iop(5/13=1,5/36=2,99/5=2) pseudo=read geom=check gue
 ss=(read,tcheck) scf=(maxcycle=1)
 ----------------------------------------------------------------------
 -----
 title
 -----
 Structure from the checkpoint file:  "BDE49_nonexpt_1627_mol1.chk"
 Charge =  0 Multiplicity = 1

                         Standard orientation:
 ---------------------------------------------------------------------
 Center     Atomic      Atomic             Coordinates (Angstroms)
 Number     Number       Type             X           Y           Z
 ---------------------------------------------------------------------
      1         15           0        1.160247   -0.010825   -0.719248
      2         15           0       -0.919160    0.135437   -0.022174
      3          6           0        1.854094    1.402927    0.269097
      4          6           0        1.730060   -1.475928    0.274032
      5          1           0        1.682519    1.291113    1.341181
      6          1           0        1.394570    2.331170   -0.074465
      7          1           0        2.928463    1.460995    0.078650
      8          8           0       -1.609538    1.380481   -0.398330
      9          8           0       -1.644435   -1.202843   -0.583985
     10          1           0        1.224391   -2.371677   -0.090928
     11          1           0        1.534785   -1.363402    1.341036
     12          1           0        2.803265   -1.601483    0.109195
     13          1           0       -2.104012   -1.019463   -1.412918
     14          8           0       -0.857663   -0.196649    1.553322
     15          1           0       -1.692130   -0.006340    2.002743
 ---------------------------------------------------------------------

 SCF Done:  E(RHF) =  -988.329297442     A.U. after    2 cycles

 The electronic state is 1-A.
 Alpha  occ. eigenvalues -- -105.29759-105.18105 -21.11411 -21.11021 -21.01782
 Alpha  occ. eigenvalues --  -11.38333 -11.38232  -2.91779  -2.76690  -1.96393
 Alpha  occ. eigenvalues --   -1.88375  -1.79242  -1.55922  -1.49651  -1.47351
 Alpha  occ. eigenvalues --   -1.39656  -1.36599  -1.24698  -1.04049  -0.97792
 Alpha  occ. eigenvalues --   -0.70795  -0.62233  -0.60439  -0.58111  -0.57383
 Alpha  occ. eigenvalues --   -0.57148  -0.55923  -0.51274  -0.44470  -0.40983
 Alpha  occ. eigenvalues --   -0.33784  -0.33312  -0.29328  -0.21180  -0.18665
 Alpha  occ. eigenvalues --   -0.06364   0.04282
 Alpha virt. eigenvalues --    0.05051   0.05750   0.05907   0.06108   0.06790
 Alpha virt. eigenvalues --    0.07061   0.07459   0.07914   0.10946   0.11491
 Alpha virt. eigenvalues --    0.11723   0.12199   0.12866   0.14696   0.14821

 Mulliken charges:
               1
     1  P    5.736020
     2  P    9.924342
     3  C   -5.221685
     4  C   -5.122599
     5  H    1.425080
     6  H    1.231077
     7  H   -0.446942
     8  O   -2.968644
     9  O   -2.907749
    10  H    0.729435
    11  H    1.790635
    12  H   -0.855584
    13  H    0.343052
    14  O   -3.175097
    15  H   -0.481342
 Sum of Mulliken charges =  -0.00000

 Dipole moment (field-independent basis, Debye):
    X=             -6.7933    Y=              2.9788    Z=            -13.9624  Tot=             15.8105

 Test job not archived.
 1\1\GINC-SE048\SP\RHF\Aug-CC-pVDZ\C2H8O3P2\OHZDE\08-Apr-2025\0\\#t hf
 aug-cc-pvdz iop(5/13=1,5/36=2,99/5=2) pseudo=read geom=check guess=(re
 ad,tcheck) scf=(maxcycle=1)\\title\\0,1\P,0,1.160247,-0.010825,-0.7192
 48\P,0,-0.91916,0.135437,-0.022174\C,0,1.854094,1.402927,0.269097\C,0,
 1.73006,-1.475928,0.274032\H,0,1.682519,1.291113,1.341181\H,0,1.394569
 ,2.33117,-0.074465\H,0,2.928463,1.460996,0.07865\O,0,-1.609538,1.38048
 1,-0.39833\O,0,-1.644435,-1.202843,-0.583985\H,0,1.224391,-2.371677,-0
 .090928\H,0,1.534785,-1.363402,1.341036\H,0,2.803265,-1.601482,0.10919

 Normal termination of Gaussian 16 at Tue Apr  8 23:41:33 2025.
