 Gaussian 16, Revision C.01,

 ----------------------------------------------------------------------
 #t hf aug-cc-pvdz symm=none int=(grid=ultrafine) guess=(read,tcheck) s
 table=(opt,rrhf)
 ----------------------------------------------------------------------
 -----
 title
 -----
 Symbolic Z-matrix:
 Charge =  0 Multiplicity = 1

 SCF Done:  E(RHF) =  -675.403926977     A.U. after   16 cycles
 Normal termination of Gaussian 16 at Wed Apr  9 00:45:14 2025.
 Gaussian 16:  ES64L-G16RevC.01  3-Jul-2019

 ----------------------------------------------------------------------
 #t hf aug-cc-pvdz iop(5/13=1,5/36=2,99/5=2) pseudo=read geom=check gue
 ss=(read,tcheck) scf=(maxcycle=1)
 ----------------------------------------------------------------------
 -----
 title
 -----
 Structure from the checkpoint file:  "BDE49_nonexpt_714_mol1.chk"
 Charge =  0 Multiplicity = 1

                         Standard orientation:
 ---------------------------------------------------------------------
 Center     Atomic      Atomic             Coordinates (Angstroms)
 Number     Number       Type             X           Y           Z
 ---------------------------------------------------------------------
      1          5           0       -2.313564    0.241284    0.208431
      2          6           0       -2.022389    1.682969    0.758599
      3          6           0        0.613837   -0.317360   -0.375872
      4          6           0       -3.701750   -0.450698    0.478373
      5          1           0       -3.946146   -1.290852   -0.176709
      6          1           0       -3.669877   -0.846465    1.504689
      7          1           0       -4.533632    0.262697    0.461412
      8          1           0       -0.965917    1.951255    0.828360
      9          1           0       -2.494991    1.847007    1.733431
     10          1           0       -2.494743    2.406205    0.076878
     11          6           0        1.274928    0.840806   -0.807914
     12          6           0        1.299294   -1.202444    0.467840
     13          6           0        2.603832   -0.931962    0.872478
     14          6           0        3.243526    0.232822    0.452177
     15          6           0        2.573434    1.119649   -0.387037
     16          1           0        3.065811    2.023756   -0.727901
     17          1           0        0.775275    1.524684   -1.485962
     18          1           0        3.118778   -1.629879    1.523644
     19          1           0        4.257655    0.443999    0.771753
     20          1           0        0.810040   -2.106245    0.813516
     21         15           0       -1.093516   -0.643390   -0.970400
     22          1           0       -1.259961   -1.984414   -0.561123
 ---------------------------------------------------------------------

 SCF Done:  E(RHF) =  -677.247451184     A.U. after    2 cycles

 The electronic state is 1-A.
 Alpha  occ. eigenvalues -- -105.15701 -11.51619 -11.43221 -11.43013 -11.40854
 Alpha  occ. eigenvalues --  -11.40521 -11.36260 -11.33781 -11.33358  -7.60341
 Alpha  occ. eigenvalues --   -2.73632  -1.51591  -1.47076  -1.43096  -1.32464
 Alpha  occ. eigenvalues --   -1.11557  -1.09056  -1.07458  -1.00779  -0.86170
 Alpha  occ. eigenvalues --   -0.85063  -0.75718  -0.69420  -0.63106  -0.61236
 Alpha  occ. eigenvalues --   -0.58211  -0.56476  -0.56031  -0.54586  -0.54256
 Alpha  occ. eigenvalues --   -0.52825  -0.50332  -0.48583  -0.44687  -0.41938
 Alpha  occ. eigenvalues --   -0.33906  -0.33054  -0.24209  -0.13196  -0.02126
 Alpha virt. eigenvalues --    0.03224   0.04107   0.04733   0.05207   0.05578
 Alpha virt. eigenvalues --    0.05793   0.06738   0.07521   0.07705   0.08011
 Alpha virt. eigenvalues --    0.08410   0.09080   0.09469   0.09626   0.09877

 Mulliken charges:
               1
     1  B    4.876457
     2  C   -5.836664
     3  C    2.610260
     4  C   -6.209153
     5  H    1.355741
     6  H    1.145564
     7  H    1.073873
     8  H    1.480227
     9  H    1.210538
    10  H    0.954346
    11  C   -3.314530
    12  C   -3.700965
    13  C   -0.419684
    14  C   -2.491801
    15  C   -0.795236
    16  H    1.569640
    17  H    2.118596
    18  H    1.554211
    19  H    1.505447
    20  H    1.925840
    21  P    0.871312
    22  H   -1.484021
 Sum of Mulliken charges =   0.00000

 Dipole moment (field-independent basis, Debye):
    X=              2.7941    Y=             -0.4221    Z=             -4.4735  Tot=              5.2913

 Test job not archived.
 1\1\GINC-SE328\SP\RHF\Aug-CC-pVDZ\C8H12B1P1\OHZDE\09-Apr-2025\0\\#t hf
  aug-cc-pvdz iop(5/13=1,5/36=2,99/5=2) pseudo=read geom=check guess=(r
 ead,tcheck) scf=(maxcycle=1)\\title\\0,1\B,0,-2.313564,0.241284,0.2084
 31\C,0,-2.022389,1.682969,0.758599\C,0,0.613837,-0.31736,-0.375872\C,0
 ,-3.70175,-0.450698,0.478373\H,0,-3.946146,-1.290852,-0.176709\H,0,-3.
 669877,-0.846465,1.504689\H,0,-4.533632,0.262697,0.461412\H,0,-0.96591
 7,1.951255,0.82836\H,0,-2.494991,1.847007,1.733431\H,0,-2.494743,2.406
 205,0.076878\C,0,1.274928,0.840806,-0.807914\C,0,1.299294,-1.202444,0.

 Normal termination of Gaussian 16 at Wed Apr  9 00:45:27 2025.
