 Gaussian 16, Revision C.01,

 ----------------------------------------------------------------------
 #t hf aug-cc-pvdz symm=none int=(grid=ultrafine) guess=(read,tcheck) s
 table=opt
 ----------------------------------------------------------------------
 -----
 title
 -----
 Symbolic Z-matrix:
 Charge =  0 Multiplicity = 2

 SCF Done:  E(UHF) =  -315.849153812     A.U. after   18 cycles

 1\1\GINC-SE059\Stability\UHF\Aug-CC-pVDZ\B1H4Si1\OHZDE\09-Apr-2025\0\\
 #t hf aug-cc-pvdz symm=none int=(grid=ultrafine) guess=(read,tcheck) s
 table=opt\\title\\0,2\H,0,2.48989,0.483338,-0.020035\B,0,1.482988,-0.1
 41249,-0.014235\Si,0,-0.490109,0.013442,-0.003244\H,0,-0.883717,-0.273
 091,1.402567\H,0,-1.068242,1.329536,-0.387101\H,0,-1.091352,-1.021719,
 -0.878847\\Version=ES64L-G16RevC.01\HF=-315.8491538\S2=0.758405\S2-1=0
 .\S2A=0.750026\RMSD=2.765e-09\Dipole=0.1125692,0.1714924,-0.0558176\Qu
 adrupole=-0.2906594,-0.9460617,1.2367211,0.7672457,-0.1574539,0.142289

 Normal termination of Gaussian 16 at Wed Apr  9 00:35:16 2025.
 Gaussian 16:  ES64L-G16RevC.01  3-Jul-2019

 ----------------------------------------------------------------------
 #t hf aug-cc-pvdz iop(5/13=1,5/36=2,99/5=2) pseudo=read geom=check gue
 ss=(read,tcheck) scf=(maxcycle=1)
 ----------------------------------------------------------------------
 -----
 title
 -----
 Structure from the checkpoint file:  "BDE49_nonexpt_459_mol2.chk"
 Charge =  0 Multiplicity = 2

                         Standard orientation:
 ---------------------------------------------------------------------
 Center     Atomic      Atomic             Coordinates (Angstroms)
 Number     Number       Type             X           Y           Z
 ---------------------------------------------------------------------
      1          1           0        2.489890    0.483338   -0.020035
      2          5           0        1.482988   -0.141249   -0.014235
      3         14           0       -0.490109    0.013442   -0.003244
      4          1           0       -0.883717   -0.273091    1.402567
      5          1           0       -1.068242    1.329536   -0.387101
      6          1           0       -1.091352   -1.021719   -0.878847
 ---------------------------------------------------------------------

 SCF Done:  E(UHF) =  -316.108477582     A.U. after    2 cycles

 The electronic state is 2-A.
 Alpha  occ. eigenvalues --  -76.21351  -7.64735  -5.54819  -2.17451  -2.16796
 Alpha  occ. eigenvalues --   -2.16660  -0.85458  -0.70480  -0.48240  -0.47243
 Alpha  occ. eigenvalues --   -0.42623  -0.29562
 Alpha virt. eigenvalues --    0.01861   0.03404   0.04090   0.05381   0.07488
 Alpha virt. eigenvalues --    0.08217   0.08706   0.09028   0.10437   0.11076
 Alpha virt. eigenvalues --    0.11907   0.14389   0.15989   0.19311   0.19707

  Beta  occ. eigenvalues --  -76.21372  -7.63149  -5.54849  -2.17542  -2.16814
  Beta  occ. eigenvalues --   -2.16639  -0.82112  -0.67540  -0.47238  -0.46595
  Beta  occ. eigenvalues --   -0.40703
  Beta virt. eigenvalues --    0.02676   0.03465   0.03518   0.04160   0.07991
  Beta virt. eigenvalues --    0.08165   0.08778   0.09058   0.09295   0.11101
  Beta virt. eigenvalues --    0.11396   0.12168   0.15050   0.16201   0.19622

 Mulliken charges and spin densities:
               1          2
     1  H   -0.849943  -0.046445
     2  B   -0.830383   1.097998
     3  Si   6.381843  -0.080696
     4  H   -1.487645  -0.010366
     5  H   -1.606744   0.038075
     6  H   -1.607128   0.001435
 Sum of Mulliken charges =  -0.00000   1.00000

 Dipole moment (field-independent basis, Debye):
    X=              0.3919    Y=              0.5492    Z=             -0.1997  Tot=              0.7036
                          Isotropic Fermi Contact Couplings
        Atom                 a.u.       MegaHertz       Gauss      10(-4) cm-1
     1  H(1)              -0.00936     -41.84802     -14.93242     -13.95900
     2  B(11)              0.10922     156.65693      55.89909      52.25513
     3  Si(29)            -0.00446       3.96043       1.41318       1.32106
     4  H(1)              -0.00125      -5.58807      -1.99396      -1.86398
     5  H(1)               0.01294      57.84770      20.64150      19.29591
     6  H(1)               0.00049       2.19465       0.78311       0.73206
 --------------------------------------------------------
       Center         ----  Spin Dipole Couplings  ----

 Normal termination of Gaussian 16 at Wed Apr  9 00:35:18 2025.
