 Gaussian 16, Revision C.01,

 ----------------------------------------------------------------------
 #t hf aug-cc-pvdz symm=none int=(grid=ultrafine) guess=(read,tcheck) s
 table=(opt,rrhf)
 ----------------------------------------------------------------------
 -----
 title
 -----
 Symbolic Z-matrix:
 Charge =  0 Multiplicity = 1

 SCF Done:  E(RHF) =  -1053.75210074     A.U. after   15 cycles
 Normal termination of Gaussian 16 at Tue Apr  8 23:51:39 2025.
 Gaussian 16:  ES64L-G16RevC.01  3-Jul-2019

 ----------------------------------------------------------------------
 #t hf aug-cc-pvdz iop(5/13=1,5/36=2,99/5=2) pseudo=read geom=check gue
 ss=(read,tcheck) scf=(maxcycle=1)
 ----------------------------------------------------------------------
 -----
 title
 -----
 Structure from the checkpoint file:  "BDE49_nonexpt_1874_mol1.chk"
 Charge =  0 Multiplicity = 1

                         Standard orientation:
 ---------------------------------------------------------------------
 Center     Atomic      Atomic             Coordinates (Angstroms)
 Number     Number       Type             X           Y           Z
 ---------------------------------------------------------------------
      1          6           0       -0.826370   -1.072302    0.671124
      2         14           0        0.690700   -1.200412   -0.479298
      3          6           0       -1.930196   -0.259414    0.094042
      4          8           0       -2.994997   -0.597751   -0.280539
      5         17           0       -1.435997    1.528443   -0.065324
      6          6           0        1.994096    0.069663    0.197047
      7          1           0        0.318051   -0.987854   -1.895113
      8          1           0        1.279992   -2.549567   -0.317779
      9          8           0        2.004972    0.222274    1.401746
     10          6           0        2.957039    0.786659   -0.719044
     11          1           0        2.394152    1.427417   -1.406396
     12          1           0        3.503469    0.063839   -1.334930
     13          1           0        3.656652    1.388455   -0.137122
     14          1           0       -0.436813   -0.600851    1.578493
     15          1           0       -1.220561   -2.063018    0.904845
 ---------------------------------------------------------------------

 SCF Done:  E(RHF) =  -1055.50329412     A.U. after    2 cycles

 The electronic state is 1-A.
 Alpha  occ. eigenvalues --  -99.89650 -76.24927 -21.10752 -21.07623 -11.56558
 Alpha  occ. eigenvalues --  -11.48495 -11.41499 -11.39781 -10.46875  -9.66772
 Alpha  occ. eigenvalues --   -9.66284  -9.66058  -5.58572  -2.22661  -2.21879
 Alpha  occ. eigenvalues --   -2.20887  -1.76750  -1.72038  -1.31489  -1.13918
 Alpha  occ. eigenvalues --   -1.11832  -0.85305  -0.80574  -0.72203  -0.67862
 Alpha  occ. eigenvalues --   -0.63126  -0.61918  -0.60387  -0.58940  -0.56566
 Alpha  occ. eigenvalues --   -0.54271  -0.51057  -0.49881  -0.49165  -0.47713
 Alpha  occ. eigenvalues --   -0.43907  -0.42001  -0.35182  -0.28270
 Alpha virt. eigenvalues --    0.03056   0.04296   0.05164   0.05969   0.06073
 Alpha virt. eigenvalues --    0.06393   0.07298   0.07835   0.08179   0.08542
 Alpha virt. eigenvalues --    0.09204   0.10476   0.11240   0.12024   0.12312

 Mulliken charges:
               1
     1  C   -3.907239
     2  Si   5.866151
     3  C    2.565194
     4  O   -2.724080
     5  Cl  -0.099507
     6  C    1.859665
     7  H   -1.790459
     8  H   -2.052221
     9  O   -2.698645
    10  C   -3.813512
    11  H    1.330466
    12  H    1.314902
    13  H    1.279183
    14  H    1.617188
    15  H    1.252915
 Sum of Mulliken charges =  -0.00000

 Dipole moment (field-independent basis, Debye):
    X=              0.7380    Y=             -2.4153    Z=              0.0655  Tot=              2.5264

 Test job not archived.
 1\1\GINC-SE128\SP\RHF\Aug-CC-pVDZ\C4H7Cl1O2Si1\OHZDE\08-Apr-2025\0\\#t
  hf aug-cc-pvdz iop(5/13=1,5/36=2,99/5=2) pseudo=read geom=check guess
 =(read,tcheck) scf=(maxcycle=1)\\title\\0,1\C,0,-0.82637,-1.072302,0.6
 71124\Si,0,0.6907,-1.200412,-0.479298\C,0,-1.930196,-0.259414,0.094042
 \O,0,-2.994997,-0.59775,-0.280539\Cl,0,-1.435997,1.528443,-0.065324\C,
 0,1.994096,0.069663,0.197047\H,0,0.318051,-0.987854,-1.895113\H,0,1.27
 9992,-2.549567,-0.317779\O,0,2.004972,0.222274,1.401746\C,0,2.957039,0
 .786658,-0.719044\H,0,2.394152,1.427417,-1.406396\H,0,3.503469,0.06383

 Normal termination of Gaussian 16 at Tue Apr  8 23:51:45 2025.
