 Gaussian 16, Revision C.01,

 ----------------------------------------------------------------------
 #t hf aug-cc-pvdz symm=none int=(grid=ultrafine) guess=(read,tcheck) s
 table=(opt,rrhf)
 ----------------------------------------------------------------------
 -----
 title
 -----
 Symbolic Z-matrix:
 Charge =  0 Multiplicity = 1

 SCF Done:  E(RHF) =  -525.276864505     A.U. after   15 cycles
 Normal termination of Gaussian 16 at Tue Apr  8 22:39:26 2025.
 Gaussian 16:  ES64L-G16RevC.01  3-Jul-2019

 ----------------------------------------------------------------------
 #t hf aug-cc-pvdz iop(5/13=1,5/36=2,99/5=2) pseudo=read geom=check gue
 ss=(read,tcheck) scf=(maxcycle=1)
 ----------------------------------------------------------------------
 -----
 title
 -----
 Structure from the checkpoint file:  "BDE49_expt_1214_mol1.chk"
 Charge =  0 Multiplicity = 1

                         Standard orientation:
 ---------------------------------------------------------------------
 Center     Atomic      Atomic             Coordinates (Angstroms)
 Number     Number       Type             X           Y           Z
 ---------------------------------------------------------------------
      1          6           0        0.000004    0.555940    0.000009
      2          7           0       -1.203748   -0.405097   -0.185287
      3          8           0       -2.186262   -0.213682    0.502800
      4          8           0       -1.076810   -1.250479   -1.050656
      5          6           0       -0.143337    1.363671    1.274306
      6          7           0        1.203718   -0.405160    0.185228
      7          8           0        2.186278   -0.213668   -0.502774
      8          8           0        1.076775   -1.250562    1.050578
      9          1           0       -0.279738    0.707405    2.131677
     10          1           0       -1.003306    2.027228    1.194023
     11          1           0        0.757685    1.964522    1.415926
     12          6           0        0.143372    1.363766   -1.274225
     13          1           0       -0.757628    1.964665   -1.415793
     14          1           0        0.279743    0.707562   -2.131648
     15          1           0        1.003367    2.027282   -1.193893
 ---------------------------------------------------------------------

 SCF Done:  E(RHF) =  -527.567409305     A.U. after    2 cycles

 The electronic state is 1-A.
 Alpha  occ. eigenvalues --  -21.12528 -21.12464 -21.12012 -21.11917 -16.02021
 Alpha  occ. eigenvalues --  -16.01966 -11.56965 -11.45827 -11.42015  -2.03802
 Alpha  occ. eigenvalues --   -2.00963  -1.72432  -1.71987  -1.34612  -1.08496
 Alpha  occ. eigenvalues --   -1.06567  -1.00893  -0.78962  -0.75986  -0.74309
 Alpha  occ. eigenvalues --   -0.70027  -0.67726  -0.63308  -0.63018  -0.59983
 Alpha  occ. eigenvalues --   -0.59452  -0.58648  -0.58300  -0.52355  -0.38918
 Alpha  occ. eigenvalues --   -0.36365  -0.34517  -0.34112  -0.33238  -0.32526
 Alpha virt. eigenvalues --    0.03217   0.04612   0.05008   0.05481   0.06135
 Alpha virt. eigenvalues --    0.07074   0.09735   0.10491   0.12178   0.12818
 Alpha virt. eigenvalues --    0.13451   0.13657   0.14356   0.14838   0.15696

 Mulliken charges:
               1
     1  C    2.698274
     2  N    4.066370
     3  O   -2.838614
     4  O   -3.081852
     5  C   -3.253016
     6  N    4.066410
     7  O   -2.838654
     8  O   -3.081843
     9  H    1.396449
    10  H    1.175123
    11  H    1.186365
    12  C   -3.252958
    13  H    1.186373
    14  H    1.396436
    15  H    1.175136
 Sum of Mulliken charges =  -0.00000

 Dipole moment (field-independent basis, Debye):
    X=              0.0000    Y=              2.7243    Z=              0.0001  Tot=              2.7243

 Test job not archived.
 1\1\GINC-SE227\SP\RHF\Aug-CC-pVDZ\C3H6N2O4\OHZDE\08-Apr-2025\0\\#t hf
 aug-cc-pvdz iop(5/13=1,5/36=2,99/5=2) pseudo=read geom=check guess=(re
 ad,tcheck) scf=(maxcycle=1)\\title\\0,1\C,0,0.000004,0.55594,0.000009\
 N,0,-1.203748,-0.405096,-0.185287\O,0,-2.186262,-0.213681,0.5028\O,0,-
 1.07681,-1.250479,-1.050656\C,0,-0.143337,1.363671,1.274306\N,0,1.2037
 18,-0.40516,0.185228\O,0,2.186278,-0.213669,-0.502774\O,0,1.076775,-1.
 250562,1.050578\H,0,-0.279738,0.707405,2.131677\H,0,-1.003305,2.027228
 ,1.194023\H,0,0.757686,1.964522,1.415926\C,0,0.143372,1.363766,-1.2742

 Normal termination of Gaussian 16 at Tue Apr  8 22:39:32 2025.
