 Gaussian 16, Revision C.01,

 ----------------------------------------------------------------------
 #t hf aug-cc-pvdz symm=none int=(grid=ultrafine) guess=(read,tcheck) s
 table=opt
 ----------------------------------------------------------------------
 -----
 title
 -----
 Symbolic Z-matrix:
 Charge =  0 Multiplicity = 2

 SCF Done:  E(UHF) =  -523.788178228     a.u. after   13 cycles
 Normal termination of Gaussian 16 at Tue Apr  8 22:58:10 2025.
 Gaussian 16:  ES64L-G16RevC.01  3-Jul-2019

 ----------------------------------------------------------------------
 #t hf aug-cc-pvdz iop(5/13=1,5/36=2,99/5=2) pseudo=read geom=check gue
 ss=(read,tcheck) scf=(maxcycle=1)
 ----------------------------------------------------------------------
 -----
 title
 -----
 Structure from the checkpoint file:  "BDE49_expt_1873_mol2.chk"
 Charge =  0 Multiplicity = 2

                         Standard orientation:
 ---------------------------------------------------------------------
 Center     Atomic      Atomic             Coordinates (Angstroms)
 Number     Number       Type             X           Y           Z
 ---------------------------------------------------------------------
      1          8           0        1.622932   -1.051398   -0.000827
      2          6           0        0.952643    0.000004   -0.011417
      3          8           0        1.622935    1.051397   -0.000828
      4          6           0       -0.587964    0.000001   -0.005407
      5          9           0       -1.048285   -1.090320   -0.623427
      6          9           0       -1.048290    1.090335   -0.623398
      7          9           0       -1.031759   -0.000018    1.259512
 ---------------------------------------------------------------------

 SCF Done:  E(UHF) =  -525.658381152     A.U. after    2 cycles

 The electronic state is 2-A.
 Alpha  occ. eigenvalues --  -29.36031 -29.35680 -29.35287 -21.24481 -21.10089
 Alpha  occ. eigenvalues --  -11.66267 -11.56858  -1.92963  -1.68337  -1.46428
 Alpha  occ. eigenvalues --   -0.96962  -0.94033  -0.93531  -0.74662  -0.63491
 Alpha  occ. eigenvalues --   -0.62080  -0.53925  -0.51270  -0.47871  -0.47218
 Alpha  occ. eigenvalues --   -0.41674  -0.40400  -0.38549  -0.36892  -0.31411
 Alpha  occ. eigenvalues --   -0.30137  -0.29013  -0.25571
 Alpha virt. eigenvalues --    0.08061   0.10292   0.10900   0.11649   0.11871
 Alpha virt. eigenvalues --    0.12005   0.13085   0.15441   0.17456   0.19406
 Alpha virt. eigenvalues --    0.19756   0.22882   0.23693   0.24561   0.24670

  Beta  occ. eigenvalues --  -29.36034 -29.35671 -29.35255 -21.20603 -21.09739
  Beta  occ. eigenvalues --  -11.66202 -11.57103  -1.85327  -1.62890  -1.46013
  Beta  occ. eigenvalues --   -0.95628  -0.93978  -0.93410  -0.70213  -0.62141
  Beta  occ. eigenvalues --   -0.56771  -0.51883  -0.47909  -0.47413  -0.42642
  Beta  occ. eigenvalues --   -0.40382  -0.39920  -0.35539  -0.31197  -0.30152
  Beta  occ. eigenvalues --   -0.28982  -0.25587
  Beta virt. eigenvalues --    0.06767   0.08273   0.10498   0.10882   0.11834
  Beta virt. eigenvalues --    0.12006   0.12846   0.13410   0.15562   0.17568
  Beta virt. eigenvalues --    0.19729   0.19849   0.22907   0.23945   0.24769

 Mulliken charges and spin densities:
               1          2
     1  O   -2.075107   1.136871
     2  C    3.623456  -0.307711
     3  O   -2.396143   0.043973
     4  C   -0.930657   0.099511
     5  F    0.580011   0.008743
     6  F    0.593786   0.014237
     7  F    0.604654   0.004377
 Sum of Mulliken charges =   0.00000   1.00000

 Dipole moment (field-independent basis, Debye):
    X=             -2.9383    Y=             -0.7873    Z=              0.0379  Tot=              3.0422
                          Isotropic Fermi Contact Couplings
        Atom                 a.u.       MegaHertz       Gauss      10(-4) cm-1
     1  O(17)              0.19493    -118.16806     -42.16530     -39.41662
     2  C(13)             -0.03142     -35.32466     -12.60472     -11.78304
     3  O(17)              0.02058     -12.47263      -4.45055      -4.16042
     4  C(13)              0.00590       6.62757       2.36488       2.21072
     5  F(19)             -0.00124      -5.23544      -1.86813      -1.74635
     6  F(19)              0.00298      12.53768       4.47375       4.18212
     7  F(19)              0.00090       3.78018       1.34886       1.26093
 --------------------------------------------------------

 Normal termination of Gaussian 16 at Tue Apr  8 22:58:13 2025.
