 Gaussian 16, Revision C.01,

 ----------------------------------------------------------------------
 #t hf aug-cc-pvdz symm=none int=(grid=ultrafine) guess=(read,tcheck) s
 table=(opt,rrhf)
 ----------------------------------------------------------------------
 -----
 title
 -----
 Symbolic Z-matrix:
 Charge =  0 Multiplicity = 1

 SCF Done:  E(RHF) =  -852.713356350     A.U. after   15 cycles
 Normal termination of Gaussian 16 at Wed Apr  9 00:52:20 2025.
 Gaussian 16:  ES64L-G16RevC.01  3-Jul-2019

 ----------------------------------------------------------------------
 #t hf aug-cc-pvdz iop(5/13=1,5/36=2,99/5=2) pseudo=read geom=check gue
 ss=(read,tcheck) scf=(maxcycle=1)
 ----------------------------------------------------------------------
 -----
 title
 -----
 Structure from the checkpoint file:  "BDE49_nonexpt_925_mol1.chk"
 Charge =  0 Multiplicity = 1

                         Standard orientation:
 ---------------------------------------------------------------------
 Center     Atomic      Atomic             Coordinates (Angstroms)
 Number     Number       Type             X           Y           Z
 ---------------------------------------------------------------------
      1         17           0       -2.695136   -0.567524    0.021439
      2          8           0        2.261139   -2.081292    0.028734
      3          7           0       -1.495789    0.720409   -0.013563
      4          7           0        0.199061   -1.027899   -0.025429
      5          7           0        0.800547    1.111713   -0.131203
      6          6           0       -0.284574    0.274911   -0.052024
      7          6           0        1.581719   -1.089159    0.006891
      8          6           0        2.038965    0.370036    0.017975
      9          6           0        0.709322    2.546764    0.055077
     10          1           0       -0.406125   -1.835418   -0.022637
     11          1           0        2.551054    0.581699    0.966193
     12          1           0        2.741949    0.554162   -0.800275
     13          1           0        0.883499    2.835009    1.099503
     14          1           0        1.446489    3.045647   -0.578091
     15          1           0       -0.287989    2.872273   -0.235176
 ---------------------------------------------------------------------

 SCF Done:  E(RHF) =  -854.722923792     A.U. after    2 cycles

 The electronic state is 1-A.
 Alpha  occ. eigenvalues --  -99.90201 -21.06888 -15.81106 -15.77213 -15.76362
 Alpha  occ. eigenvalues --  -11.54884 -11.51737 -11.45495 -11.42196 -10.47324
 Alpha  occ. eigenvalues --   -9.67257  -9.66441  -9.66166  -1.74749  -1.59605
 Alpha  occ. eigenvalues --   -1.41288  -1.36767  -1.20752  -1.10568  -1.00339
 Alpha  occ. eigenvalues --   -0.87604  -0.82799  -0.72295  -0.71967  -0.64122
 Alpha  occ. eigenvalues --   -0.62532  -0.61180  -0.60143  -0.59842  -0.56787
 Alpha  occ. eigenvalues --   -0.54099  -0.53629  -0.51225  -0.48272  -0.42224
 Alpha  occ. eigenvalues --   -0.35053  -0.33131  -0.31606
 Alpha virt. eigenvalues --    0.02750   0.04781   0.05153   0.05938   0.06458
 Alpha virt. eigenvalues --    0.06543   0.07512   0.08845   0.09297   0.10268
 Alpha virt. eigenvalues --    0.11512   0.12071   0.12720   0.13205   0.13599

 Mulliken charges:
               1
     1  Cl   0.208375
     2  O   -3.442735
     3  N   -2.596061
     4  N   -2.367070
     5  N   -2.695366
     6  C    4.736051
     7  C    4.885290
     8  C   -2.949373
     9  C   -3.736991
    10  H    0.698526
    11  H    1.494708
    12  H    1.449721
    13  H    1.455324
    14  H    1.416652
    15  H    1.442948
 Sum of Mulliken charges =  -0.00000

 Dipole moment (field-independent basis, Debye):
    X=              3.5126    Y=              1.9145    Z=              0.0552  Tot=              4.0008

 Test job not archived.
 1\1\GINC-SE044\SP\RHF\Aug-CC-pVDZ\C4H6Cl1N3O1\OHZDE\09-Apr-2025\0\\#t
 hf aug-cc-pvdz iop(5/13=1,5/36=2,99/5=2) pseudo=read geom=check guess=
 (read,tcheck) scf=(maxcycle=1)\\title\\0,1\Cl,0,-2.695136,-0.567524,0.
 021439\O,0,2.261139,-2.081292,0.028734\N,0,-1.495789,0.720409,-0.01356
 3\N,0,0.199061,-1.027899,-0.025429\N,0,0.800547,1.111713,-0.131203\C,0
 ,-0.284574,0.274911,-0.052024\C,0,1.581719,-1.089159,0.006891\C,0,2.03
 8965,0.370036,0.017975\C,0,0.709322,2.546764,0.055077\H,0,-0.406125,-1
 .835418,-0.022637\H,0,2.551054,0.581699,0.966193\H,0,2.741949,0.554162

 Normal termination of Gaussian 16 at Wed Apr  9 00:52:27 2025.
