 Gaussian 16, Revision C.01,

 ----------------------------------------------------------------------
 #t hf aug-cc-pvdz symm=none int=(grid=ultrafine) guess=(read,tcheck) s
 table=(opt,rrhf)
 ----------------------------------------------------------------------
 -----
 title
 -----
 Symbolic Z-matrix:
 Charge =  0 Multiplicity = 1

 SCF Done:  E(RHF) =  -1070.65737284     A.U. after   14 cycles
 Normal termination of Gaussian 16 at Wed Apr  9 00:12:38 2025.
 Gaussian 16:  ES64L-G16RevC.01  3-Jul-2019

 ----------------------------------------------------------------------
 #t hf aug-cc-pvdz iop(5/13=1,5/36=2,99/5=2) pseudo=read geom=check gue
 ss=(read,tcheck) scf=(maxcycle=1)
 ----------------------------------------------------------------------
 -----
 title
 -----
 Structure from the checkpoint file:  "BDE49_nonexpt_2427_mol1.chk"
 Charge =  0 Multiplicity = 1

                         Standard orientation:
 ---------------------------------------------------------------------
 Center     Atomic      Atomic             Coordinates (Angstroms)
 Number     Number       Type             X           Y           Z
 ---------------------------------------------------------------------
      1         14           0        2.552073   -0.858311   -0.000002
      2         14           0        1.143831    1.034793    0.000197
      3          1           0        3.963561   -0.403405    0.000867
      4          1           0        2.302690   -1.675720   -1.209663
      5          1           0        2.301557   -1.676830    1.208674
      6          7           0       -0.508614    0.533521   -0.000721
      7          1           0        1.357983    1.867260   -1.204447
      8          1           0        1.357012    1.866336    1.205664
      9          6           0       -1.624564    0.115877   -0.000241
     10         16           0       -3.107361   -0.429894    0.000166
 ---------------------------------------------------------------------

 SCF Done:  E(RHF) =  -1071.60951532     A.U. after    2 cycles

 The electronic state is 1-A.
 Alpha  occ. eigenvalues --  -76.26516 -76.23228 -75.69019 -15.77990 -13.22249
 Alpha  occ. eigenvalues --  -13.00440 -13.00337 -11.54656  -8.03300  -5.60064
 Alpha  occ. eigenvalues --   -5.56666  -2.25437  -2.21806  -2.20894  -2.18738
 Alpha  occ. eigenvalues --   -2.18733  -2.17712  -1.39231  -1.14896  -0.87418
 Alpha  occ. eigenvalues --   -0.77653  -0.63451  -0.56702  -0.55970  -0.53717
 Alpha  occ. eigenvalues --   -0.49594  -0.48711  -0.47723  -0.37594  -0.27203
 Alpha  occ. eigenvalues --   -0.26721
 Alpha virt. eigenvalues --    0.03366   0.04038   0.04605   0.06096   0.07055
 Alpha virt. eigenvalues --    0.07250   0.07412   0.07489   0.08577   0.08797
 Alpha virt. eigenvalues --    0.08930   0.09131   0.11145   0.12084   0.12182

 Mulliken charges:
               1
     1  Si   4.293165
     2  Si   4.187522
     3  H   -1.566477
     4  H   -1.463002
     5  H   -1.462914
     6  N   -3.456048
     7  H   -1.562461
     8  H   -1.562627
     9  C    0.942271
    10  S    1.650572
 Sum of Mulliken charges =  -0.00000

 Dipole moment (field-independent basis, Debye):
    X=             -1.5102    Y=             -1.0273    Z=              0.0012  Tot=              1.8265

 Test job not archived.
 1\1\GINC-SE459\SP\RHF\Aug-CC-pVDZ\C1H5N1S1Si2\OHZDE\09-Apr-2025\0\\#t
 hf aug-cc-pvdz iop(5/13=1,5/36=2,99/5=2) pseudo=read geom=check guess=
 (read,tcheck) scf=(maxcycle=1)\\title\\0,1\Si,0,2.552073,-0.858311,-0.
 000002\Si,0,1.143831,1.034793,0.000197\H,0,3.963561,-0.403405,0.000867
 \H,0,2.30269,-1.67572,-1.209663\H,0,2.301557,-1.67683,1.208674\N,0,-0.
 508614,0.533521,-0.000721\H,0,1.357983,1.86726,-1.204447\H,0,1.357012,
 1.866336,1.205664\C,0,-1.624564,0.115877,-0.000241\S,0,-3.107361,-0.42
 9894,0.000166\\Version=ES64L-G16RevC.01\State=1-A\HF=-1071.6095153\RMS

 Normal termination of Gaussian 16 at Wed Apr  9 00:12:41 2025.
