 Gaussian 16, Revision C.01,

 ----------------------------------------------------------------------
 #t hf aug-cc-pvdz symm=none int=(grid=ultrafine) guess=(read,tcheck) s
 table=(opt,rrhf)
 ----------------------------------------------------------------------
 -----
 title
 -----
 Symbolic Z-matrix:
 Charge =  0 Multiplicity = 1

 SCF Done:  E(RHF) =  -899.645757011     A.U. after   12 cycles
 Normal termination of Gaussian 16 at Wed Apr  9 00:49:34 2025.
 Gaussian 16:  ES64L-G16RevC.01  3-Jul-2019

 ----------------------------------------------------------------------
 #t hf aug-cc-pvdz iop(5/13=1,5/36=2,99/5=2) pseudo=read geom=check gue
 ss=(read,tcheck) scf=(maxcycle=1)
 ----------------------------------------------------------------------
 -----
 title
 -----
 Structure from the checkpoint file:  "BDE49_nonexpt_882_mol1.chk"
 Charge =  0 Multiplicity = 1

                         Standard orientation:
 ---------------------------------------------------------------------
 Center     Atomic      Atomic             Coordinates (Angstroms)
 Number     Number       Type             X           Y           Z
 ---------------------------------------------------------------------
      1          5           0       -0.166753   -0.101252    0.000192
      2          6           0        0.980267   -1.187875    0.000075
      3          6           0        2.443885   -0.726109    0.000008
      4          1           0        2.679030   -0.127205    0.884569
      5          1           0        2.678925   -0.127128   -0.884529
      6          1           0        3.123989   -1.581929   -0.000070
      7         16           0        0.081274    1.698992   -0.000025
      8         16           0       -1.925200   -0.590850   -0.000056
      9          1           0        0.804656   -1.837897   -0.868069
     10          1           0        0.804756   -1.837970    0.868184
     11          1           0        1.424293    1.692422   -0.000104
     12          1           0       -1.723973   -1.920390   -0.000136
 ---------------------------------------------------------------------

 SCF Done:  E(RHF) =  -900.633130369     A.U. after    2 cycles

 The electronic state is 1-A.
 Alpha  occ. eigenvalues --  -75.69107 -75.68883 -13.17635 -13.15251 -13.11944
 Alpha  occ. eigenvalues --  -13.09076 -13.04665 -13.02880 -11.40569 -11.35121
 Alpha  occ. eigenvalues --   -8.03308  -8.02624  -7.65172  -1.24495  -1.12916
 Alpha  occ. eigenvalues --   -1.09518  -0.91611  -0.67250  -0.61844  -0.60383
 Alpha  occ. eigenvalues --   -0.53689  -0.49859  -0.49724  -0.46861  -0.35171
 Alpha  occ. eigenvalues --   -0.33972  -0.33686  -0.24616
 Alpha virt. eigenvalues --    0.02247   0.02928   0.03321   0.03422   0.06381
 Alpha virt. eigenvalues --    0.07398   0.07891   0.08166   0.08792   0.09803
 Alpha virt. eigenvalues --    0.10282   0.11586   0.11858   0.12881   0.14727

 Mulliken charges:
               1
     1  B    5.308794
     2  C   -4.465286
     3  C   -3.262979
     4  H    1.169256
     5  H    1.169331
     6  H    1.138116
     7  S   -2.930098
     8  S   -3.156206
     9  H    1.703232
    10  H    1.703827
    11  H    0.770974
    12  H    0.851040
 Sum of Mulliken charges =  -0.00000

 Dipole moment (field-independent basis, Debye):
    X=             -1.3933    Y=              1.4609    Z=             -0.0007  Tot=              2.0188

 Test job not archived.
 1\1\GINC-SE112\SP\RHF\Aug-CC-pVDZ\C2H7B1S2\OHZDE\09-Apr-2025\0\\#t hf
 aug-cc-pvdz iop(5/13=1,5/36=2,99/5=2) pseudo=read geom=check guess=(re
 ad,tcheck) scf=(maxcycle=1)\\title\\0,1\B,0,0.166753,-0.101252,-0.0001
 92\C,0,-0.980267,-1.187875,-0.000075\C,0,-2.443885,-0.726108,-0.000008
 \H,0,-2.67903,-0.127204,-0.884569\H,0,-2.678925,-0.127127,0.884529\H,0
 ,-3.123989,-1.581928,0.00007\S,0,-0.081273,1.698992,0.000025\S,0,1.925
 2,-0.590851,0.000056\H,0,-0.804657,-1.837897,0.868069\H,0,-0.804757,-1
 .83797,-0.868184\H,0,-1.424292,1.692423,0.000104\H,0,1.723972,-1.92039

 Normal termination of Gaussian 16 at Wed Apr  9 00:49:37 2025.
