 Gaussian 16, Revision C.01,

 ----------------------------------------------------------------------
 #t hf aug-cc-pvdz symm=none int=(grid=ultrafine) guess=(read,tcheck) s
 table=opt
 ----------------------------------------------------------------------
 -----
 title
 -----
 Symbolic Z-matrix:
 Charge =  0 Multiplicity = 2

 SCF Done:  E(UHF) =  -199.641258713     A.U. after   14 cycles
 Normal termination of Gaussian 16 at Wed Apr  9 00:30:41 2025.
 Gaussian 16:  ES64L-G16RevC.01  3-Jul-2019

 ----------------------------------------------------------------------
 #t hf aug-cc-pvdz iop(5/13=1,5/36=2,99/5=2) pseudo=read geom=check gue
 ss=(read,tcheck) scf=(maxcycle=1)
 ----------------------------------------------------------------------
 -----
 title
 -----
 Structure from the checkpoint file:  "BDE49_nonexpt_350_mol2.chk"
 Charge =  0 Multiplicity = 2

                         Standard orientation:
 ---------------------------------------------------------------------
 Center     Atomic      Atomic             Coordinates (Angstroms)
 Number     Number       Type             X           Y           Z
 ---------------------------------------------------------------------
      1          9           0       -1.170900   -0.095082   -0.000000
      2          8           0        1.178534   -0.094774    0.000000
      3          5           0        0.000000    0.535291    0.000000
      4          1           0        1.109827   -1.062528    0.000000
 ---------------------------------------------------------------------

 SCF Done:  E(UHF) =  -200.360623699     A.U. after    2 cycles

 The electronic state is 2-A'.
 Alpha  occ. eigenvalues --  -29.26450 -21.08773  -7.70580  -1.77557  -0.94022
 Alpha  occ. eigenvalues --   -0.71702  -0.53209  -0.51455  -0.46586  -0.36058
 Alpha  occ. eigenvalues --   -0.35526  -0.25128
 Alpha virt. eigenvalues --    0.03624   0.04247   0.05553   0.06439   0.11574
 Alpha virt. eigenvalues --    0.16484   0.19060   0.20881   0.22612   0.22996
 Alpha virt. eigenvalues --    0.23922   0.24321   0.25561   0.28670   0.29417

  Beta  occ. eigenvalues --  -29.26127 -21.08636  -7.68363  -1.76887  -0.90557
  Beta  occ. eigenvalues --   -0.70066  -0.50555  -0.49438  -0.41611  -0.35847
  Beta  occ. eigenvalues --   -0.34674
  Beta virt. eigenvalues --    0.03032   0.04145   0.04369   0.06433   0.09923
  Beta virt. eigenvalues --    0.13222   0.20023   0.20495   0.21492   0.23176
  Beta virt. eigenvalues --    0.23197   0.24729   0.25032   0.26401   0.29341

 Mulliken charges and spin densities:
               1          2
     1  F   -0.592802  -0.046486
     2  O   -2.422368  -0.242993
     3  B    2.000487   1.259673
     4  H    1.014683   0.029806
 Sum of Mulliken charges =  -0.00000   1.00000

 Dipole moment (field-independent basis, Debye):
    X=             -2.6912    Y=             -2.1330    Z=             -0.0000  Tot=              3.4340
                          Isotropic Fermi Contact Couplings
        Atom                 a.u.       MegaHertz       Gauss      10(-4) cm-1
     1  F(19)              0.10469     440.47880     157.17379     146.92791
     2  O(17)              0.21966    -133.15628     -47.51347     -44.41616
     3  B(11)              0.27718     397.57077     141.86314     132.61533
     4  H(1)               0.01375      61.44208      21.92406      20.49487
 --------------------------------------------------------
       Center         ----  Spin Dipole Couplings  ----
                      3XX-RR        3YY-RR        3ZZ-RR
 --------------------------------------------------------

 Normal termination of Gaussian 16 at Wed Apr  9 00:30:42 2025.
