 Gaussian 16, Revision C.01,

 ----------------------------------------------------------------------
 #t hf aug-cc-pvdz symm=none int=(grid=ultrafine) guess=(read,tcheck) s
 table=(opt,rrhf)
 ----------------------------------------------------------------------
 -----
 title
 -----
 Symbolic Z-matrix:
 Charge =  0 Multiplicity = 1

 SCF Done:  E(RHF) =  -1114.53882075     A.U. after   18 cycles
 Normal termination of Gaussian 16 at Tue Apr  8 23:01:11 2025.
 Gaussian 16:  ES64L-G16RevC.01  3-Jul-2019

 ----------------------------------------------------------------------
 #t hf aug-cc-pvdz iop(5/13=1,5/36=2,99/5=2) pseudo=read geom=check gue
 ss=(read,tcheck) scf=(maxcycle=1)
 ----------------------------------------------------------------------
 -----
 title
 -----
 Structure from the checkpoint file:  "BDE49_expt_1755_mol1.chk"
 Charge =  0 Multiplicity = 1

                         Standard orientation:
 ---------------------------------------------------------------------
 Center     Atomic      Atomic             Coordinates (Angstroms)
 Number     Number       Type             X           Y           Z
 ---------------------------------------------------------------------
      1          6           0        2.835273   -0.107146   -0.272554
      2          6           0        2.198342    0.601922    0.755041
      3          6           0        0.849566    0.383251    1.011868
      4          6           0        2.110679   -1.037343   -1.034704
      5          6           0        0.768453   -1.252262   -0.781007
      6          6           0        0.139492   -0.534598    0.241971
      7          1           0        2.740105    1.315756    1.359493
      8          1           0        0.349507    0.920345    1.807070
      9          1           0        2.630041   -1.581425   -1.813404
     10          1           0        0.208449   -1.981433   -1.351679
     11         16           0       -1.575355   -0.808263    0.578038
     12          8           0       -1.989698   -2.028136   -0.065811
     13          8           0       -1.832806   -0.525494    1.960015
     14          7           0       -2.384804    0.433149   -0.328074
     15          7           0       -2.259047    1.683299    0.185603
     16          8           0       -2.751046    2.548697   -0.504312
     17          6           0       -2.987210    0.205759   -1.643439
     18          1           0       -3.032095   -0.865418   -1.813284
     19          1           0       -2.397022    0.700714   -2.418570
     20          1           0       -3.991277    0.631225   -1.645826
     21          8           0        4.139883    0.028396   -0.603038
     22          6           0        4.946183    0.949590    0.127672
     23          1           0        4.570588    1.972915    0.027974
     24          1           0        5.938530    0.884176   -0.313550
     25          1           0        5.000485    0.677479    1.186542
 ---------------------------------------------------------------------

 SCF Done:  E(RHF) =  -1118.01386380     A.U. after    2 cycles

 The electronic state is 1-A.
 Alpha  occ. eigenvalues --  -75.92475 -21.10585 -21.10276 -21.06742 -21.06510
 Alpha  occ. eigenvalues --  -15.90035 -15.79392 -13.56319 -13.46025 -13.43273
 Alpha  occ. eigenvalues --  -11.56612 -11.49892 -11.47512 -11.46287 -11.43713
 Alpha  occ. eigenvalues --  -11.43537 -11.42077 -11.40241  -8.27612  -1.88569
 Alpha  occ. eigenvalues --   -1.85928  -1.81719  -1.67788  -1.46031  -1.35925
 Alpha  occ. eigenvalues --   -1.14994  -1.13310  -1.09971  -1.04711  -0.99291
 Alpha  occ. eigenvalues --   -0.91258  -0.87549  -0.81533  -0.74689  -0.71264
 Alpha  occ. eigenvalues --   -0.68077  -0.67062  -0.66173  -0.64713  -0.64414
 Alpha  occ. eigenvalues --   -0.62807  -0.61316  -0.57514  -0.56849  -0.55460
 Alpha  occ. eigenvalues --   -0.54829  -0.52920  -0.52222  -0.49307  -0.45874
 Alpha  occ. eigenvalues --   -0.45007  -0.42724  -0.41947  -0.41472  -0.38258
 Alpha  occ. eigenvalues --   -0.37647  -0.36544  -0.35938  -0.29404  -0.29304
 Alpha virt. eigenvalues --    0.02549   0.04269   0.04530   0.05254   0.05490
 Alpha virt. eigenvalues --    0.06000   0.06270   0.06883   0.07617   0.08146
 Alpha virt. eigenvalues --    0.08899   0.08941   0.09713   0.10262   0.11314

 Mulliken charges:
               1
     1  C    3.674191
     2  C   -1.443493
     3  C   -2.131047
     4  C   -2.319641
     5  C   -4.042681
     6  C    2.650218
     7  H    1.863475
     8  H    2.059491
     9  H    1.944036
    10  H    2.103318
    11  S    7.333771
    12  O   -3.043649
    13  O   -2.943077
    14  N   -1.151649
    15  N    0.687454
    16  O   -2.008049
    17  C   -3.381874
    18  H    1.582380
    19  H    1.502349
    20  H    1.410216
    21  O   -4.764973
    22  C   -3.830174
    23  H    1.403175
    24  H    1.437185
    25  H    1.409047
 Sum of Mulliken charges =  -0.00000

 Dipole moment (field-independent basis, Debye):
    X=              4.1177    Y=              0.4776    Z=             -2.0428  Tot=              4.6213

 Test job not archived.
 1\1\GINC-SE082\SP\RHF\Aug-CC-pVDZ\C8H10N2O4S1\OHZDE\08-Apr-2025\0\\#t
 hf aug-cc-pvdz iop(5/13=1,5/36=2,99/5=2) pseudo=read geom=check guess=
 (read,tcheck) scf=(maxcycle=1)\\title\\0,1\C,0,2.835273,-0.107146,-0.2
 72554\C,0,2.198342,0.601922,0.755041\C,0,0.849566,0.383251,1.011868\C,
 0,2.110679,-1.037343,-1.034704\C,0,0.768453,-1.252262,-0.781007\C,0,0.
 139492,-0.534598,0.241971\H,0,2.740105,1.315756,1.359493\H,0,0.349507,
 0.920345,1.80707\H,0,2.630041,-1.581425,-1.813404\H,0,0.208449,-1.9814
 33,-1.351679\S,0,-1.575355,-0.808263,0.578038\O,0,-1.989698,-2.028136,

 Normal termination of Gaussian 16 at Tue Apr  8 23:01:37 2025.
