 Gaussian 16, Revision C.01,

 ----------------------------------------------------------------------
 #t hf aug-cc-pvdz symm=none int=(grid=ultrafine) guess=(read,tcheck) s
 table=opt
 ----------------------------------------------------------------------
 -----
 title
 -----
 Symbolic Z-matrix:
 Charge =  0 Multiplicity = 2

 SCF Done:  E(UHF) =  -501.432565861     A.U. after   17 cycles
 Normal termination of Gaussian 16 at Wed Apr  9 00:50:02 2025.
 Gaussian 16:  ES64L-G16RevC.01  3-Jul-2019

 ----------------------------------------------------------------------
 #t hf aug-cc-pvdz iop(5/13=1,5/36=2,99/5=2) pseudo=read geom=check gue
 ss=(read,tcheck) scf=(maxcycle=1)
 ----------------------------------------------------------------------
 -----
 title
 -----
 Structure from the checkpoint file:  "BDE49_nonexpt_882_mol2.chk"
 Charge =  0 Multiplicity = 2

                         Standard orientation:
 ---------------------------------------------------------------------
 Center     Atomic      Atomic             Coordinates (Angstroms)
 Number     Number       Type             X           Y           Z
 ---------------------------------------------------------------------
      1          5           0        0.138529   -0.381008   -0.199607
      2          6           0       -1.142292    0.490360   -0.103167
      3          6           0       -2.473206   -0.256979    0.106571
      4          1           0       -2.474663   -0.800724    1.054512
      5          1           0       -2.644008   -0.985306   -0.689451
      6          1           0       -3.318150    0.436961    0.119057
      7         16           0        1.858963   -0.103694    0.028347
      8          1           0       -1.183681    1.049590   -1.051456
      9          1           0       -1.013194    1.259063    0.673882
     10          1           0        1.890625    1.204268    0.417509
 ---------------------------------------------------------------------

 SCF Done:  E(UHF) =  -502.161831608     A.U. after    2 cycles

 The electronic state is 2-A.
 Alpha  occ. eigenvalues --  -75.69751 -13.16229 -13.10711 -13.04467 -11.39230
 Alpha  occ. eigenvalues --  -11.34503  -8.03674  -7.64001  -1.20376  -1.12595
 Alpha  occ. eigenvalues --   -0.91205  -0.67853  -0.61180  -0.57666  -0.52375
 Alpha  occ. eigenvalues --   -0.49234  -0.49090  -0.35044  -0.30354  -0.29349
 Alpha virt. eigenvalues --    0.02902   0.03166   0.03992   0.04117   0.06813
 Alpha virt. eigenvalues --    0.07712   0.07778   0.08388   0.09806   0.11380
 Alpha virt. eigenvalues --    0.12061   0.13158   0.14021   0.14741   0.16563

  Beta  occ. eigenvalues --  -75.69799 -13.16485 -13.10807 -13.04643 -11.39196
  Beta  occ. eigenvalues --  -11.34494  -8.03687  -7.62213  -1.19124  -1.12271
  Beta  occ. eigenvalues --   -0.90743  -0.63126  -0.61010  -0.55990  -0.51018
  Beta  occ. eigenvalues --   -0.49033  -0.48292  -0.33999  -0.29892
  Beta virt. eigenvalues --    0.01735   0.03094   0.03581   0.04123   0.06819
  Beta virt. eigenvalues --    0.07450   0.07893   0.08289   0.08562   0.09856
  Beta virt. eigenvalues --    0.12568   0.13017   0.14097   0.14616   0.15336

 Mulliken charges and spin densities:
               1          2
     1  B    2.065015   1.211188
     2  C   -3.738497  -0.147205
     3  C   -3.620498   0.035444
     4  H    1.320714   0.002050
     5  H    1.373889   0.012186
     6  H    1.190651   0.004342
     7  S   -2.380185  -0.210164
     8  H    1.605635  -0.014967
     9  H    1.283008  -0.000695
    10  H    0.900268   0.107821
 Sum of Mulliken charges =  -0.00000   1.00000

 Dipole moment (field-independent basis, Debye):
    X=              0.9320    Y=              0.2434    Z=              0.0742  Tot=              0.9662
                          Isotropic Fermi Contact Couplings
        Atom                 a.u.       MegaHertz       Gauss      10(-4) cm-1
     1  B(11)              0.14875     213.36791      76.13497      71.17187
     2  C(13)              0.01035      11.64037       4.15357       3.88281
     3  C(13)              0.01827      20.54228       7.33000       6.85217
     4  H(1)              -0.00027      -1.18834      -0.42403      -0.39639
     5  H(1)              -0.00035      -1.56632      -0.55890      -0.52247
     6  H(1)              -0.00028      -1.26897      -0.45280      -0.42328
     7  S(33)              0.44283     152.10165      54.27365      50.73565
     8  H(1)              -0.00001      -0.04047      -0.01444      -0.01350

 Normal termination of Gaussian 16 at Wed Apr  9 00:50:05 2025.
