 Gaussian 16, Revision C.01,

 ----------------------------------------------------------------------
 #t hf aug-cc-pvdz symm=none int=(grid=ultrafine) guess=(read,tcheck) s
 table=opt
 ----------------------------------------------------------------------
 -----
 title
 -----
 Symbolic Z-matrix:
 Charge =  0 Multiplicity = 2

 SCF Done:  E(UHF) =  -231.567187169     A.U. after   17 cycles
 Normal termination of Gaussian 16 at Tue Apr  8 22:42:46 2025.
 Gaussian 16:  ES64L-G16RevC.01  3-Jul-2019

 ----------------------------------------------------------------------
 #t hf aug-cc-pvdz iop(5/13=1,5/36=2,99/5=2) pseudo=read geom=check gue
 ss=(read,tcheck) scf=(maxcycle=1)
 ----------------------------------------------------------------------
 -----
 title
 -----
 Structure from the checkpoint file:  "BDE49_expt_1386_mol2.chk"
 Charge =  0 Multiplicity = 2

                         Standard orientation:
 ---------------------------------------------------------------------
 Center     Atomic      Atomic             Coordinates (Angstroms)
 Number     Number       Type             X           Y           Z
 ---------------------------------------------------------------------
      1          6           0        0.000001   -0.026699    0.079757
      2          8           0       -0.000006    0.261214    1.428260
      3          6           0       -1.277142   -0.792358   -0.315075
      4          6           0        1.277180   -0.792299   -0.315075
      5          1           0        1.314641   -0.972117   -1.393213
      6          1           0        1.304467   -1.759028    0.193824
      7          1           0        2.161500   -0.224894   -0.018594
      8          6           0       -0.000033    1.389116   -0.577528
      9          1           0       -0.000030    1.262858   -1.663066
     10          1           0        0.888704    1.946603   -0.279758
     11          1           0       -0.888795    1.946562   -0.279758
     12          1           0       -1.304384   -1.759090    0.193824
     13          1           0       -1.314595   -0.972178   -1.393212
     14          1           0       -2.161491   -0.224995   -0.018594
 ---------------------------------------------------------------------

 SCF Done:  E(UHF) =  -232.643621503     A.U. after    2 cycles

 The electronic state is 2-A.
 Alpha  occ. eigenvalues --  -21.09754 -11.43886 -11.39763 -11.39332 -11.35586
 Alpha  occ. eigenvalues --   -1.72369  -1.18958  -1.02001  -1.01621  -0.77605
 Alpha  occ. eigenvalues --   -0.63051  -0.62533  -0.61769  -0.56309  -0.55351
 Alpha  occ. eigenvalues --   -0.52146  -0.48731  -0.47339  -0.43710  -0.37136
 Alpha  occ. eigenvalues --   -0.32662
 Alpha virt. eigenvalues --    0.03629   0.05661   0.05667   0.05772   0.06130
 Alpha virt. eigenvalues --    0.06179   0.06801   0.06914   0.09549   0.10519
 Alpha virt. eigenvalues --    0.14063   0.14216   0.14263   0.15470   0.15622

  Beta  occ. eigenvalues --  -21.06041 -11.44112 -11.39545 -11.39275 -11.35509
  Beta  occ. eigenvalues --   -1.61198  -1.16772  -1.01519  -1.01225  -0.76619
  Beta  occ. eigenvalues --   -0.62317  -0.61250  -0.60926  -0.55205  -0.55027
  Beta  occ. eigenvalues --   -0.52115  -0.46942  -0.45268  -0.41488  -0.29757
  Beta virt. eigenvalues --    0.03652   0.05485   0.05664   0.05766   0.05998
  Beta virt. eigenvalues --    0.06138   0.06715   0.06923   0.09550   0.10516
  Beta virt. eigenvalues --    0.11641   0.14274   0.14278   0.15484   0.15702

 Mulliken charges and spin densities:
               1          2
     1  C    3.513356  -0.648599
     2  O   -2.767698   1.248478
     3  C   -3.955844   0.048701
     4  C   -3.955847   0.048701
     5  H    1.233367  -0.002459
     6  H    1.203891   0.011023
     7  H    1.209749  -0.003894
     8  C   -3.892306   0.239974
     9  H    1.242160   0.003804
    10  H    1.261082   0.024800
    11  H    1.261082   0.024800
    12  H    1.203891   0.011023
    13  H    1.233368  -0.002459
    14  H    1.209748  -0.003894
 Sum of Mulliken charges =  -0.00000   1.00000

 Dipole moment (field-independent basis, Debye):
    X=              0.0000    Y=             -0.0235    Z=             -0.9450  Tot=              0.9453
                          Isotropic Fermi Contact Couplings
        Atom                 a.u.       MegaHertz       Gauss      10(-4) cm-1
     1  C(13)             -0.03120     -35.07473     -12.51553     -11.69967
     2  O(17)              0.19541    -118.45408     -42.26736     -39.51203
     3  C(13)              0.00806       9.06006       3.23286       3.02211
     4  C(13)              0.00806       9.06002       3.23284       3.02210
     5  H(1)              -0.00027      -1.22296      -0.43638      -0.40793
     6  H(1)              -0.00072      -3.22482      -1.15069      -1.07568
     7  H(1)              -0.00044      -1.95334      -0.69700      -0.65156
     8  C(13)              0.05150      57.89463      20.65824      19.31157

 Normal termination of Gaussian 16 at Tue Apr  8 22:42:50 2025.
