 Gaussian 16, Revision C.01,

 ----------------------------------------------------------------------
 #t hf aug-cc-pvdz symm=none int=(grid=ultrafine) guess=(read,tcheck) s
 table=(opt,rrhf)
 ----------------------------------------------------------------------
 -----
 title
 -----
 Symbolic Z-matrix:
 Charge =  0 Multiplicity = 1

 SCF Done:  E(RHF) =  -1360.73826330     A.U. after   14 cycles
 Normal termination of Gaussian 16 at Wed Apr  9 00:03:04 2025.
 Gaussian 16:  ES64L-G16RevC.01  3-Jul-2019

 ----------------------------------------------------------------------
 #t hf aug-cc-pvdz iop(5/13=1,5/36=2,99/5=2) pseudo=read geom=check gue
 ss=(read,tcheck) scf=(maxcycle=1)
 ----------------------------------------------------------------------
 -----
 title
 -----
 Structure from the checkpoint file:  "BDE49_nonexpt_2155_mol1.chk"
 Charge =  0 Multiplicity = 1

                         Standard orientation:
 ---------------------------------------------------------------------
 Center     Atomic      Atomic             Coordinates (Angstroms)
 Number     Number       Type             X           Y           Z
 ---------------------------------------------------------------------
      1         14           0       -0.000018   -0.000005    0.251650
      2          7           0       -1.673821   -0.337658   -0.460386
      3          7           0        0.544439    1.618396   -0.460393
      4          7           0        1.129288   -1.280741   -0.460409
      5         17           0        0.000007   -0.000022    2.250505
      6          8           0        1.840226   -0.959743   -1.397547
      7          8           0        1.542079    2.097540    0.059697
      8          8           0       -1.751185   -1.113433   -1.397877
      9          8           0       -0.088747    2.073292   -1.397869
     10          8           0       -2.587599    0.286701    0.059755
     11          8           0        1.045323   -2.384300    0.059669
 ---------------------------------------------------------------------

 SCF Done:  E(RHF) =  -1363.64256266     A.U. after    2 cycles

 The electronic state is 1-A.
 Alpha  occ. eigenvalues --  -99.99368 -76.44738 -21.16009 -21.15959 -21.15958
 Alpha  occ. eigenvalues --  -21.15585 -21.15585 -21.15578 -16.03627 -16.03620
 Alpha  occ. eigenvalues --  -16.03620 -10.56812  -9.76703  -9.76017  -9.76017
 Alpha  occ. eigenvalues --   -5.78600  -2.42279  -2.42279  -2.42009  -2.03945
 Alpha  occ. eigenvalues --   -2.03739  -2.03739  -1.74932  -1.74932  -1.74837
 Alpha  occ. eigenvalues --   -1.40196  -1.13789  -1.02602  -1.02602  -0.81222
 Alpha  occ. eigenvalues --   -0.76653  -0.76653  -0.73981  -0.71202  -0.71202
 Alpha  occ. eigenvalues --   -0.68734  -0.66226  -0.66225  -0.65600  -0.63012
 Alpha  occ. eigenvalues --   -0.63012  -0.42643  -0.39514  -0.39513  -0.38743
 Alpha  occ. eigenvalues --   -0.37725  -0.35800  -0.35800  -0.35204  -0.35204
 Alpha virt. eigenvalues --    0.02880   0.04634   0.04635   0.05804   0.06516
 Alpha virt. eigenvalues --    0.06516   0.07577   0.10398   0.11024   0.11024
 Alpha virt. eigenvalues --    0.11285   0.14714   0.14714   0.14883   0.15018

 Mulliken charges:
               1
     1  Si   4.004083
     2  N    3.483068
     3  N    3.482994
     4  N    3.483288
     5  Cl  -0.763148
     6  O   -2.166355
     7  O   -2.397081
     8  O   -2.166344
     9  O   -2.166262
    10  O   -2.397078
    11  O   -2.397165
 Sum of Mulliken charges =  -0.00000

 Dipole moment (field-independent basis, Debye):
    X=              0.0002    Y=              0.0000    Z=              0.9579  Tot=              0.9579

 Test job not archived.
 1\1\GINC-SE367\SP\RHF\Aug-CC-pVDZ\Cl1N3O6Si1\OHZDE\09-Apr-2025\0\\#t h
 f aug-cc-pvdz iop(5/13=1,5/36=2,99/5=2) pseudo=read geom=check guess=(
 read,tcheck) scf=(maxcycle=1)\\title\\0,1\Si,0,0.000018,0.000005,0.251
 65\N,0,1.67426,0.335472,-0.460386\N,0,-0.546552,-1.617684,-0.460393\N,
 0,-1.127615,1.282214,-0.460409\Cl,0,-0.000007,0.000022,2.250505\O,0,-1
 .838971,0.962145,-1.397547\O,0,-1.544817,-2.095525,0.059697\O,0,1.7526
 37,1.111145,-1.397877\O,0,0.08604,-2.073406,-1.397869\O,0,2.587222,-0.
 29008,0.059755\O,0,-1.042209,2.385663,0.059669\\Version=ES64L-G16RevC.

 Normal termination of Gaussian 16 at Wed Apr  9 00:03:11 2025.
