 Gaussian 16, Revision C.01,

 ----------------------------------------------------------------------
 #t hf aug-cc-pvdz symm=none int=(grid=ultrafine) guess=(read,tcheck) s
 table=(opt,rrhf)
 ----------------------------------------------------------------------
 -----
 title
 -----
 Symbolic Z-matrix:
 Charge =  0 Multiplicity = 1

 SCF Done:  E(RHF) =  -607.009779333     A.U. after   15 cycles
 Normal termination of Gaussian 16 at Tue Apr  8 23:32:09 2025.
 Gaussian 16:  ES64L-G16RevC.01  3-Jul-2019

 ----------------------------------------------------------------------
 #t hf aug-cc-pvdz iop(5/13=1,5/36=2,99/5=2) pseudo=read geom=check gue
 ss=(read,tcheck) scf=(maxcycle=1)
 ----------------------------------------------------------------------
 -----
 title
 -----
 Structure from the checkpoint file:  "BDE49_nonexpt_1400_mol1.chk"
 Charge =  0 Multiplicity = 1

                         Standard orientation:
 ---------------------------------------------------------------------
 Center     Atomic      Atomic             Coordinates (Angstroms)
 Number     Number       Type             X           Y           Z
 ---------------------------------------------------------------------
      1         15           0        0.169413    1.304075   -0.215790
      2          6           0       -0.994674   -0.169896    0.008074
      3          8           0       -0.290590   -1.337990    0.037924
      4          6           0        1.124240   -1.187154   -0.184452
      5          6           0        1.581365    0.194628    0.307972
      6          1           0        1.318735   -1.307501   -1.254931
      7          1           0        1.608113   -2.002785    0.351923
      8          8           0       -2.184595   -0.139232    0.097442
      9          1           0        2.523911    0.478265   -0.161428
     10          1           0        1.711046    0.198176    1.390773
     11          1           0       -0.167107    1.865022    1.038014
 ---------------------------------------------------------------------

 SCF Done:  E(RHF) =  -608.351765318     A.U. after    2 cycles

 The electronic state is 1-A.
 Alpha  occ. eigenvalues -- -105.20415 -21.09719 -21.05764 -11.50488 -11.46869
 Alpha  occ. eigenvalues --  -11.40428  -2.78091  -1.84371  -1.67595  -1.50821
 Alpha  occ. eigenvalues --   -1.47550  -1.46521  -1.13074  -0.93708  -0.78682
 Alpha  occ. eigenvalues --   -0.70183  -0.66936  -0.63154  -0.56986  -0.53328
 Alpha  occ. eigenvalues --   -0.51772  -0.46973  -0.40065  -0.32282  -0.25388
 Alpha  occ. eigenvalues --   -0.17448  -0.03800
 Alpha virt. eigenvalues --    0.03523   0.05095   0.05424   0.05640   0.06487
 Alpha virt. eigenvalues --    0.08984   0.10053   0.10420   0.11133   0.12950
 Alpha virt. eigenvalues --    0.13200   0.13709   0.14419   0.14941   0.15112

 Mulliken charges:
               1
     1  P    3.300342
     2  C    3.206114
     3  O   -2.952859
     4  C   -1.563439
     5  C   -3.871110
     6  H    1.513067
     7  H    1.361865
     8  O   -2.987629
     9  H    1.179087
    10  H    1.239802
    11  H   -0.425240
 Sum of Mulliken charges =   0.00000

 Dipole moment (field-independent basis, Debye):
    X=              2.7521    Y=              1.4498    Z=             -1.4176  Tot=              3.4184

 Test job not archived.
 1\1\GINC-SE080\SP\RHF\Aug-CC-pVDZ\C3H5O2P1\OHZDE\08-Apr-2025\0\\#t hf
 aug-cc-pvdz iop(5/13=1,5/36=2,99/5=2) pseudo=read geom=check guess=(re
 ad,tcheck) scf=(maxcycle=1)\\title\\0,1\P,0,0.169413,1.304075,-0.21579
 \C,0,-0.994674,-0.169896,0.008074\O,0,-0.29059,-1.33799,0.037924\C,0,1
 .12424,-1.187154,-0.184452\C,0,1.581365,0.194628,0.307972\H,0,1.318735
 ,-1.307501,-1.254931\H,0,1.608113,-2.002785,0.351923\O,0,-2.184595,-0.
 139232,0.097442\H,0,2.523911,0.478265,-0.161428\H,0,1.711046,0.198176,
 1.390773\H,0,-0.167107,1.865022,1.038014\\Version=ES64L-G16RevC.01\Sta

 Normal termination of Gaussian 16 at Tue Apr  8 23:32:13 2025.
