 Gaussian 16, Revision C.01,

 ----------------------------------------------------------------------
 #t hf aug-cc-pvdz symm=none int=(grid=ultrafine) guess=(read,tcheck) s
 table=opt
 ----------------------------------------------------------------------
 -----
 title
 -----
 Symbolic Z-matrix:
 Charge =  0 Multiplicity = 2

 SCF Done:  E(UHF) =  -634.483236351     A.U. after   16 cycles
 Normal termination of Gaussian 16 at Wed Apr  9 00:01:03 2025.
 Gaussian 16:  ES64L-G16RevC.01  3-Jul-2019

 ----------------------------------------------------------------------
 #t hf aug-cc-pvdz iop(5/13=1,5/36=2,99/5=2) pseudo=read geom=check gue
 ss=(read,tcheck) scf=(maxcycle=1)
 ----------------------------------------------------------------------
 -----
 title
 -----
 Structure from the checkpoint file:  "BDE49_nonexpt_2085_mol2.chk"
 Charge =  0 Multiplicity = 2

                         Standard orientation:
 ---------------------------------------------------------------------
 Center     Atomic      Atomic             Coordinates (Angstroms)
 Number     Number       Type             X           Y           Z
 ---------------------------------------------------------------------
      1         14           0        0.000000    1.797590   -0.208140
      2          8           0        1.325333    0.839906    0.034014
      3          8           0       -1.325333    0.839906    0.034012
      4          6           0       -0.000000   -1.220790   -0.143020
      5          6           0       -1.283650   -0.559141    0.373562
      6          6           0        1.283650   -0.559141    0.373562
      7          6           0        2.545352   -1.210607   -0.172873
      8          1           0        2.555212   -1.163608   -1.265004
      9          1           0        2.606438   -2.258659    0.134136
     10          1           0        3.427306   -0.686071    0.199412
     11          1           0        1.292969   -0.622712    1.470967
     12          1           0       -0.000000   -1.198429   -1.240241
     13          1           0       -0.000000   -2.273254    0.159855
     14          6           0       -2.545352   -1.210607   -0.172872
     15          1           0       -1.292969   -0.622711    1.470967
     16          1           0       -2.555213   -1.163609   -1.265003
     17          1           0       -3.427306   -0.686071    0.199412
     18          1           0       -2.606439   -2.258659    0.134137
     19          1           0        0.000000    2.890743    0.820962
 ---------------------------------------------------------------------

 SCF Done:  E(UHF) =  -636.227305358     A.U. after    2 cycles

 The electronic state is 2-A.
 Alpha  occ. eigenvalues --  -76.24940 -21.03818 -21.03805 -11.46867 -11.45955
 Alpha  occ. eigenvalues --  -11.41262 -11.38157 -11.36109  -5.58815  -2.26191
 Alpha  occ. eigenvalues --   -2.23298  -2.18973  -1.73009  -1.67122  -1.21664
 Alpha  occ. eigenvalues --   -1.10686  -1.01401  -0.86132  -0.84056  -0.71891
 Alpha  occ. eigenvalues --   -0.64243  -0.63729  -0.60188  -0.59339  -0.56215
 Alpha  occ. eigenvalues --   -0.54400  -0.51521  -0.50731  -0.48465  -0.47098
 Alpha  occ. eigenvalues --   -0.46303  -0.41649  -0.38458  -0.34764  -0.31287
 Alpha  occ. eigenvalues --   -0.25603
 Alpha virt. eigenvalues --    0.03956   0.04764   0.05139   0.05417   0.05644
 Alpha virt. eigenvalues --    0.06058   0.06260   0.06421   0.07361   0.07847
 Alpha virt. eigenvalues --    0.08487   0.08602   0.09093   0.10337   0.13117

  Beta  occ. eigenvalues --  -76.24422 -21.03504 -21.03490 -11.46863 -11.45950
  Beta  occ. eigenvalues --  -11.41262 -11.38159 -11.36110  -5.57948  -2.25600
  Beta  occ. eigenvalues --   -2.22531  -2.16283  -1.72296  -1.66478  -1.21510
  Beta  occ. eigenvalues --   -1.10629  -1.01393  -0.86016  -0.83369  -0.70460
  Beta  occ. eigenvalues --   -0.64141  -0.63422  -0.60052  -0.57285  -0.55852
  Beta  occ. eigenvalues --   -0.54266  -0.51390  -0.49837  -0.48213  -0.46158
  Beta  occ. eigenvalues --   -0.45235  -0.41410  -0.36188  -0.33626  -0.31026
  Beta virt. eigenvalues --    0.03956   0.04474   0.05078   0.05152   0.05654
  Beta virt. eigenvalues --    0.05721   0.06069   0.06323   0.06765   0.08008
  Beta virt. eigenvalues --    0.08492   0.08650   0.08848   0.10018   0.11129

 Mulliken charges and spin densities:
               1          2
     1  Si   4.082047   1.046566
     2  O   -3.396237  -0.103772
     3  O   -3.396235  -0.103773
     4  C   -2.741661  -0.123633
     5  C    0.666099   0.061413
     6  C    0.666107   0.061413
     7  C   -4.126199   0.009916
     8  H    1.267221   0.001481
     9  H    1.281775   0.000365
    10  H    1.160398   0.001083
    11  H    1.749572   0.004816
    12  H    1.497531   0.005125
    13  H    1.467572  -0.002832
    14  C   -4.126197   0.009916
    15  H    1.749573   0.004816
    16  H    1.267221   0.001481
    17  H    1.160398   0.001083
    18  H    1.281775   0.000365
    19  H   -1.510760   0.124169
 Sum of Mulliken charges =  -0.00000   1.00000

 Dipole moment (field-independent basis, Debye):
    X=             -0.0000    Y=             -1.5983    Z=              0.1647  Tot=              1.6067
                          Isotropic Fermi Contact Couplings
        Atom                 a.u.       MegaHertz       Gauss      10(-4) cm-1
     1  Si(29)             0.65004    -577.70612    -206.13991    -192.70202
     2  O(17)              0.06022     -36.50752     -13.02679     -12.17760
     3  O(17)              0.06022     -36.50762     -13.02683     -12.17763
     4  C(13)              0.00210       2.36271       0.84307       0.78811
     5  C(13)              0.00480       5.39111       1.92368       1.79828
     6  C(13)              0.00480       5.39106       1.92366       1.79826
     7  C(13)             -0.00069      -0.77275      -0.27574      -0.25776
     8  H(1)              -0.00001      -0.06572      -0.02345      -0.02192

 Normal termination of Gaussian 16 at Wed Apr  9 00:01:13 2025.
