 Gaussian 16, Revision C.01,

 ----------------------------------------------------------------------
 #t hf aug-cc-pvdz symm=none int=(grid=ultrafine) guess=(read,tcheck) s
 table=(opt,rrhf)
 ----------------------------------------------------------------------
 -----
 title
 -----
 Symbolic Z-matrix:
 Charge =  0 Multiplicity = 1

 SCF Done:  E(RHF) =  -662.273817700     A.U. after   13 cycles
 Normal termination of Gaussian 16 at Tue Apr  8 22:47:31 2025.
 Gaussian 16:  ES64L-G16RevC.01  3-Jul-2019

 ----------------------------------------------------------------------
 #t hf aug-cc-pvdz iop(5/13=1,5/36=2,99/5=2) pseudo=read geom=check gue
 ss=(read,tcheck) scf=(maxcycle=1)
 ----------------------------------------------------------------------
 -----
 title
 -----
 Structure from the checkpoint file:  "BDE49_expt_1596_mol1.chk"
 Charge =  0 Multiplicity = 1

                         Standard orientation:
 ---------------------------------------------------------------------
 Center     Atomic      Atomic             Coordinates (Angstroms)
 Number     Number       Type             X           Y           Z
 ---------------------------------------------------------------------
      1         16           0        0.089805    0.150745    0.055324
      2          6           0       -1.616738   -0.365520    0.036580
      3          1           0       -2.186104    0.416463    0.538794
      4          1           0       -1.704153   -1.310319    0.569604
      5          1           0       -1.933701   -0.462718   -1.000391
      6          8           0        0.756225   -1.074993   -0.792365
      7          8           0        0.612943    0.062165    1.395224
      8          8           0        0.216579    1.343055   -0.727935
      9          1           0        1.401528   -1.504043   -0.212059
 ---------------------------------------------------------------------

 SCF Done:  E(RHF) =  -663.678005671     A.U. after    2 cycles

 The electronic state is 1-A.
 Alpha  occ. eigenvalues --  -75.92566 -21.13610 -21.06698 -21.06427 -13.55717
 Alpha  occ. eigenvalues --  -13.46008 -13.36703 -11.43643  -8.27777  -1.90657
 Alpha  occ. eigenvalues --   -1.72722  -1.67215  -1.15830  -0.91296  -0.68706
 Alpha  occ. eigenvalues --   -0.64872  -0.63126  -0.61764  -0.55731  -0.47907
 Alpha  occ. eigenvalues --   -0.43164  -0.39837  -0.39224  -0.38462  -0.36539
 Alpha virt. eigenvalues --    0.02455   0.04466   0.05438   0.05792   0.10112
 Alpha virt. eigenvalues --    0.11750   0.12022   0.13244   0.13957   0.15321
 Alpha virt. eigenvalues --    0.16239   0.17712   0.19331   0.20799   0.21774

 Mulliken charges:
               1
     1  S    7.245107
     2  C   -4.515658
     3  H    1.349277
     4  H    1.321530
     5  H    1.310101
     6  O   -2.340771
     7  O   -2.534547
     8  O   -2.555357
     9  H    0.720318
 Sum of Mulliken charges =  -0.00000

 Dipole moment (field-independent basis, Debye):
    X=             -1.0060    Y=             -1.9062    Z=             -0.3350  Tot=              2.1813

 Test job not archived.
 1\1\GINC-SE403\SP\RHF\Aug-CC-pVDZ\C1H4O3S1\OHZDE\08-Apr-2025\0\\#t hf
 aug-cc-pvdz iop(5/13=1,5/36=2,99/5=2) pseudo=read geom=check guess=(re
 ad,tcheck) scf=(maxcycle=1)\\title\\0,1\S,0,0.089805,0.150745,0.055324
 \C,0,-1.616738,-0.365518,0.03658\H,0,-2.186104,0.416465,0.538794\H,0,-
 1.704154,-1.310317,0.569604\H,0,-1.933702,-0.462716,-1.000391\O,0,0.75
 6224,-1.074994,-0.792365\O,0,0.612943,0.062164,1.395224\O,0,0.21658,1.
 343055,-0.727935\H,0,1.401526,-1.504044,-0.212059\\Version=ES64L-G16Re
 vC.01\State=1-A\HF=-663.6780057\RMSD=8.845e-02\Dipole=-0.3957722,-0.74

 Normal termination of Gaussian 16 at Tue Apr  8 22:47:34 2025.
