 Gaussian 16, Revision C.01,

 ----------------------------------------------------------------------
 #t hf aug-cc-pvdz symm=none int=(grid=ultrafine) guess=(read,tcheck) s
 table=(opt,rrhf)
 ----------------------------------------------------------------------
 -----
 title
 -----
 Symbolic Z-matrix:
 Charge =  0 Multiplicity = 1

 SCF Done:  E(RHF) =  -1174.28891703     A.U. after   16 cycles
 Normal termination of Gaussian 16 at Tue Apr  8 23:36:56 2025.
 Gaussian 16:  ES64L-G16RevC.01  3-Jul-2019

 ----------------------------------------------------------------------
 #t hf aug-cc-pvdz iop(5/13=1,5/36=2,99/5=2) pseudo=read geom=check gue
 ss=(read,tcheck) scf=(maxcycle=1)
 ----------------------------------------------------------------------
 -----
 title
 -----
 Structure from the checkpoint file:  "BDE49_nonexpt_1463_mol1.chk"
 Charge =  0 Multiplicity = 1

                         Standard orientation:
 ---------------------------------------------------------------------
 Center     Atomic      Atomic             Coordinates (Angstroms)
 Number     Number       Type             X           Y           Z
 ---------------------------------------------------------------------
      1         16           0        0.886447    0.641188    0.519521
      2          8           0        1.002707    2.089113    0.386269
      3         15           0        2.086627   -0.256776   -1.160323
      4          6           0       -0.824134    0.195833    0.191327
      5          6           0       -1.586863    1.003466   -0.651225
      6          6           0       -2.904368    0.643626   -0.919603
      7          6           0       -3.445259   -0.508498   -0.348771
      8          6           0       -2.674704   -1.302983    0.498731
      9          6           0       -1.354731   -0.953523    0.774364
     10          1           0       -3.103193   -2.189067    0.952658
     11          1           0       -0.746258   -1.540234    1.450591
     12          1           0       -1.155062    1.904840   -1.067449
     13          1           0       -3.510790    1.265985   -1.567289
     14          1           0       -4.472758   -0.782852   -0.558941
     15          8           0        1.275914   -0.045710    1.750836
     16          7           0        2.573961   -1.732007   -0.499292
     17          1           0        2.024989   -2.533139   -0.779048
     18          1           0        2.808517   -1.758062    0.487455
     19          1           0        3.165662    0.534468   -0.696197
 ---------------------------------------------------------------------

 SCF Done:  E(RHF) =  -1176.72578640     A.U. after    2 cycles

 The electronic state is 1-A.
 Alpha  occ. eigenvalues -- -105.24224 -75.86852 -21.03880 -21.03796 -15.77630
 Alpha  occ. eigenvalues --  -13.48878 -13.37022 -13.34174 -11.53756 -11.45769
 Alpha  occ. eigenvalues --  -11.45460 -11.43559 -11.42887 -11.38834  -8.21842
 Alpha  occ. eigenvalues --   -2.81611  -1.81250  -1.64237  -1.60645  -1.49890
 Alpha  occ. eigenvalues --   -1.46392  -1.36498  -1.20360  -1.13930  -1.11546
 Alpha  occ. eigenvalues --   -0.97280  -0.88957  -0.84818  -0.75445  -0.72486
 Alpha  occ. eigenvalues --   -0.67878  -0.65554  -0.60683  -0.60036  -0.59857
 Alpha  occ. eigenvalues --   -0.55030  -0.50588  -0.48260  -0.47818  -0.44954
 Alpha  occ. eigenvalues --   -0.42331  -0.39046  -0.38176  -0.35151  -0.34994
 Alpha  occ. eigenvalues --   -0.34718  -0.29820  -0.20161  -0.04737
 Alpha virt. eigenvalues --    0.02974   0.04693   0.04849   0.05161   0.06143
 Alpha virt. eigenvalues --    0.06569   0.07339   0.07912   0.08358   0.09052
 Alpha virt. eigenvalues --    0.09842   0.10961   0.11461   0.12176   0.12403

 Mulliken charges:
               1
     1  S    5.005198
     2  O   -2.744891
     3  P    3.038412
     4  C    3.069322
     5  C   -4.102183
     6  C   -0.730926
     7  C   -2.906203
     8  C   -0.275940
     9  C   -3.866401
    10  H    1.531731
    11  H    1.875326
    12  H    1.848409
    13  H    1.523802
    14  H    1.534728
    15  O   -2.707848
    16  N   -2.399290
    17  H    0.605169
    18  H    0.680058
    19  H   -0.978473
 Sum of Mulliken charges =  -0.00000

 Dipole moment (field-independent basis, Debye):
    X=             -1.0771    Y=             -2.7505    Z=             -3.1085  Tot=              4.2881

 Test job not archived.
 1\1\GINC-SE095\SP\RHF\Aug-CC-pVDZ\C6H8N1O2P1S1\OHZDE\08-Apr-2025\0\\#t
  hf aug-cc-pvdz iop(5/13=1,5/36=2,99/5=2) pseudo=read geom=check guess
 =(read,tcheck) scf=(maxcycle=1)\\title\\0,1\S,0,-0.886447,-0.641188,0.
 519521\O,0,-1.002707,-2.089113,0.386269\P,0,-2.086627,0.256776,-1.1603
 23\C,0,0.824134,-0.195833,0.191327\C,0,1.586863,-1.003466,-0.651225\C,
 0,2.904368,-0.643626,-0.919603\C,0,3.445259,0.508499,-0.348771\C,0,2.6
 74704,1.302983,0.498731\C,0,1.354731,0.953523,0.774364\H,0,3.103192,2.
 189068,0.952658\H,0,0.746258,1.540234,1.450591\H,0,1.155062,-1.90484,-

 Normal termination of Gaussian 16 at Tue Apr  8 23:37:08 2025.
