 Gaussian 16, Revision C.01,

 ----------------------------------------------------------------------
 #t hf aug-cc-pvdz symm=none int=(grid=ultrafine) guess=(read,tcheck) s
 table=(opt,rrhf)
 ----------------------------------------------------------------------
 -----
 title
 -----
 Symbolic Z-matrix:
 Charge =  0 Multiplicity = 1

 SCF Done:  E(RHF) =  -1120.87745546     A.U. after   14 cycles
 Normal termination of Gaussian 16 at Tue Apr  8 23:45:48 2025.
 Gaussian 16:  ES64L-G16RevC.01  3-Jul-2019

 ----------------------------------------------------------------------
 #t hf aug-cc-pvdz iop(5/13=1,5/36=2,99/5=2) pseudo=read geom=check gue
 ss=(read,tcheck) scf=(maxcycle=1)
 ----------------------------------------------------------------------
 -----
 title
 -----
 Structure from the checkpoint file:  "BDE49_nonexpt_1725_mol1.chk"
 Charge =  0 Multiplicity = 1

                         Standard orientation:
 ---------------------------------------------------------------------
 Center     Atomic      Atomic             Coordinates (Angstroms)
 Number     Number       Type             X           Y           Z
 ---------------------------------------------------------------------
      1         16           0       -0.085186   -0.382692   -1.251889
      2         15           0        1.326260    0.048133    0.252668
      3          8           0        1.103220   -0.603138    1.543613
      4          6           0       -1.681092   -0.648612   -0.300479
      5          6           0       -1.664006   -1.986871    0.437509
      6          1           0       -1.426764   -2.807886   -0.241662
      7          1           0       -2.651591   -2.176108    0.871209
      8          1           0       -0.927040   -1.974004    1.241004
      9          6           0       -2.079145    0.527040    0.600380
     10          6           0       -2.280329    1.864995   -0.112381
     11          1           0       -1.344452    0.625940    1.404469
     12          1           0       -3.018836    0.234245    1.085046
     13          1           0       -1.347196    2.234765   -0.540815
     14          1           0       -2.646129    2.619382    0.588470
     15          1           0       -3.011340    1.779560   -0.922604
     16          1           0       -2.383338   -0.702917   -1.139867
     17          8           0        2.700894   -0.264873   -0.525963
     18          1           0        2.845385   -1.211132   -0.651383
     19          8           0        1.445605    1.637002    0.388020
     20          1           0        1.610056    2.087987   -0.449182
 ---------------------------------------------------------------------

 SCF Done:  E(RHF) =  -1123.06130505     A.U. after    2 cycles

 The electronic state is 1-A.
 Alpha  occ. eigenvalues -- -105.32058 -75.69567 -21.12388 -21.12067 -21.02664
 Alpha  occ. eigenvalues --  -13.15591 -13.11028 -13.07877 -11.45537 -11.41049
 Alpha  occ. eigenvalues --  -11.37788 -11.36075  -8.03764  -2.94325  -1.99506
 Alpha  occ. eigenvalues --   -1.90294  -1.80269  -1.53813  -1.40953  -1.28182
 Alpha  occ. eigenvalues --   -1.25642  -1.10199  -1.02933  -0.92111  -0.81402
 Alpha  occ. eigenvalues --   -0.69213  -0.64770  -0.61923  -0.60082  -0.59415
 Alpha  occ. eigenvalues --   -0.57251  -0.53146  -0.51754  -0.49801  -0.47584
 Alpha  occ. eigenvalues --   -0.45458  -0.44688  -0.43178  -0.37761  -0.36702
 Alpha  occ. eigenvalues --   -0.33623  -0.28928  -0.26705  -0.22188  -0.14820
 Alpha virt. eigenvalues --    0.03572   0.04409   0.04673   0.05502   0.05681
 Alpha virt. eigenvalues --    0.06462   0.06869   0.07945   0.08113   0.08476
 Alpha virt. eigenvalues --    0.09566   0.09866   0.11407   0.12585   0.12939

 Mulliken charges:
               1
     1  S   -1.729068
     2  P    9.004322
     3  O   -3.095546
     4  C   -0.869374
     5  C   -4.548147
     6  H    1.311214
     7  H    1.161335
     8  H    1.525541
     9  C   -3.356071
    10  C   -4.155272
    11  H    1.657546
    12  H    1.327480
    13  H    1.672118
    14  H    1.099435
    15  H    1.215396
    16  H    1.833252
    17  O   -2.851024
    18  H    0.949917
    19  O   -3.043639
    20  H    0.890583
 Sum of Mulliken charges =   0.00000

 Dipole moment (field-independent basis, Debye):
    X=              0.9985    Y=              1.2212    Z=             -2.2532  Tot=              2.7505

 Test job not archived.
 1\1\GINC-SE071\SP\RHF\Aug-CC-pVDZ\C4H11O3P1S1\OHZDE\08-Apr-2025\0\\#t
 hf aug-cc-pvdz iop(5/13=1,5/36=2,99/5=2) pseudo=read geom=check guess=
 (read,tcheck) scf=(maxcycle=1)\\title\\0,1\S,0,-0.085186,-0.382692,-1.
 251889\P,0,1.32626,0.048133,0.252668\O,0,1.10322,-0.603138,1.543613\C,
 0,-1.681092,-0.648612,-0.300479\C,0,-1.664006,-1.986871,0.437509\H,0,-
 1.426764,-2.807886,-0.241662\H,0,-2.651591,-2.176108,0.871209\H,0,-0.9
 2704,-1.974004,1.241004\C,0,-2.079145,0.52704,0.60038\C,0,-2.280329,1.
 864995,-0.112381\H,0,-1.344452,0.62594,1.404469\H,0,-3.018836,0.234245

 Normal termination of Gaussian 16 at Tue Apr  8 23:45:59 2025.
