 Gaussian 16, Revision C.01,

 ----------------------------------------------------------------------
 #t hf aug-cc-pvdz symm=none int=(grid=ultrafine) guess=(read,tcheck) s
 table=(opt,rrhf)
 ----------------------------------------------------------------------
 -----
 title
 -----
 Symbolic Z-matrix:
 Charge =  0 Multiplicity = 1

 SCF Done:  E(RHF) =  -512.576250851     A.U. after   13 cycles
 Normal termination of Gaussian 16 at Tue Apr  8 22:47:27 2025.
 Gaussian 16:  ES64L-G16RevC.01  3-Jul-2019

 ----------------------------------------------------------------------
 #t hf aug-cc-pvdz iop(5/13=1,5/36=2,99/5=2) pseudo=read geom=check gue
 ss=(read,tcheck) scf=(maxcycle=1)
 ----------------------------------------------------------------------
 -----
 title
 -----
 Structure from the checkpoint file:  "BDE49_expt_1595_mol1.chk"
 Charge =  0 Multiplicity = 1

                         Standard orientation:
 ---------------------------------------------------------------------
 Center     Atomic      Atomic             Coordinates (Angstroms)
 Number     Number       Type             X           Y           Z
 ---------------------------------------------------------------------
      1         16           0        0.084187   -0.611969    0.010541
      2          6           0       -1.384519    0.446140    0.001425
      3          1           0       -1.396806    1.067453   -0.894558
      4          1           0       -1.447186    1.065053    0.898006
      5          1           0       -2.239721   -0.235681   -0.023292
      6          8           0        1.309618    0.554293   -0.117623
      7          1           0        1.566894    0.783491    0.783628
 ---------------------------------------------------------------------

 SCF Done:  E(RHF) =  -513.323620650     A.U. after    2 cycles

 The electronic state is 1-A.
 Alpha  occ. eigenvalues --  -75.71954 -21.09660 -13.16280 -13.09898 -13.04619
 Alpha  occ. eigenvalues --  -11.39789  -8.05609  -1.71895  -1.15238  -0.92062
 Alpha  occ. eigenvalues --   -0.61840  -0.59682  -0.57188  -0.48837  -0.41715
 Alpha  occ. eigenvalues --   -0.33327  -0.22598
 Alpha virt. eigenvalues --    0.03006   0.04371   0.06010   0.06196   0.08472
 Alpha virt. eigenvalues --    0.11895   0.12625   0.14500   0.15313   0.16791
 Alpha virt. eigenvalues --    0.16894   0.21113   0.22365   0.23746   0.25260

 Mulliken charges:
               1
     1  S    1.698231
     2  C   -4.659844
     3  H    1.372264
     4  H    1.363828
     5  H    1.334655
     6  O   -2.020295
     7  H    0.911161
 Sum of Mulliken charges =  -0.00000

 Dipole moment (field-independent basis, Debye):
    X=             -0.1076    Y=             -0.2775    Z=              0.5139  Tot=              0.5938

 Test job not archived.
 1\1\GINC-SE329\SP\RHF\Aug-CC-pVDZ\C1H4O1S1\OHZDE\08-Apr-2025\0\\#t hf
 aug-cc-pvdz iop(5/13=1,5/36=2,99/5=2) pseudo=read geom=check guess=(re
 ad,tcheck) scf=(maxcycle=1)\\title\\0,1\S,0,0.084187,-0.611969,0.01054
 1\C,0,-1.384519,0.44614,0.001425\H,0,-1.396806,1.067453,-0.894558\H,0,
 -1.447186,1.065053,0.898006\H,0,-2.239721,-0.235681,-0.023292\O,0,1.30
 9618,0.554293,-0.117623\H,0,1.566894,0.78349,0.783628\\Version=ES64L-G
 16RevC.01\State=1-A\HF=-513.3236206\RMSD=6.336e-02\Dipole=-0.0423303,-
 0.109177,0.2021665\Quadrupole=0.8452464,0.1659606,-1.011207,0.5833511,

 Normal termination of Gaussian 16 at Tue Apr  8 22:47:29 2025.
