 Gaussian 16, Revision C.01,

 ----------------------------------------------------------------------
 #t hf aug-cc-pvdz symm=none int=(grid=ultrafine) guess=(read,tcheck) s
 table=(opt,rrhf)
 ----------------------------------------------------------------------
 -----
 title
 -----
 Symbolic Z-matrix:
 Charge =  0 Multiplicity = 1

 SCF Done:  E(RHF) =  -524.330860431     A.U. after   12 cycles
 Normal termination of Gaussian 16 at Tue Apr  8 22:47:33 2025.
 Gaussian 16:  ES64L-G16RevC.01  3-Jul-2019

 ----------------------------------------------------------------------
 #t hf aug-cc-pvdz iop(5/13=1,5/36=2,99/5=2) pseudo=read geom=check gue
 ss=(read,tcheck) scf=(maxcycle=1)
 ----------------------------------------------------------------------
 -----
 title
 -----
 Structure from the checkpoint file:  "BDE49_expt_1543_mol1.chk"
 Charge =  0 Multiplicity = 1

                         Standard orientation:
 ---------------------------------------------------------------------
 Center     Atomic      Atomic             Coordinates (Angstroms)
 Number     Number       Type             X           Y           Z
 ---------------------------------------------------------------------
      1         14           0        0.760755   -0.022833    0.018509
      2          6           0        1.056178    1.566978    0.986844
      3          1           0        1.978891    1.502162    1.571986
      4          1           0        0.237934    1.769219    1.684174
      5          1           0        1.148557    2.430426    0.320485
      6          6           0        0.567278   -1.469975    1.205871
      7          6           0        2.212206   -0.334671   -1.143738
      8          1           0        1.443347   -1.569087    1.854353
      9          1           0        0.447017   -2.413795    0.664908
     10          1           0       -0.310626   -1.339791    1.844860
     11          1           0        3.145866   -0.454849   -0.585290
     12          1           0        2.349790    0.496343   -1.842519
     13          1           0        2.061941   -1.243712   -1.734412
     14          6           0       -0.819940    0.148141   -1.035181
     15          6           0       -2.043573    0.515995   -0.251827
     16          6           0       -3.055833   -0.296802    0.048344
     17          1           0       -3.081170   -1.327036   -0.294700
     18          1           0       -3.896887    0.040693    0.643235
     19          1           0       -0.975137   -0.798976   -1.565055
     20          1           0       -0.618913    0.909823   -1.799880
     21          1           0       -2.079077    1.540251    0.116851
 ---------------------------------------------------------------------

 SCF Done:  E(RHF) =  -525.722530069     A.U. after    2 cycles

 The electronic state is 1-A.
 Alpha  occ. eigenvalues --  -76.18197 -11.42090 -11.37487 -11.35157 -11.34151
 Alpha  occ. eigenvalues --  -11.34060 -11.33821  -5.52350  -2.16182  -2.15968
 Alpha  occ. eigenvalues --   -2.15945  -1.19537  -1.06932  -1.00555  -1.00384
 Alpha  occ. eigenvalues --   -0.97700  -0.78347  -0.65239  -0.62744  -0.57454
 Alpha  occ. eigenvalues --   -0.56710  -0.56063  -0.55563  -0.54247  -0.53525
 Alpha  occ. eigenvalues --   -0.52757  -0.50927  -0.47422  -0.41976  -0.38612
 Alpha  occ. eigenvalues --   -0.38413  -0.31119
 Alpha virt. eigenvalues --    0.03043   0.05161   0.05406   0.05664   0.05897
 Alpha virt. eigenvalues --    0.05913   0.06151   0.06363   0.06830   0.07806
 Alpha virt. eigenvalues --    0.08186   0.08437   0.08814   0.09052   0.09714

 Mulliken charges:
               1
     1  Si  11.638278
     2  C   -6.066479
     3  H    1.063118
     4  H    1.089327
     5  H    0.983597
     6  C   -6.079338
     7  C   -6.143936
     8  H    1.042816
     9  H    1.100877
    10  H    1.029101
    11  H    1.101453
    12  H    1.083056
    13  H    1.109758
    14  C   -5.201465
    15  C   -0.767944
    16  C   -3.465075
    17  H    1.449993
    18  H    1.401405
    19  H    1.127259
    20  H    1.064734
    21  H    1.439463
 Sum of Mulliken charges =  -0.00000

 Dipole moment (field-independent basis, Debye):
    X=              0.6124    Y=              0.1250    Z=             -0.1000  Tot=              0.6330

 Test job not archived.
 1\1\GINC-SE143\SP\RHF\Aug-CC-pVDZ\C6H14Si1\OHZDE\08-Apr-2025\0\\#t hf
 aug-cc-pvdz iop(5/13=1,5/36=2,99/5=2) pseudo=read geom=check guess=(re
 ad,tcheck) scf=(maxcycle=1)\\title\\0,1\Si,0,0.760755,-0.022833,0.0185
 09\C,0,1.056178,1.566978,0.986844\H,0,1.978891,1.502162,1.571986\H,0,0
 .237934,1.769219,1.684174\H,0,1.148557,2.430426,0.320485\C,0,0.567278,
 -1.469975,1.205871\C,0,2.212206,-0.334671,-1.143738\H,0,1.443347,-1.56
 9087,1.854353\H,0,0.447017,-2.413795,0.664908\H,0,-0.310626,-1.339791,
 1.84486\H,0,3.145866,-0.454849,-0.58529\H,0,2.34979,0.496343,-1.842519

 Normal termination of Gaussian 16 at Tue Apr  8 22:47:43 2025.
