 Gaussian 16, Revision C.01,

 ----------------------------------------------------------------------
 #t hf aug-cc-pvdz symm=none int=(grid=ultrafine) guess=(read,tcheck) s
 table=opt
 ----------------------------------------------------------------------
 -----
 title
 -----
 Symbolic Z-matrix:
 Charge =  0 Multiplicity = 2

 SCF Done:  E(UHF) =  -565.897285976     A.U. after   18 cycles
 Normal termination of Gaussian 16 at Wed Apr  9 00:18:39 2025.
 Gaussian 16:  ES64L-G16RevC.01  3-Jul-2019

 ----------------------------------------------------------------------
 #t hf aug-cc-pvdz iop(5/13=1,5/36=2,99/5=2) pseudo=read geom=check gue
 ss=(read,tcheck) scf=(maxcycle=1)
 ----------------------------------------------------------------------
 -----
 title
 -----
 Structure from the checkpoint file:  "BDE49_nonexpt_2564_mol2.chk"
 Charge =  0 Multiplicity = 2

                         Standard orientation:
 ---------------------------------------------------------------------
 Center     Atomic      Atomic             Coordinates (Angstroms)
 Number     Number       Type             X           Y           Z
 ---------------------------------------------------------------------
      1         16           0       -1.304943   -0.167685   -0.000023
      2          6           0        0.431249    0.135823    0.000068
      3          8           0        0.725523    1.322063   -0.000020
      4          7           0        1.312066   -0.884288    0.000017
      5          1           0        1.003726   -1.841904    0.000013
      6          1           0        2.299216   -0.676567   -0.000010
 ---------------------------------------------------------------------

 SCF Done:  E(UHF) =  -566.805442402     A.U. after    2 cycles

 The electronic state is 2-A.
 Alpha  occ. eigenvalues --  -75.73478 -21.04648 -15.80760 -13.16430 -13.07987
 Alpha  occ. eigenvalues --  -13.04169 -11.51843  -8.07346  -1.72753  -1.37693
 Alpha  occ. eigenvalues --   -1.15699  -0.82899  -0.73538  -0.61073  -0.57273
 Alpha  occ. eigenvalues --   -0.48769  -0.35698  -0.34892  -0.26955  -0.26674
 Alpha virt. eigenvalues --    0.02531   0.05473   0.06761   0.10536   0.12313
 Alpha virt. eigenvalues --    0.13074   0.13656   0.14142   0.14998   0.16756
 Alpha virt. eigenvalues --    0.18333   0.19103   0.19585   0.20157   0.23198

  Beta  occ. eigenvalues --  -75.72476 -21.04338 -15.80773 -13.15864 -13.03559
  Beta  occ. eigenvalues --  -13.01978 -11.51954  -8.06222  -1.72178  -1.37486
  Beta  occ. eigenvalues --   -1.08064  -0.81656  -0.73074  -0.59124  -0.57311
  Beta  occ. eigenvalues --   -0.48284  -0.35530  -0.28644  -0.25428
  Beta virt. eigenvalues --    0.01885   0.03806   0.06234   0.07100   0.10716
  Beta virt. eigenvalues --    0.12355   0.13221   0.14157   0.14817   0.15847
  Beta virt. eigenvalues --    0.17708   0.18451   0.19725   0.20420   0.20502

 Mulliken charges and spin densities:
               1          2
     1  S    1.038501   1.061705
     2  C    2.272301  -0.077654
     3  O   -2.356583   0.034373
     4  N   -2.464740  -0.026883
     5  H    0.749418   0.012913
     6  H    0.761103  -0.004454
 Sum of Mulliken charges =  -0.00000   1.00000

 Dipole moment (field-independent basis, Debye):
    X=             -0.1519    Y=             -2.2627    Z=             -0.0002  Tot=              2.2678
                          Isotropic Fermi Contact Couplings
        Atom                 a.u.       MegaHertz       Gauss      10(-4) cm-1
     1  S(33)              0.32574     111.88449      39.92317      37.32065
     2  C(13)             -0.01134     -12.75008      -4.54955      -4.25297
     3  O(17)              0.03443     -20.87236      -7.44778      -6.96227
     4  N(14)             -0.00637      -2.05789      -0.73431      -0.68644
     5  H(1)               0.00059       2.65857       0.94864       0.88680
     6  H(1)               0.00121       5.38658       1.92206       1.79677
 --------------------------------------------------------
       Center         ----  Spin Dipole Couplings  ----

 Normal termination of Gaussian 16 at Wed Apr  9 00:18:43 2025.
