 Gaussian 16, Revision C.01,

 ----------------------------------------------------------------------
 #t hf aug-cc-pvdz symm=none int=(grid=ultrafine) guess=(read,tcheck) s
 table=(opt,rrhf)
 ----------------------------------------------------------------------
 -----
 title
 -----
 Symbolic Z-matrix:
 Charge =  0 Multiplicity = 1

 SCF Done:  E(RHF) =  -806.801760456     A.U. after   14 cycles
 Normal termination of Gaussian 16 at Wed Apr  9 00:10:30 2025.
 Gaussian 16:  ES64L-G16RevC.01  3-Jul-2019

 ----------------------------------------------------------------------
 #t hf aug-cc-pvdz iop(5/13=1,5/36=2,99/5=2) pseudo=read geom=check gue
 ss=(read,tcheck) scf=(maxcycle=1)
 ----------------------------------------------------------------------
 -----
 title
 -----
 Structure from the checkpoint file:  "BDE49_nonexpt_2339_mol1.chk"
 Charge =  0 Multiplicity = 1

                         Standard orientation:
 ---------------------------------------------------------------------
 Center     Atomic      Atomic             Coordinates (Angstroms)
 Number     Number       Type             X           Y           Z
 ---------------------------------------------------------------------
      1         14           0        1.239083   -0.900786    0.472129
      2         14           0       -0.842083   -0.896193   -0.636354
      3          6           0       -1.783242    0.704340   -0.088406
      4          1           0       -1.659213   -2.071272   -0.260926
      5          1           0       -0.598285   -0.882900   -2.099428
      6          8           0       -2.454040    0.714575    0.917701
      7          1           0       -1.673296    1.626884   -0.701688
      8          6           0        1.984469    0.836091    0.050692
      9          1           0        1.114925   -0.991989    1.948262
     10          1           0        2.181312   -1.957506    0.023583
     11          8           0        1.307934    1.674242   -0.506315
     12          1           0        3.038047    1.081369    0.324556
 ---------------------------------------------------------------------

 SCF Done:  E(RHF) =  -808.056560433     A.U. after    2 cycles

 The electronic state is 1-A.
 Alpha  occ. eigenvalues --  -76.24001 -76.23386 -21.09134 -21.07546 -11.46775
 Alpha  occ. eigenvalues --  -11.45507  -5.57626  -5.57002  -2.20889  -2.20330
 Alpha  occ. eigenvalues --   -2.19622  -2.19290  -2.19169  -2.18052  -1.72337
 Alpha  occ. eigenvalues --   -1.70694  -0.91467  -0.89086  -0.78131  -0.72100
 Alpha  occ. eigenvalues --   -0.60542  -0.58682  -0.52015  -0.51352  -0.49636
 Alpha  occ. eigenvalues --   -0.48405  -0.46247  -0.45802  -0.37256  -0.29040
 Alpha  occ. eigenvalues --   -0.27084
 Alpha virt. eigenvalues --    0.03476   0.04340   0.04492   0.05764   0.06552
 Alpha virt. eigenvalues --    0.07144   0.07616   0.07801   0.08349   0.08615
 Alpha virt. eigenvalues --    0.09195   0.10142   0.10869   0.11359   0.11914

 Mulliken charges:
               1
     1  Si   4.641641
     2  Si   4.371149
     3  C   -0.414046
     4  H   -1.747521
     5  H   -1.619888
     6  O   -2.094005
     7  H    1.502542
     8  C   -0.589706
     9  H   -1.731678
    10  H   -1.726757
    11  O   -1.992594
    12  H    1.400864
 Sum of Mulliken charges =   0.00000

 Dipole moment (field-independent basis, Debye):
    X=              0.6775    Y=             -0.2934    Z=             -0.3516  Tot=              0.8178

 Test job not archived.
 1\1\GINC-SE150\SP\RHF\Aug-CC-pVDZ\C2H6O2Si2\OHZDE\09-Apr-2025\0\\#t hf
  aug-cc-pvdz iop(5/13=1,5/36=2,99/5=2) pseudo=read geom=check guess=(r
 ead,tcheck) scf=(maxcycle=1)\\title\\0,1\Si,0,1.239083,-0.900786,0.472
 129\Si,0,-0.842083,-0.896193,-0.636354\C,0,-1.783242,0.70434,-0.088406
 \H,0,-1.659212,-2.071272,-0.260926\H,0,-0.598285,-0.8829,-2.099428\O,0
 ,-2.45404,0.714574,0.917701\H,0,-1.673297,1.626884,-0.701688\C,0,1.984
 469,0.836092,0.050692\H,0,1.114925,-0.991989,1.948262\H,0,2.181312,-1.
 957505,0.023583\O,0,1.307933,1.674242,-0.506315\H,0,3.038047,1.08137,0

 Normal termination of Gaussian 16 at Wed Apr  9 00:10:46 2025.
