 Gaussian 16, Revision C.01,

 ----------------------------------------------------------------------
 #t hf aug-cc-pvdz symm=none int=(grid=ultrafine) guess=(read,tcheck) s
 table=(opt,rrhf)
 ----------------------------------------------------------------------
 -----
 title
 -----
 Symbolic Z-matrix:
 Charge =  0 Multiplicity = 1

 SCF Done:  E(RHF) =  -494.254003613     A.U. after   15 cycles
 Normal termination of Gaussian 16 at Tue Apr  8 23:27:50 2025.
 Gaussian 16:  ES64L-G16RevC.01  3-Jul-2019

 ----------------------------------------------------------------------
 #t hf aug-cc-pvdz iop(5/13=1,5/36=2,99/5=2) pseudo=read geom=check gue
 ss=(read,tcheck) scf=(maxcycle=1)
 ----------------------------------------------------------------------
 -----
 title
 -----
 Structure from the checkpoint file:  "BDE49_nonexpt_1290_mol1.chk"
 Charge =  0 Multiplicity = 1

                         Standard orientation:
 ---------------------------------------------------------------------
 Center     Atomic      Atomic             Coordinates (Angstroms)
 Number     Number       Type             X           Y           Z
 ---------------------------------------------------------------------
      1          6           0       -1.446652   -0.952360    0.003960
      2          6           0       -0.491412    0.224470    0.008364
      3          1           0       -2.462564   -0.594995   -0.167131
      4          1           0       -1.397868   -1.466341    0.968894
      5          1           0       -1.166848   -1.677519   -0.765812
      6         15           0        1.360849   -0.158649   -0.117952
      7          8           0       -0.861688    1.371255    0.005345
      8          1           0        1.386841   -1.271606    0.759754
      9          1           0        1.749596    0.787491    0.856864
 ---------------------------------------------------------------------

 SCF Done:  E(RHF) =  -495.126207604     A.U. after    2 cycles

 The electronic state is 1-A.
 Alpha  occ. eigenvalues -- -105.19352 -21.06668 -11.48780 -11.39556  -2.76556
 Alpha  occ. eigenvalues --   -1.72115  -1.47353  -1.46282  -1.44003  -1.11305
 Alpha  occ. eigenvalues --   -0.81243  -0.69107  -0.60230  -0.58908  -0.53282
 Alpha  occ. eigenvalues --   -0.44003  -0.40665  -0.26642  -0.18413  -0.03868
 Alpha virt. eigenvalues --    0.03479   0.05887   0.06297   0.06576   0.08219
 Alpha virt. eigenvalues --    0.09318   0.10700   0.11455   0.12779   0.13465
 Alpha virt. eigenvalues --    0.14757   0.14809   0.16016   0.16626   0.17193

 Mulliken charges:
               1
     1  C   -3.626292
     2  C    1.275263
     3  H    1.262685
     4  H    1.207445
     5  H    1.315177
     6  P    2.367842
     7  O   -2.755243
     8  H   -0.524314
     9  H   -0.522563
 Sum of Mulliken charges =   0.00000

 Dipole moment (field-independent basis, Debye):
    X=              1.7940    Y=             -0.5141    Z=             -3.0635  Tot=              3.5872

 Test job not archived.
 1\1\GINC-SE049\SP\RHF\Aug-CC-pVDZ\C2H5O1P1\OHZDE\08-Apr-2025\0\\#t hf
 aug-cc-pvdz iop(5/13=1,5/36=2,99/5=2) pseudo=read geom=check guess=(re
 ad,tcheck) scf=(maxcycle=1)\\title\\0,1\C,0,-1.446652,-0.95236,0.00396
 \C,0,-0.491412,0.22447,0.008364\H,0,-2.462564,-0.594995,-0.167131\H,0,
 -1.397868,-1.466341,0.968894\H,0,-1.166848,-1.677519,-0.765812\P,0,1.3
 60849,-0.158649,-0.117952\O,0,-0.861688,1.371255,0.005345\H,0,1.386841
 ,-1.271606,0.759754\H,0,1.749596,0.787491,0.856864\\Version=ES64L-G16R
 evC.01\State=1-A\HF=-495.1262076\RMSD=3.496e-01\Dipole=0.7058316,-0.20

 Normal termination of Gaussian 16 at Tue Apr  8 23:27:52 2025.
