 Gaussian 16, Revision C.01,

 ----------------------------------------------------------------------
 #t hf aug-cc-pvdz symm=none int=(grid=ultrafine) guess=(read,tcheck) s
 table=(opt,rrhf)
 ----------------------------------------------------------------------
 -----
 title
 -----
 Symbolic Z-matrix:
 Charge =  0 Multiplicity = 1

 SCF Done:  E(RHF) =  -444.238390613     A.U. after   12 cycles
 Normal termination of Gaussian 16 at Wed Apr  9 00:06:30 2025.
 Gaussian 16:  ES64L-G16RevC.01  3-Jul-2019

 ----------------------------------------------------------------------
 #t hf aug-cc-pvdz iop(5/13=1,5/36=2,99/5=2) pseudo=read geom=check gue
 ss=(read,tcheck) scf=(maxcycle=1)
 ----------------------------------------------------------------------
 -----
 title
 -----
 Structure from the checkpoint file:  "BDE49_nonexpt_2239_mol1.chk"
 Charge =  0 Multiplicity = 1

                         Standard orientation:
 ---------------------------------------------------------------------
 Center     Atomic      Atomic             Coordinates (Angstroms)
 Number     Number       Type             X           Y           Z
 ---------------------------------------------------------------------
      1          6           0       -2.163562   -0.131292    0.000001
      2          8           0       -0.796936   -0.517004   -0.000002
      3          1           0       -2.770686   -1.038256    0.000001
      4          1           0       -2.414918    0.456801   -0.891113
      5          1           0       -2.414914    0.456797    0.891119
      6         14           0        0.483504    0.525870    0.000000
      7          6           0        2.039899   -0.499494    0.000000
      8          1           0        2.086583   -1.138306    0.885572
      9          1           0        2.921986    0.148189   -0.000001
     10          1           0        2.086583   -1.138307   -0.885572
     11          1           0        0.426888    1.405822    1.198491
     12          1           0        0.426890    1.405826   -1.198488
 ---------------------------------------------------------------------

 SCF Done:  E(RHF) =  -445.130567312     A.U. after    2 cycles

 The electronic state is 1-A.
 Alpha  occ. eigenvalues --  -76.21927 -21.03695 -11.40537 -11.34538  -5.55842
 Alpha  occ. eigenvalues --   -2.22700  -2.18820  -2.17246  -1.68920  -1.04102
 Alpha  occ. eigenvalues --   -0.97306  -0.71594  -0.60686  -0.60081  -0.56323
 Alpha  occ. eigenvalues --   -0.55959  -0.51269  -0.46970  -0.42002  -0.35783
 Alpha  occ. eigenvalues --   -0.34197
 Alpha virt. eigenvalues --    0.03794   0.04346   0.05882   0.06303   0.06501
 Alpha virt. eigenvalues --    0.06668   0.07455   0.08092   0.09238   0.09347
 Alpha virt. eigenvalues --    0.10610   0.14056   0.14941   0.15311   0.15711

 Mulliken charges:
               1
     1  C   -2.541419
     2  O   -3.198270
     3  H    1.327749
     4  H    1.371390
     5  H    1.371390
     6  Si   6.510158
     7  C   -4.901785
     8  H    1.315413
     9  H    1.272490
    10  H    1.315412
    11  H   -1.921263
    12  H   -1.921267
 Sum of Mulliken charges =  -0.00000

 Dipole moment (field-independent basis, Debye):
    X=             -0.2336    Y=             -0.6872    Z=             -0.0000  Tot=              0.7258

 Test job not archived.
 1\1\GINC-SE367\SP\RHF\Aug-CC-pVDZ\C2H8O1Si1\OHZDE\09-Apr-2025\0\\#t hf
  aug-cc-pvdz iop(5/13=1,5/36=2,99/5=2) pseudo=read geom=check guess=(r
 ead,tcheck) scf=(maxcycle=1)\\title\\0,1\C,0,-2.163562,-0.131292,0.000
 001\O,0,-0.796936,-0.517004,-0.000002\H,0,-2.770686,-1.038256,0.000001
 \H,0,-2.414918,0.456801,-0.891113\H,0,-2.414914,0.456797,0.891119\Si,0
 ,0.483504,0.52587,0.\C,0,2.039899,-0.499494,0.\H,0,2.086583,-1.138306,
 0.885572\H,0,2.921986,0.148189,-0.000001\H,0,2.086583,-1.138307,-0.885
 572\H,0,0.426888,1.405822,1.198491\H,0,0.42689,1.405826,-1.198488\\Ver

 Normal termination of Gaussian 16 at Wed Apr  9 00:06:33 2025.
