 Gaussian 16, Revision C.01,

 ----------------------------------------------------------------------
 #t hf aug-cc-pvdz symm=none int=(grid=ultrafine) guess=(read,tcheck) s
 table=(opt,rrhf)
 ----------------------------------------------------------------------
 -----
 title
 -----
 Symbolic Z-matrix:
 Charge =  0 Multiplicity = 1

 SCF Done:  E(RHF) =  -613.307452940     A.U. after   12 cycles
 Normal termination of Gaussian 16 at Wed Apr  9 00:03:08 2025.
 Gaussian 16:  ES64L-G16RevC.01  3-Jul-2019

 ----------------------------------------------------------------------
 #t hf aug-cc-pvdz iop(5/13=1,5/36=2,99/5=2) pseudo=read geom=check gue
 ss=(read,tcheck) scf=(maxcycle=1)
 ----------------------------------------------------------------------
 -----
 title
 -----
 Structure from the checkpoint file:  "BDE49_nonexpt_2153_mol1.chk"
 Charge =  0 Multiplicity = 1

                         Standard orientation:
 ---------------------------------------------------------------------
 Center     Atomic      Atomic             Coordinates (Angstroms)
 Number     Number       Type             X           Y           Z
 ---------------------------------------------------------------------
      1          6           0        2.662473    0.623171   -0.138574
      2          6           0        2.010383   -0.695958    0.290295
      3          1           0        2.899447    0.610492   -1.207852
      4          1           0        3.596230    0.795776    0.404073
      5          1           0        2.000875    1.472086    0.047481
      6          6           0        0.705317   -1.022502   -0.464901
      7          1           0        1.810743   -0.667403    1.367679
      8          1           0        2.726586   -1.511324    0.137285
      9         14           0       -0.801097   -0.003545   -0.029872
     10          1           0        0.421696   -2.066813   -0.277297
     11          1           0        0.870759   -0.965735   -1.548257
     12          8           0       -1.930873   -0.523872   -1.121582
     13          7           0       -1.314439   -0.176563    1.590903
     14          1           0       -1.247537   -1.042797    2.100771
     15          1           0       -1.359636    0.629221    2.194900
     16          1           0       -2.843926   -0.306168   -0.915565
     17          8           0       -0.593288    1.636846   -0.142879
     18          1           0       -0.534553    2.006178   -1.026559
 ---------------------------------------------------------------------

 SCF Done:  E(RHF) =  -614.965373821     A.U. after    2 cycles

 The electronic state is 1-A.
 Alpha  occ. eigenvalues --  -76.22227 -21.06279 -21.05967 -15.72104 -11.40693
 Alpha  occ. eigenvalues --  -11.36388 -11.33395  -5.57189  -2.24670  -2.22945
 Alpha  occ. eigenvalues --   -2.21144  -1.67153  -1.62945  -1.24631  -1.19284
 Alpha  occ. eigenvalues --   -0.99087  -0.83672  -0.70961  -0.65628  -0.61548
 Alpha  occ. eigenvalues --   -0.60269  -0.59890  -0.55071  -0.53726  -0.49997
 Alpha  occ. eigenvalues --   -0.46689  -0.45624  -0.45346  -0.43849  -0.40780
 Alpha  occ. eigenvalues --   -0.36846  -0.34298  -0.33860
 Alpha virt. eigenvalues --    0.03598   0.05357   0.05651   0.05804   0.06194
 Alpha virt. eigenvalues --    0.06263   0.06571   0.06939   0.07189   0.08697
 Alpha virt. eigenvalues --    0.08937   0.09527   0.10037   0.11281   0.12508

 Mulliken charges:
               1
     1  C   -3.671057
     2  C   -3.305191
     3  H    1.262761
     4  H    1.139844
     5  H    1.445744
     6  C   -4.014935
     7  H    1.399468
     8  H    1.311450
     9  Si   7.794314
    10  H    1.187694
    11  H    1.309625
    12  O   -3.225763
    13  N   -2.818347
    14  H    0.610571
    15  H    0.583811
    16  H    1.110076
    17  O   -3.120278
    18  H    1.000214
 Sum of Mulliken charges =   0.00000

 Dipole moment (field-independent basis, Debye):
    X=             -0.0868    Y=             -0.0102    Z=              0.6534  Tot=              0.6592

 Test job not archived.
 1\1\GINC-SE341\SP\RHF\Aug-CC-pVDZ\C3H11N1O2Si1\OHZDE\09-Apr-2025\0\\#t
  hf aug-cc-pvdz iop(5/13=1,5/36=2,99/5=2) pseudo=read geom=check guess
 =(read,tcheck) scf=(maxcycle=1)\\title\\0,1\C,0,2.662473,0.623171,-0.1
 38574\C,0,2.010383,-0.695958,0.290295\H,0,2.899447,0.610492,-1.207852\
 H,0,3.59623,0.795776,0.404073\H,0,2.000875,1.472086,0.047481\C,0,0.705
 317,-1.022502,-0.464901\H,0,1.810743,-0.667403,1.367679\H,0,2.726586,-
 1.511324,0.137285\Si,0,-0.801097,-0.003545,-0.029872\H,0,0.421696,-2.0
 66813,-0.277297\H,0,0.870759,-0.965735,-1.548257\O,0,-1.930873,-0.5238

 Normal termination of Gaussian 16 at Wed Apr  9 00:03:15 2025.
