 Gaussian 16, Revision C.01,

 ----------------------------------------------------------------------
 #t hf aug-cc-pvdz symm=none int=(grid=ultrafine) guess=(read,tcheck) s
 table=(opt,rrhf)
 ----------------------------------------------------------------------
 -----
 title
 -----
 Symbolic Z-matrix:
 Charge =  0 Multiplicity = 1

 SCF Done:  E(RHF) =  -345.693167217     A.U. after   14 cycles
 Normal termination of Gaussian 16 at Tue Apr  8 23:22:00 2025.
 Gaussian 16:  ES64L-G16RevC.01  3-Jul-2019

 ----------------------------------------------------------------------
 #t hf aug-cc-pvdz iop(5/13=1,5/36=2,99/5=2) pseudo=read geom=check gue
 ss=(read,tcheck) scf=(maxcycle=1)
 ----------------------------------------------------------------------
 -----
 title
 -----
 Structure from the checkpoint file:  "BDE49_nonexpt_1186_mol1.chk"
 Charge =  0 Multiplicity = 1

                         Standard orientation:
 ---------------------------------------------------------------------
 Center     Atomic      Atomic             Coordinates (Angstroms)
 Number     Number       Type             X           Y           Z
 ---------------------------------------------------------------------
      1          9           0        2.512519   -0.331125   -0.000001
      2          7           0        0.294713   -0.574092   -0.000001
      3          6           0       -1.141339    1.428267    0.000001
      4          6           0       -0.875616   -0.054478    0.000000
      5          6           0       -2.026855   -1.017980    0.000000
      6          8           0        1.269573    0.399035   -0.000001
      7          1           0       -0.688920    1.898150   -0.878572
      8          1           0       -0.688916    1.898149    0.878573
      9          1           0       -2.211037    1.637056    0.000004
     10          1           0       -1.667148   -2.046201    0.000000
     11          1           0       -2.656677   -0.857758   -0.881446
     12          1           0       -2.656676   -0.857759    0.881448
 ---------------------------------------------------------------------

 SCF Done:  E(RHF) =  -347.161686841     A.U. after    2 cycles

 The electronic state is 1-A.
 Alpha  occ. eigenvalues --  -29.28606 -21.16642 -15.79024 -11.47027 -11.40935
 Alpha  occ. eigenvalues --  -11.39203  -1.87777  -1.33147  -1.09832  -1.04963
 Alpha  occ. eigenvalues --   -0.77869  -0.71433  -0.65393  -0.64114  -0.58659
 Alpha  occ. eigenvalues --   -0.57070  -0.54846  -0.54677  -0.51812  -0.39816
 Alpha  occ. eigenvalues --   -0.38255  -0.33371  -0.25498  -0.20174
 Alpha virt. eigenvalues --    0.02830   0.05016   0.05639   0.05760   0.06678
 Alpha virt. eigenvalues --    0.06689   0.09815   0.12643   0.12951   0.13618
 Alpha virt. eigenvalues --    0.13982   0.14311   0.14945   0.15431   0.17929

 Mulliken charges:
               1
     1  F   -0.395190
     2  N   -1.281969
     3  C   -4.246547
     4  C    2.763783
     5  C   -3.702937
     6  O   -0.916346
     7  H    1.289152
     8  H    1.289152
     9  H    1.428287
    10  H    1.328594
    11  H    1.222012
    12  H    1.222010
 Sum of Mulliken charges =  -0.00000

 Dipole moment (field-independent basis, Debye):
    X=             -1.3119    Y=              0.6800    Z=              0.0000  Tot=              1.4777

 Test job not archived.
 1\1\GINC-SE069\SP\RHF\Aug-CC-pVDZ\C3H6F1N1O1\OHZDE\08-Apr-2025\0\\#t h
 f aug-cc-pvdz iop(5/13=1,5/36=2,99/5=2) pseudo=read geom=check guess=(
 read,tcheck) scf=(maxcycle=1)\\title\\0,1\F,0,2.512519,-0.331125,-0.00
 0001\N,0,0.294713,-0.574092,-0.000001\C,0,-1.141339,1.428267,0.000001\
 C,0,-0.875616,-0.054478,0.\C,0,-2.026855,-1.01798,0.\O,0,1.269573,0.39
 9035,-0.000001\H,0,-0.68892,1.89815,-0.878572\H,0,-0.688916,1.898149,0
 .878573\H,0,-2.211037,1.637056,0.000004\H,0,-1.667148,-2.046201,0.\H,0
 ,-2.656677,-0.857758,-0.881446\H,0,-2.656676,-0.857759,0.881448\\Versi

 Normal termination of Gaussian 16 at Tue Apr  8 23:22:03 2025.
