 Gaussian 16, Revision C.01,

 ----------------------------------------------------------------------
 #t hf aug-cc-pvdz symm=none int=(grid=ultrafine) guess=(read,tcheck) s
 table=(opt,rrhf)
 ----------------------------------------------------------------------
 -----
 title
 -----
 Symbolic Z-matrix:
 Charge =  0 Multiplicity = 1

 SCF Done:  E(RHF) =  -783.633776148     A.U. after   14 cycles
 Normal termination of Gaussian 16 at Tue Apr  8 23:52:53 2025.
 Gaussian 16:  ES64L-G16RevC.01  3-Jul-2019

 ----------------------------------------------------------------------
 #t hf aug-cc-pvdz iop(5/13=1,5/36=2,99/5=2) pseudo=read geom=check gue
 ss=(read,tcheck) scf=(maxcycle=1)
 ----------------------------------------------------------------------
 -----
 title
 -----
 Structure from the checkpoint file:  "BDE49_nonexpt_1882_mol1.chk"
 Charge =  0 Multiplicity = 1

                         Standard orientation:
 ---------------------------------------------------------------------
 Center     Atomic      Atomic             Coordinates (Angstroms)
 Number     Number       Type             X           Y           Z
 ---------------------------------------------------------------------
      1         14           0       -0.695260    1.631580    0.005911
      2          6           0        1.115336    1.448943   -0.497018
      3          6           0       -1.513371   -0.093153   -0.220050
      4          8           0       -0.981972   -1.020104   -0.786060
      5          1           0       -1.368843    2.573927   -0.918058
      6          1           0       -0.858100    2.107327    1.392242
      7          8           0       -2.757798   -0.151505    0.300061
      8          6           0       -3.452232   -1.410447    0.155847
      9          1           0       -4.420156   -1.263728    0.628711
     10          1           0       -2.896881   -2.207554    0.651743
     11          1           0       -3.571036   -1.660240   -0.899392
     12          6           0        1.761220    0.288218    0.218440
     13          8           0        1.569668    0.012374    1.379915
     14          8           0        2.583014   -0.406784   -0.586605
     15          6           0        3.195498   -1.568729    0.004618
     16          1           0        2.428499   -2.276122    0.322215
     17          1           0        3.802838   -1.286033    0.865533
     18          1           0        3.814607   -1.999673   -0.778831
     19          1           0        1.638214    2.365073   -0.199206
     20          1           0        1.222495    1.344054   -1.577222
 ---------------------------------------------------------------------

 SCF Done:  E(RHF) =  -785.933915723     A.U. after    2 cycles

 The electronic state is 1-A.
 Alpha  occ. eigenvalues --  -76.23261 -21.09383 -21.08925 -21.05683 -21.04503
 Alpha  occ. eigenvalues --  -11.52781 -11.48051 -11.41624 -11.41179 -11.38726
 Alpha  occ. eigenvalues --   -5.56976  -2.21324  -2.20444  -2.19249  -1.83940
 Alpha  occ. eigenvalues --   -1.83352  -1.66017  -1.65874  -1.12403  -1.02792
 Alpha  occ. eigenvalues --   -1.00068  -0.83631  -0.75539  -0.71387  -0.67257
 Alpha  occ. eigenvalues --   -0.64515  -0.63658  -0.62981  -0.60663  -0.57580
 Alpha  occ. eigenvalues --   -0.56109  -0.54325  -0.52395  -0.51903  -0.48715
 Alpha  occ. eigenvalues --   -0.47067  -0.42725  -0.41433  -0.40328  -0.32759
 Alpha  occ. eigenvalues --   -0.31615  -0.29785  -0.28624
 Alpha virt. eigenvalues --    0.03487   0.04656   0.04808   0.05576   0.05855
 Alpha virt. eigenvalues --    0.06113   0.06400   0.06722   0.07417   0.08012
 Alpha virt. eigenvalues --    0.08457   0.09189   0.10939   0.11238   0.12475

 Mulliken charges:
               1
     1  Si   6.195794
     2  C   -4.932339
     3  C    2.924046
     4  O   -2.400303
     5  H   -1.979827
     6  H   -1.968652
     7  O   -3.015523
     8  C   -3.019158
     9  H    1.326582
    10  H    1.352779
    11  H    1.360152
    12  C    6.641256
    13  O   -3.157135
    14  O   -3.262289
    15  C   -3.128961
    16  H    1.364487
    17  H    1.329140
    18  H    1.284111
    19  H    1.485144
    20  H    1.600698
 Sum of Mulliken charges =  -0.00000

 Dipole moment (field-independent basis, Debye):
    X=              0.1214    Y=             -0.6788    Z=             -0.7233  Tot=              0.9994

 Test job not archived.
 1\1\GINC-SE453\SP\RHF\Aug-CC-pVDZ\C5H10O4Si1\OHZDE\08-Apr-2025\0\\#t h
 f aug-cc-pvdz iop(5/13=1,5/36=2,99/5=2) pseudo=read geom=check guess=(
 read,tcheck) scf=(maxcycle=1)\\title\\0,1\Si,0,-0.69526,1.63158,0.0059
 11\C,0,1.115336,1.448943,-0.497018\C,0,-1.513371,-0.093153,-0.22005\O,
 0,-0.981972,-1.020104,-0.78606\H,0,-1.368843,2.573927,-0.918058\H,0,-0
 .8581,2.107327,1.392242\O,0,-2.757798,-0.151505,0.300061\C,0,-3.452232
 ,-1.410447,0.155847\H,0,-4.420156,-1.263728,0.628711\H,0,-2.896881,-2.
 207554,0.651743\H,0,-3.571036,-1.66024,-0.899392\C,0,1.76122,0.288218,

 Normal termination of Gaussian 16 at Tue Apr  8 23:53:04 2025.
