 Gaussian 16, Revision C.01,

 ----------------------------------------------------------------------
 #t hf aug-cc-pvdz symm=none int=(grid=ultrafine) guess=(read,tcheck) s
 table=(opt,rrhf)
 ----------------------------------------------------------------------
 -----
 title
 -----
 Symbolic Z-matrix:
 Charge =  0 Multiplicity = 1

 SCF Done:  E(RHF) =  -615.054715319     A.U. after   14 cycles

 1\1\GINC-SE071\Stability\RHF\Aug-CC-pVDZ\C4H7Cl1\OHZDE\08-Apr-2025\0\\
 #t hf aug-cc-pvdz symm=none int=(grid=ultrafine) guess=(read,tcheck) s
 table=(opt,rrhf)\\title\\0,1\C,0,0.766721,0.844796,0.080997\C,0,-0.527
 077,0.214764,0.45295\C,0,-1.597866,0.21126,-0.340487\Cl,0,2.105185,-0.
 409369,-0.088558\H,0,1.135745,1.527649,0.844964\H,0,0.717454,1.355811,
 -0.878313\C,0,-2.926471,-0.389121,0.003206\H,0,-0.5704,-0.256257,1.432
 034\H,0,-1.520417,0.677753,-1.321962\H,0,-2.920752,-0.839423,0.998016\
 H,0,-3.202233,-1.162652,-0.721878\H,0,-3.719385,0.366191,-0.027377\\Ve

 Normal termination of Gaussian 16 at Tue Apr  8 22:48:36 2025.
 Gaussian 16:  ES64L-G16RevC.01  3-Jul-2019

 ----------------------------------------------------------------------
 #t hf aug-cc-pvdz iop(5/13=1,5/36=2,99/5=2) pseudo=read geom=check gue
 ss=(read,tcheck) scf=(maxcycle=1)
 ----------------------------------------------------------------------
 -----
 title
 -----
 Structure from the checkpoint file:  "BDE49_expt_1651_mol1.chk"
 Charge =  0 Multiplicity = 1

                         Standard orientation:
 ---------------------------------------------------------------------
 Center     Atomic      Atomic             Coordinates (Angstroms)
 Number     Number       Type             X           Y           Z
 ---------------------------------------------------------------------
      1          6           0        0.766721    0.844796    0.080997
      2          6           0       -0.527077    0.214764    0.452950
      3          6           0       -1.597866    0.211260   -0.340487
      4         17           0        2.105185   -0.409369   -0.088558
      5          1           0        1.135745    1.527649    0.844964
      6          1           0        0.717454    1.355811   -0.878313
      7          6           0       -2.926471   -0.389121    0.003206
      8          1           0       -0.570400   -0.256257    1.432034
      9          1           0       -1.520417    0.677753   -1.321962
     10          1           0       -2.920752   -0.839423    0.998016
     11          1           0       -3.202233   -1.162652   -0.721878
     12          1           0       -3.719385    0.366191   -0.027377
 ---------------------------------------------------------------------

 SCF Done:  E(RHF) =  -616.087328793     A.U. after    2 cycles

 The electronic state is 1-A.
 Alpha  occ. eigenvalues --  -99.86952 -11.45821 -11.43947 -11.40221 -11.37570
 Alpha  occ. eigenvalues --  -10.44139  -9.64041  -9.63345  -9.63300  -1.32951
 Alpha  occ. eigenvalues --   -1.21152  -1.06602  -0.93010  -0.79682  -0.65365
 Alpha  occ. eigenvalues --   -0.63602  -0.59943  -0.56923  -0.55831  -0.51911
 Alpha  occ. eigenvalues --   -0.49774  -0.46963  -0.45211  -0.35187
 Alpha virt. eigenvalues --    0.03388   0.04728   0.05896   0.06142   0.06217
 Alpha virt. eigenvalues --    0.06283   0.07516   0.08554   0.09858   0.11722
 Alpha virt. eigenvalues --    0.11977   0.13096   0.14158   0.15462   0.16258

 Mulliken charges:
               1
     1  C   -4.735080
     2  C    0.083916
     3  C   -0.377498
     4  Cl   0.081973
     5  H    1.371624
     6  H    1.559301
     7  C   -4.330997
     8  H    1.349450
     9  H    1.409035
    10  H    1.272989
    11  H    1.163283
    12  H    1.152003
 Sum of Mulliken charges =   0.00000

 Dipole moment (field-independent basis, Debye):
    X=             -2.6783    Y=              1.4043    Z=              0.0742  Tot=              3.0251

 Test job not archived.
 1\1\GINC-SE071\SP\RHF\Aug-CC-pVDZ\C4H7Cl1\OHZDE\08-Apr-2025\0\\#t hf a
 ug-cc-pvdz iop(5/13=1,5/36=2,99/5=2) pseudo=read geom=check guess=(rea
 d,tcheck) scf=(maxcycle=1)\\title\\0,1\C,0,0.766721,0.844796,0.080997\
 C,0,-0.527077,0.214764,0.45295\C,0,-1.597866,0.21126,-0.340487\Cl,0,2.
 105185,-0.409369,-0.088558\H,0,1.135745,1.527649,0.844964\H,0,0.717454
 ,1.355811,-0.878313\C,0,-2.926471,-0.389121,0.003206\H,0,-0.5704,-0.25
 6257,1.432034\H,0,-1.520417,0.677753,-1.321962\H,0,-2.920752,-0.839423
 ,0.998016\H,0,-3.202233,-1.162652,-0.721878\H,0,-3.719385,0.366191,-0.

 Normal termination of Gaussian 16 at Tue Apr  8 22:48:39 2025.
