 Gaussian 16, Revision C.01,

 ----------------------------------------------------------------------
 #t hf aug-cc-pvdz symm=none int=(grid=ultrafine) guess=(read,tcheck) s
 table=(opt,rrhf)
 ----------------------------------------------------------------------
 -----
 title
 -----
 Symbolic Z-matrix:
 Charge =  0 Multiplicity = 1

 SCF Done:  E(RHF) =  -802.406767351     A.U. after   16 cycles
 Normal termination of Gaussian 16 at Tue Apr  8 22:37:08 2025.
 Gaussian 16:  ES64L-G16RevC.01  3-Jul-2019

 ----------------------------------------------------------------------
 #t hf aug-cc-pvdz iop(5/13=1,5/36=2,99/5=2) pseudo=read geom=check gue
 ss=(read,tcheck) scf=(maxcycle=1)
 ----------------------------------------------------------------------
 -----
 title
 -----
 Structure from the checkpoint file:  "BDE49_expt_1080_mol1.chk"
 Charge =  0 Multiplicity = 1

                         Standard orientation:
 ---------------------------------------------------------------------
 Center     Atomic      Atomic             Coordinates (Angstroms)
 Number     Number       Type             X           Y           Z
 ---------------------------------------------------------------------
      1          6           0        0.133363    0.201007    0.000130
      2          6           0       -1.291511    0.607800    0.000200
      3          8           0       -1.710625    1.716244   -0.000057
      4          6           0        0.567103   -1.128932    0.000105
      5          6           0        1.928587   -1.412248    0.000045
      6          6           0        2.860668   -0.376403    0.000004
      7          6           0        2.432376    0.951422    0.000024
      8          1           0        2.261865   -2.443224    0.000028
      9          1           0        3.920845   -0.602928   -0.000044
     10          1           0       -0.157102   -1.931318    0.000137
     11          6           0        1.075477    1.242075    0.000085
     12          1           0        3.156519    1.757556   -0.000008
     13          1           0        0.724158    2.265898    0.000102
     14         17           0       -2.497510   -0.781427   -0.000195
 ---------------------------------------------------------------------

 SCF Done:  E(RHF) =  -804.217780391     A.U. after    2 cycles

 The electronic state is 1-A.
 Alpha  occ. eigenvalues --  -99.89520 -21.09658 -11.56129 -11.53907 -11.46025
 Alpha  occ. eigenvalues --  -11.45724 -11.43958 -11.42979 -11.39144 -10.46792
 Alpha  occ. eigenvalues --   -9.66689  -9.66163  -9.65857  -1.76182  -1.37563
 Alpha  occ. eigenvalues --   -1.30222  -1.14169  -1.11892  -0.94279  -0.89138
 Alpha  occ. eigenvalues --   -0.81291  -0.73925  -0.68555  -0.63559  -0.61409
 Alpha  occ. eigenvalues --   -0.60469  -0.59374  -0.55590  -0.52398  -0.50774
 Alpha  occ. eigenvalues --   -0.48152  -0.46888  -0.45927  -0.35433  -0.34737
 Alpha  occ. eigenvalues --   -0.34588
 Alpha virt. eigenvalues --    0.02728   0.04670   0.04731   0.06406   0.06577
 Alpha virt. eigenvalues --    0.06960   0.07931   0.09875   0.10158   0.11097
 Alpha virt. eigenvalues --    0.12333   0.12551   0.12885   0.12992   0.13257

 Mulliken charges:
               1
     1  C    4.049836
     2  C   -0.082688
     3  O   -3.402764
     4  C   -0.153267
     5  C   -1.046099
     6  C   -2.908797
     7  C   -1.180713
     8  H    1.506621
     9  H    1.511077
    10  H    1.837460
    11  C   -2.892927
    12  H    1.465564
    13  H    1.673714
    14  Cl  -0.377016
 Sum of Mulliken charges =  -0.00000

 Dipole moment (field-independent basis, Debye):
    X=              3.6446    Y=              1.1395    Z=              0.0001  Tot=              3.8185

 Test job not archived.
 1\1\GINC-SE249\SP\RHF\Aug-CC-pVDZ\C7H5Cl1O1\OHZDE\08-Apr-2025\0\\#t hf
  aug-cc-pvdz iop(5/13=1,5/36=2,99/5=2) pseudo=read geom=check guess=(r
 ead,tcheck) scf=(maxcycle=1)\\title\\0,1\C,0,0.133363,0.201007,0.00013
 \C,0,-1.291511,0.6078,0.0002\O,0,-1.710625,1.716244,-0.000057\C,0,0.56
 7103,-1.128932,0.000105\C,0,1.928587,-1.412248,0.000045\C,0,2.860668,-
 0.376403,0.000004\C,0,2.432376,0.951422,0.000024\H,0,2.261865,-2.44322
 4,0.000028\H,0,3.920845,-0.602928,-0.000044\H,0,-0.157102,-1.931318,0.
 000137\C,0,1.075477,1.242075,0.000085\H,0,3.156519,1.757556,-0.000008\

 Normal termination of Gaussian 16 at Tue Apr  8 22:37:14 2025.
