 Gaussian 16, Revision C.01,

 ----------------------------------------------------------------------
 #t hf aug-cc-pvdz symm=none int=(grid=ultrafine) guess=(read,tcheck) s
 table=(opt,rrhf)
 ----------------------------------------------------------------------
 -----
 title
 -----
 Symbolic Z-matrix:
 Charge =  0 Multiplicity = 1

 SCF Done:  E(RHF) =  -1045.24317597     A.U. after   14 cycles
 Normal termination of Gaussian 16 at Wed Apr  9 00:17:06 2025.
 Gaussian 16:  ES64L-G16RevC.01  3-Jul-2019

 ----------------------------------------------------------------------
 #t hf aug-cc-pvdz iop(5/13=1,5/36=2,99/5=2) pseudo=read geom=check gue
 ss=(read,tcheck) scf=(maxcycle=1)
 ----------------------------------------------------------------------
 -----
 title
 -----
 Structure from the checkpoint file:  "BDE49_nonexpt_2551_mol1.chk"
 Charge =  0 Multiplicity = 1

                         Standard orientation:
 ---------------------------------------------------------------------
 Center     Atomic      Atomic             Coordinates (Angstroms)
 Number     Number       Type             X           Y           Z
 ---------------------------------------------------------------------
      1         17           0       -1.862036    0.305437    0.000511
      2         16           0       -0.235440   -0.948392   -0.000270
      3          6           0        1.095488    0.271896   -0.000694
      4          8           0        0.993699    1.458045   -0.000200
      5          8           0        2.240451   -0.438467    0.000106
      6          1           0        2.975524    0.193836    0.000552
 ---------------------------------------------------------------------

 SCF Done:  E(RHF) =  -1046.46811638     A.U. after    2 cycles

 The electronic state is 1-A.
 Alpha  occ. eigenvalues --  -99.92548 -75.77261 -21.16115 -21.09273 -13.18277
 Alpha  occ. eigenvalues --  -13.13330 -13.08278 -11.55841 -10.49719  -9.69433
 Alpha  occ. eigenvalues --   -9.68788  -9.68651  -8.11193  -1.86261  -1.69856
 Alpha  occ. eigenvalues --   -1.36279  -1.13254  -0.84088  -0.66042  -0.64269
 Alpha  occ. eigenvalues --   -0.60630  -0.56690  -0.56279  -0.53867  -0.46154
 Alpha  occ. eigenvalues --   -0.37707  -0.31208  -0.28665
 Alpha virt. eigenvalues --    0.02499   0.04690   0.06532   0.09819   0.11407
 Alpha virt. eigenvalues --    0.11750   0.12929   0.13141   0.13382   0.15254
 Alpha virt. eigenvalues --    0.15462   0.15909   0.17527   0.20317   0.21329

 Mulliken charges:
               1
     1  Cl  -0.346618
     2  S    1.066558
     3  C    3.083330
     4  O   -2.225413
     5  O   -2.468221
     6  H    0.890365
 Sum of Mulliken charges =  -0.00000

 Dipole moment (field-independent basis, Debye):
    X=              2.4640    Y=             -2.9423    Z=              0.0010  Tot=              3.8377

 Test job not archived.
 1\1\GINC-SE126\SP\RHF\Aug-CC-pVDZ\C1H1Cl1O2S1\OHZDE\09-Apr-2025\0\\#t
 hf aug-cc-pvdz iop(5/13=1,5/36=2,99/5=2) pseudo=read geom=check guess=
 (read,tcheck) scf=(maxcycle=1)\\title\\0,1\Cl,0,-1.862036,0.305437,0.0
 00511\S,0,-0.23544,-0.948392,-0.00027\C,0,1.095488,0.271896,-0.000694\
 O,0,0.993699,1.458045,-0.0002\O,0,2.240451,-0.438467,0.000106\H,0,2.97
 5524,0.193836,0.000552\\Version=ES64L-G16RevC.01\State=1-A\HF=-1046.46
 81164\RMSD=5.708e-02\Dipole=0.969396,-1.1575796,0.0003945\Quadrupole=2
 .6398422,0.0742999,-2.7141421,0.0801933,0.000923,0.0007886\PG=C01 [X(C

 Normal termination of Gaussian 16 at Wed Apr  9 00:17:08 2025.
