 Gaussian 16, Revision C.01,

 ----------------------------------------------------------------------
 #t hf aug-cc-pvdz symm=none int=(grid=ultrafine) guess=(read,tcheck) s
 table=opt
 ----------------------------------------------------------------------
 -----
 title
 -----
 Symbolic Z-matrix:
 Charge =  0 Multiplicity = 2

 SCF Done:  E(UHF) =  -192.402803717     A.U. after   19 cycles
 Normal termination of Gaussian 16 at Wed Apr  9 00:36:20 2025.
 Gaussian 16:  ES64L-G16RevC.01  3-Jul-2019

 ----------------------------------------------------------------------
 #t hf aug-cc-pvdz iop(5/13=1,5/36=2,99/5=2) pseudo=read geom=check gue
 ss=(read,tcheck) scf=(maxcycle=1)
 ----------------------------------------------------------------------
 -----
 title
 -----
 Structure from the checkpoint file:  "BDE49_nonexpt_509_mol2.chk"
 Charge =  0 Multiplicity = 2

                         Standard orientation:
 ---------------------------------------------------------------------
 Center     Atomic      Atomic             Coordinates (Angstroms)
 Number     Number       Type             X           Y           Z
 ---------------------------------------------------------------------
      1          5           0       -1.745971    0.289922    0.000002
      2          6           0        0.596119   -0.084276   -0.000002
      3          7           0        1.706047    0.232207    0.000000
      4          8           0       -0.636119   -0.506202   -0.000001
      5          1           0       -1.700235    1.480221    0.000004
 ---------------------------------------------------------------------

 SCF Done:  E(UHF) =  -193.171012098     A.U. after    2 cycles

 The electronic state is 2-A.
 Alpha  occ. eigenvalues --  -21.16447 -15.77653 -11.50545  -7.71854  -1.89692
 Alpha  occ. eigenvalues --   -1.30818  -0.89948  -0.72639  -0.61020  -0.58475
 Alpha  occ. eigenvalues --   -0.54834  -0.42064  -0.41460  -0.37466
 Alpha virt. eigenvalues --    0.02412   0.03565   0.04093   0.04844   0.09119
 Alpha virt. eigenvalues --    0.10141   0.11787   0.12784   0.13383   0.13402
 Alpha virt. eigenvalues --    0.17722   0.18701   0.20131   0.20134   0.21680

  Beta  occ. eigenvalues --  -21.16356 -15.77815 -11.50263  -7.69771  -1.89128
  Beta  occ. eigenvalues --   -1.30939  -0.86632  -0.70846  -0.60866  -0.56269
  Beta  occ. eigenvalues --   -0.54585  -0.41518  -0.41373
  Beta virt. eigenvalues --    0.01961   0.03036   0.03652   0.04829   0.06609
  Beta virt. eigenvalues --    0.11212   0.11418   0.11898   0.12911   0.13442
  Beta virt. eigenvalues --    0.14967   0.17965   0.18833   0.20625   0.20782

 Mulliken charges and spin densities:
               1          2
     1  B    2.162098   1.105009
     2  C    3.877321   0.123213
     3  N   -2.345581  -0.063597
     4  O   -2.223602  -0.229496
     5  H   -1.470237   0.064871
 Sum of Mulliken charges =  -0.00000   1.00000

 Dipole moment (field-independent basis, Debye):
    X=             -2.3613    Y=             -0.3353    Z=             -0.0000  Tot=              2.3850
                          Isotropic Fermi Contact Couplings
        Atom                 a.u.       MegaHertz       Gauss      10(-4) cm-1
     1  B(11)              0.28369     406.91527     145.19749     135.73232
     2  C(13)              0.06623      74.46008      26.56921      24.83721
     3  N(14)             -0.00748      -2.41531      -0.86184      -0.80566
     4  O(17)              0.13455     -81.56589     -29.10474     -27.20745
     5  H(1)               0.02743     122.62219      43.75465      40.90236
 --------------------------------------------------------
       Center         ----  Spin Dipole Couplings  ----
                      3XX-RR        3YY-RR        3ZZ-RR

 Normal termination of Gaussian 16 at Wed Apr  9 00:36:22 2025.
