 Gaussian 16, Revision C.01,

 ----------------------------------------------------------------------
 #t hf aug-cc-pvdz symm=none int=(grid=ultrafine) guess=(read,tcheck) s
 table=(opt,rrhf)
 ----------------------------------------------------------------------
 -----
 title
 -----
 Symbolic Z-matrix:
 Charge =  0 Multiplicity = 1

 SCF Done:  E(RHF) =  -749.695975091     A.U. after   12 cycles
 Normal termination of Gaussian 16 at Tue Apr  8 23:42:34 2025.
 Gaussian 16:  ES64L-G16RevC.01  3-Jul-2019

 ----------------------------------------------------------------------
 #t hf aug-cc-pvdz iop(5/13=1,5/36=2,99/5=2) pseudo=read geom=check gue
 ss=(read,tcheck) scf=(maxcycle=1)
 ----------------------------------------------------------------------
 -----
 title
 -----
 Structure from the checkpoint file:  "BDE49_nonexpt_1668_mol1.chk"
 Charge =  0 Multiplicity = 1

                         Standard orientation:
 ---------------------------------------------------------------------
 Center     Atomic      Atomic             Coordinates (Angstroms)
 Number     Number       Type             X           Y           Z
 ---------------------------------------------------------------------
      1         15           0        1.960193    0.214507   -0.625329
      2         14           0        0.391011   -0.469514    0.894197
      3          6           0       -1.371648   -0.123472    0.277817
      4          6           0       -1.649638    1.381970    0.112908
      5          1           0       -1.040294    1.815941   -0.686652
      6          1           0       -1.442463    1.941340    1.029735
      7          6           0       -1.713807   -0.904834   -1.003467
      8          1           0       -2.698464    1.556004   -0.150512
      9          1           0       -2.017433   -0.497693    1.084780
     10          1           0       -2.757898   -0.738888   -1.290382
     11          1           0       -1.090196   -0.587241   -1.844894
     12          1           0       -1.573191   -1.981695   -0.875620
     13          1           0        3.049396   -0.097921    0.230274
     14          1           0        1.926222    1.578598   -0.232442
     15          1           0        0.589416    0.177642    2.216272
     16          1           0        0.588406   -1.932472    1.057075
 ---------------------------------------------------------------------

 SCF Done:  E(RHF) =  -750.686774456     A.U. after    2 cycles

 The electronic state is 1-A.
 Alpha  occ. eigenvalues -- -105.16986 -76.21523 -11.40559 -11.38663 -11.34762
 Alpha  occ. eigenvalues --   -5.55125  -2.73672  -2.19034  -2.17534  -2.16840
 Alpha  occ. eigenvalues --   -1.43774  -1.43108  -1.41065  -1.20816  -1.00290
 Alpha  occ. eigenvalues --   -0.85261  -0.76421  -0.66404  -0.62342  -0.58303
 Alpha  occ. eigenvalues --   -0.56299  -0.53641  -0.47764  -0.47010  -0.44881
 Alpha  occ. eigenvalues --   -0.38243  -0.25682  -0.15178  -0.03528
 Alpha virt. eigenvalues --    0.03852   0.05708   0.05834   0.05976   0.06224
 Alpha virt. eigenvalues --    0.06477   0.06605   0.07007   0.07922   0.09522
 Alpha virt. eigenvalues --    0.09753   0.09935   0.10088   0.11154   0.12241

 Mulliken charges:
               1
     1  P    1.297252
     2  Si   4.464800
     3  C   -2.249090
     4  C   -3.783699
     5  H    1.404146
     6  H    1.281745
     7  C   -3.849782
     8  H    1.223350
     9  H    1.662795
    10  H    1.235832
    11  H    1.280273
    12  H    1.330905
    13  H   -0.679668
    14  H   -0.786080
    15  H   -1.978903
    16  H   -1.853876
 Sum of Mulliken charges =   0.00000

 Dipole moment (field-independent basis, Debye):
    X=              0.3388    Y=             -0.5084    Z=             -5.8577  Tot=              5.8894

 Test job not archived.
 1\1\GINC-SE365\SP\RHF\Aug-CC-pVDZ\C3H11P1Si1\OHZDE\08-Apr-2025\0\\#t h
 f aug-cc-pvdz iop(5/13=1,5/36=2,99/5=2) pseudo=read geom=check guess=(
 read,tcheck) scf=(maxcycle=1)\\title\\0,1\P,0,-1.960193,0.214507,0.625
 329\Si,0,-0.391011,-0.469514,-0.894197\C,0,1.371648,-0.123472,-0.27781
 7\C,0,1.649638,1.38197,-0.112908\H,0,1.040294,1.815941,0.686652\H,0,1.
 442463,1.94134,-1.029735\C,0,1.713807,-0.904834,1.003467\H,0,2.698464,
 1.556004,0.150512\H,0,2.017433,-0.497693,-1.08478\H,0,2.757898,-0.7388
 88,1.290382\H,0,1.090196,-0.587241,1.844894\H,0,1.573191,-1.981695,0.8

 Normal termination of Gaussian 16 at Tue Apr  8 23:42:38 2025.
