 Gaussian 16, Revision C.01,

 ----------------------------------------------------------------------
 #t hf aug-cc-pvdz symm=none int=(grid=ultrafine) guess=(read,tcheck) s
 table=(opt,rrhf)
 ----------------------------------------------------------------------
 -----
 title
 -----
 Symbolic Z-matrix:
 Charge =  0 Multiplicity = 1

 SCF Done:  E(RHF) =  -827.243817454     A.U. after   14 cycles
 Normal termination of Gaussian 16 at Wed Apr  9 00:12:23 2025.
 Gaussian 16:  ES64L-G16RevC.01  3-Jul-2019

 ----------------------------------------------------------------------
 #t hf aug-cc-pvdz iop(5/13=1,5/36=2,99/5=2) pseudo=read geom=check gue
 ss=(read,tcheck) scf=(maxcycle=1)
 ----------------------------------------------------------------------
 -----
 title
 -----
 Structure from the checkpoint file:  "BDE49_nonexpt_2389_mol1.chk"
 Charge =  0 Multiplicity = 1

                         Standard orientation:
 ---------------------------------------------------------------------
 Center     Atomic      Atomic             Coordinates (Angstroms)
 Number     Number       Type             X           Y           Z
 ---------------------------------------------------------------------
      1         14           0        2.433736   -0.458160    0.478224
      2         14           0        0.840614    0.918932   -0.577474
      3          1           0        1.876450   -0.988056    1.746258
      4          1           0        3.643588    0.337841    0.816625
      5          1           0        2.845620   -1.578139   -0.394969
      6          7           0       -0.828621    0.605544   -0.018608
      7          1           0        0.922286    0.820534   -2.052813
      8          1           0        1.029505    2.347388   -0.212156
      9          6           0       -1.178957   -0.709438   -0.164638
     10          8           0       -0.350179   -1.490681   -0.630582
     11          6           0       -2.561206   -1.162333    0.251313
     12          1           0       -3.336644   -0.613490   -0.289883
     13          1           0       -2.723628   -0.993246    1.319530
     14          1           0       -2.652136   -2.224704    0.036814
     15          6           0       -1.745134    1.614136    0.516833
     16          1           0       -1.221669    2.566857    0.583092
     17          1           0       -2.093203    1.352148    1.520311
     18          1           0       -2.617504    1.754498   -0.129443
 ---------------------------------------------------------------------

 SCF Done:  E(RHF) =  -828.717402746     A.U. after    2 cycles

 The electronic state is 1-A.
 Alpha  occ. eigenvalues --  -76.22721 -76.20501 -21.02879 -15.73648 -11.50765
 Alpha  occ. eigenvalues --  -11.41423 -11.39595  -5.56271  -5.53850  -2.21031
 Alpha  occ. eigenvalues --   -2.18480  -2.17693  -2.15973  -2.15881  -2.15129
 Alpha  occ. eigenvalues --   -1.71589  -1.38411  -1.10342  -1.01628  -0.82745
 Alpha  occ. eigenvalues --   -0.75550  -0.68472  -0.65538  -0.64856  -0.60873
 Alpha  occ. eigenvalues --   -0.58341  -0.56940  -0.50374  -0.48601  -0.47008
 Alpha  occ. eigenvalues --   -0.46048  -0.45286  -0.44563  -0.36196  -0.31634
 Alpha  occ. eigenvalues --   -0.29149
 Alpha virt. eigenvalues --    0.03096   0.04850   0.05241   0.05316   0.05550
 Alpha virt. eigenvalues --    0.06226   0.06662   0.07045   0.07661   0.08377
 Alpha virt. eigenvalues --    0.08747   0.09157   0.09336   0.09589   0.10465

 Mulliken charges:
               1
     1  Si   4.818865
     2  Si   3.720836
     3  H   -1.540183
     4  H   -1.736497
     5  H   -1.553337
     6  N   -2.576467
     7  H   -2.079398
     8  H   -1.751382
     9  C    5.119421
    10  O   -3.101156
    11  C   -4.418456
    12  H    1.338165
    13  H    1.309443
    14  H    1.159082
    15  C   -3.377104
    16  H    1.602190
    17  H    1.550923
    18  H    1.515054
 Sum of Mulliken charges =  -0.00000

 Dipole moment (field-independent basis, Debye):
    X=             -2.5918    Y=              0.7148    Z=              0.7696  Tot=              2.7965

 Test job not archived.
 1\1\GINC-SE457\SP\RHF\Aug-CC-pVDZ\C3H11N1O1Si2\OHZDE\09-Apr-2025\0\\#t
  hf aug-cc-pvdz iop(5/13=1,5/36=2,99/5=2) pseudo=read geom=check guess
 =(read,tcheck) scf=(maxcycle=1)\\title\\0,1\Si,0,2.433736,-0.45816,0.4
 78224\Si,0,0.840614,0.918932,-0.577474\H,0,1.87645,-0.988056,1.746258\
 H,0,3.643588,0.337841,0.816625\H,0,2.84562,-1.578139,-0.394969\N,0,-0.
 828621,0.605544,-0.018608\H,0,0.922286,0.820534,-2.052813\H,0,1.029505
 ,2.347388,-0.212156\C,0,-1.178957,-0.709438,-0.164638\O,0,-0.350179,-1
 .490681,-0.630582\C,0,-2.561206,-1.162333,0.251313\H,0,-3.336644,-0.61

 Normal termination of Gaussian 16 at Wed Apr  9 00:12:30 2025.
