 Gaussian 16, Revision C.01,

 ----------------------------------------------------------------------
 #t hf aug-cc-pvdz symm=none int=(grid=ultrafine) guess=(read,tcheck) s
 table=opt
 ----------------------------------------------------------------------
 -----
 title
 -----
 Symbolic Z-matrix:
 Charge =  0 Multiplicity = 2

 SCF Done:  E(UHF) =  -440.298552774     A.U. after   22 cycles

 1\1\GINC-SE335\Stability\UHF\Aug-CC-pVDZ\H3O2Si1\OHZDE\08-Apr-2025\0\\
 #t hf aug-cc-pvdz symm=none int=(grid=ultrafine) guess=(read,tcheck) s
 table=opt\\title\\0,2\Si,0,1.050446,-0.034813,-0.023577\O,0,-0.453801,
 0.701004,-0.014419\H,0,1.373152,-0.674293,1.275734\H,0,1.171118,-1.001
 665,-1.144469\O,0,-1.459068,-0.397366,0.126608\H,0,-1.94757,-0.265767,
 -0.698695\\Version=ES64L-G16RevC.01\HF=-440.2985528\S2=0.80003\S2-1=0.
 \S2A=0.750387\RMSD=8.443e-09\Dipole=0.0875988,-0.2477596,-0.5359707\Qu
 adrupole=1.8709548,-1.7743671,-0.0965877,0.2786044,2.4348954,0.292132\

 Normal termination of Gaussian 16 at Tue Apr  8 23:51:17 2025.
 Gaussian 16:  ES64L-G16RevC.01  3-Jul-2019

 ----------------------------------------------------------------------
 #t hf aug-cc-pvdz iop(5/13=1,5/36=2,99/5=2) pseudo=read geom=check gue
 ss=(read,tcheck) scf=(maxcycle=1)
 ----------------------------------------------------------------------
 -----
 title
 -----
 Structure from the checkpoint file:  "BDE49_nonexpt_1886_mol2.chk"
 Charge =  0 Multiplicity = 2

                         Standard orientation:
 ---------------------------------------------------------------------
 Center     Atomic      Atomic             Coordinates (Angstroms)
 Number     Number       Type             X           Y           Z
 ---------------------------------------------------------------------
      1         14           0        1.050446   -0.034813   -0.023577
      2          8           0       -0.453801    0.701004   -0.014419
      3          1           0        1.373152   -0.674293    1.275734
      4          1           0        1.171118   -1.001665   -1.144469
      5          8           0       -1.459068   -0.397366    0.126608
      6          1           0       -1.947570   -0.265767   -0.698695
 ---------------------------------------------------------------------

 SCF Done:  E(UHF) =  -441.040082192     A.U. after    2 cycles

 The electronic state is 2-A.
 Alpha  occ. eigenvalues --  -76.26061 -21.13924 -21.09447  -5.59522  -2.25360
 Alpha  occ. eigenvalues --   -2.20870  -2.20004  -1.89105  -1.42167  -0.75016
 Alpha  occ. eigenvalues --   -0.62801  -0.52810  -0.50439  -0.47560  -0.36790
 Alpha  occ. eigenvalues --   -0.33104  -0.27732
 Alpha virt. eigenvalues --    0.03886   0.05780   0.06622   0.06644   0.07885
 Alpha virt. eigenvalues --    0.09244   0.13568   0.14296   0.16874   0.18068
 Alpha virt. eigenvalues --    0.18292   0.19771   0.21466   0.23512   0.25244

  Beta  occ. eigenvalues --  -76.25502 -21.12943 -21.10112  -5.58633  -2.24746
  Beta  occ. eigenvalues --   -2.20245  -2.16454  -1.88542  -1.41746  -0.70897
  Beta  occ. eigenvalues --   -0.62657  -0.51842  -0.49884  -0.46214  -0.36985
  Beta  occ. eigenvalues --   -0.31610
  Beta virt. eigenvalues --    0.03215   0.04075   0.06020   0.06815   0.07274
  Beta virt. eigenvalues --    0.09341   0.10563   0.14366   0.15836   0.17501
  Beta virt. eigenvalues --    0.19748   0.20409   0.21023   0.22583   0.23893

 Mulliken charges and spin densities:
               1          2
     1  Si   4.212246   1.063409
     2  O   -1.132619  -0.331216
     3  H   -1.475548   0.010178
     4  H   -1.474967   0.005515
     5  O   -1.141260   0.269618
     6  H    1.012149  -0.017504
 Sum of Mulliken charges =  -0.00000   1.00000

 Dipole moment (field-independent basis, Debye):
    X=             -0.4951    Y=             -0.0365    Z=             -0.6238  Tot=              0.7972
                          Isotropic Fermi Contact Couplings
        Atom                 a.u.       MegaHertz       Gauss      10(-4) cm-1
     1  Si(29)             0.51012    -453.35896    -161.76975    -151.22427
     2  O(17)              0.08171     -49.53502     -17.67533     -16.52310
     3  H(1)               0.01068      47.74018      17.03489      15.92441
     4  H(1)               0.00922      41.20291      14.70222      13.74381
     5  O(17)              0.01697     -10.28476      -3.66986      -3.43063
     6  H(1)              -0.00301     -13.44482      -4.79745      -4.48471
 --------------------------------------------------------
       Center         ----  Spin Dipole Couplings  ----

 Normal termination of Gaussian 16 at Tue Apr  8 23:51:19 2025.
