 Gaussian 16, Revision C.01,

 ----------------------------------------------------------------------
 #t hf aug-cc-pvdz symm=none int=(grid=ultrafine) guess=(read,tcheck) s
 table=opt
 ----------------------------------------------------------------------
 -----
 title
 -----
 Symbolic Z-matrix:
 Charge =  0 Multiplicity = 2

 SCF Done:  E(UHF) =  -765.683453530     A.U. after   16 cycles
 Normal termination of Gaussian 16 at Wed Apr  9 00:32:59 2025.
 Gaussian 16:  ES64L-G16RevC.01  3-Jul-2019

 ----------------------------------------------------------------------
 #t hf aug-cc-pvdz iop(5/13=1,5/36=2,99/5=2) pseudo=read geom=check gue
 ss=(read,tcheck) scf=(maxcycle=1)
 ----------------------------------------------------------------------
 -----
 title
 -----
 Structure from the checkpoint file:  "BDE49_nonexpt_380_mol2.chk"
 Charge =  0 Multiplicity = 2

                         Standard orientation:
 ---------------------------------------------------------------------
 Center     Atomic      Atomic             Coordinates (Angstroms)
 Number     Number       Type             X           Y           Z
 ---------------------------------------------------------------------
      1          9           0        3.073416    0.114799    0.001554
      2          5           0        1.871629   -0.414052   -0.057807
      3         15           0       -0.771663   -0.055498   -0.114523
      4          8           0       -1.166330   -0.890585   -1.236360
      5          8           0       -0.968559   -0.695415    1.337770
      6          1           0       -1.570894   -1.448929    1.314893
      7          8           0       -1.485299    1.358375   -0.073962
      8          1           0       -1.153038    1.958543    0.604644
      9          8           0        0.780186    0.397616   -0.018279
 ---------------------------------------------------------------------

 SCF Done:  E(UHF) =  -767.523852706     A.U. after    2 cycles

 The electronic state is 2-A.
 Alpha  occ. eigenvalues -- -105.35263 -29.27590 -21.13965 -21.13842 -21.09836
 Alpha  occ. eigenvalues --  -21.04558  -7.73502  -2.98600  -2.04217  -1.95307
 Alpha  occ. eigenvalues --   -1.94268  -1.78428  -1.47953  -1.42884  -1.27252
 Alpha  occ. eigenvalues --   -0.95630  -0.72405  -0.65199  -0.62551  -0.56746
 Alpha  occ. eigenvalues --   -0.55252  -0.50948  -0.48153  -0.44457  -0.41693
 Alpha  occ. eigenvalues --   -0.39902  -0.38634  -0.36708  -0.31085  -0.30030
 Alpha  occ. eigenvalues --   -0.23874  -0.17610
 Alpha virt. eigenvalues --    0.03198   0.04339   0.04862   0.05785   0.06903
 Alpha virt. eigenvalues --    0.10715   0.11217   0.12425   0.12883   0.14308
 Alpha virt. eigenvalues --    0.14979   0.19309   0.20284   0.20504   0.21429

  Beta  occ. eigenvalues -- -105.35263 -29.27279 -21.13967 -21.13840 -21.09532
  Beta  occ. eigenvalues --  -21.04564  -7.71281  -2.98600  -2.04153  -1.95263
  Beta  occ. eigenvalues --   -1.93937  -1.78240  -1.47468  -1.42885  -1.27189
  Beta  occ. eigenvalues --   -0.92620  -0.71871  -0.63233  -0.62450  -0.55697
  Beta  occ. eigenvalues --   -0.53519  -0.48089  -0.44044  -0.42854  -0.40781
  Beta  occ. eigenvalues --   -0.39729  -0.38313  -0.36652  -0.30859  -0.29923
  Beta  occ. eigenvalues --   -0.17671
  Beta virt. eigenvalues --    0.02814   0.04344   0.04928   0.05827   0.06131
  Beta virt. eigenvalues --    0.07621   0.10760   0.11936   0.12903   0.14873
  Beta virt. eigenvalues --    0.15041   0.17437   0.19695   0.20516   0.21299

 Mulliken charges and spin densities:
               1          2
     1  F   -1.177059  -0.049782
     2  B    1.541057   1.437912
     3  P    8.936907  -0.002593
     4  O   -2.768069   0.027743
     5  O   -2.571730   0.001314
     6  H    0.866337  -0.004310
     7  O   -2.768730  -0.028379
     8  H    0.913728  -0.006794
     9  O   -2.972440  -0.375111
 Sum of Mulliken charges =   0.00000   1.00000

 Dipole moment (field-independent basis, Debye):
    X=              2.8419    Y=              2.8398    Z=              3.0928  Tot=              5.0702
                          Isotropic Fermi Contact Couplings
        Atom                 a.u.       MegaHertz       Gauss      10(-4) cm-1
     1  F(19)              0.12558     528.38521     188.54098     176.25034
     2  B(11)              0.30556     438.27910     156.38888     146.19417
     3  P(31)              0.01043      18.88809       6.73974       6.30039
     4  O(17)             -0.00214       1.29833       0.46328       0.43308
     5  O(17)             -0.00052       0.31554       0.11259       0.10525
     6  H(1)              -0.00003      -0.13563      -0.04839      -0.04524
     7  O(17)              0.00050      -0.30389      -0.10843      -0.10137
     8  H(1)               0.00003       0.11605       0.04141       0.03871

 Normal termination of Gaussian 16 at Wed Apr  9 00:33:03 2025.
