 Gaussian 16, Revision C.01,

 ----------------------------------------------------------------------
 #t hf aug-cc-pvdz symm=none int=(grid=ultrafine) guess=(read,tcheck) s
 table=(opt,rrhf)
 ----------------------------------------------------------------------
 -----
 title
 -----
 Symbolic Z-matrix:
 Charge =  0 Multiplicity = 1

 SCF Done:  E(RHF) =  -1741.76529190     A.U. after   14 cycles
 Normal termination of Gaussian 16 at Wed Apr  9 00:42:26 2025.
 Gaussian 16:  ES64L-G16RevC.01  3-Jul-2019

 ----------------------------------------------------------------------
 #t hf aug-cc-pvdz iop(5/13=1,5/36=2,99/5=2) pseudo=read geom=check gue
 ss=(read,tcheck) scf=(maxcycle=1)
 ----------------------------------------------------------------------
 -----
 title
 -----
 Structure from the checkpoint file:  "BDE49_nonexpt_676_mol1.chk"
 Charge =  0 Multiplicity = 1

                         Standard orientation:
 ---------------------------------------------------------------------
 Center     Atomic      Atomic             Coordinates (Angstroms)
 Number     Number       Type             X           Y           Z
 ---------------------------------------------------------------------
      1          8           0        1.242167    0.658495   -0.467269
      2          5           0        2.443006   -0.040127   -0.220332
      3          8           0        3.482574    0.787116    0.034337
      4          8           0        2.556360   -1.388706   -0.241807
      5          8           0        0.196186   -0.297345   -0.785092
      6          6           0       -0.925965   -0.004306   -0.038150
      7         17           0       -2.090599   -1.241229   -0.582785
      8         17           0       -1.554821    1.636838   -0.368392
      9         17           0       -0.619393   -0.178850    1.730185
     10          1           0        1.727492   -1.838352   -0.434873
     11          1           0        4.296787    0.303434    0.200947
 ---------------------------------------------------------------------

 SCF Done:  E(RHF) =  -1743.97340288     A.U. after    2 cycles

 The electronic state is 1-A.
 Alpha  occ. eigenvalues --  -99.93214 -99.92594 -99.92308 -21.16683 -21.11769
 Alpha  occ. eigenvalues --  -21.08055 -21.07473 -11.59874 -10.50628 -10.49930
 Alpha  occ. eigenvalues --  -10.49655  -9.70525  -9.69825  -9.69687  -9.69595
 Alpha  occ. eigenvalues --   -9.69479  -9.69067  -9.68959  -9.68758  -9.68662
 Alpha  occ. eigenvalues --   -7.69090  -2.05293  -1.83686  -1.69166  -1.55709
 Alpha  occ. eigenvalues --   -1.39577  -1.32261  -1.31705  -0.95731  -0.79409
 Alpha  occ. eigenvalues --   -0.75133  -0.74695  -0.71090  -0.66735  -0.63878
 Alpha  occ. eigenvalues --   -0.59823  -0.57421  -0.55353  -0.53896  -0.52272
 Alpha  occ. eigenvalues --   -0.51961  -0.51104  -0.49333  -0.44300  -0.43394
 Alpha  occ. eigenvalues --   -0.38722  -0.38146  -0.35344
 Alpha virt. eigenvalues --   -0.00460   0.02997   0.04861   0.05285   0.05730
 Alpha virt. eigenvalues --    0.06239   0.06633   0.07195   0.08205   0.09302
 Alpha virt. eigenvalues --    0.10361   0.11165   0.13224   0.13960   0.14828

 Mulliken charges:
               1
     1  O   -2.601742
     2  B    8.331751
     3  O   -3.713166
     4  O   -3.831119
     5  O   -1.437521
     6  C   -0.235009
     7  Cl   0.331887
     8  Cl   0.489245
     9  Cl   0.347021
    10  H    1.404892
    11  H    0.913762
 Sum of Mulliken charges =  -0.00000

 Dipole moment (field-independent basis, Debye):
    X=              1.8971    Y=             -1.0739    Z=             -0.8672  Tot=              2.3461

 Test job not archived.
 1\1\GINC-SE115\SP\RHF\Aug-CC-pVDZ\C1H2B1Cl3O4\OHZDE\09-Apr-2025\0\\#t
 hf aug-cc-pvdz iop(5/13=1,5/36=2,99/5=2) pseudo=read geom=check guess=
 (read,tcheck) scf=(maxcycle=1)\\title\\0,1\O,0,1.242167,0.658495,-0.46
 7269\B,0,2.443006,-0.040127,-0.220332\O,0,3.482574,0.787116,0.034337\O
 ,0,2.55636,-1.388706,-0.241807\O,0,0.196186,-0.297345,-0.785092\C,0,-0
 .925965,-0.004306,-0.03815\Cl,0,-2.090599,-1.241229,-0.582785\Cl,0,-1.
 554821,1.636838,-0.368392\Cl,0,-0.619393,-0.17885,1.730185\H,0,1.72749
 2,-1.838352,-0.434873\H,0,4.296787,0.303434,0.200947\\Version=ES64L-G1

 Normal termination of Gaussian 16 at Wed Apr  9 00:42:34 2025.
