 Gaussian 16, Revision C.01,

 ----------------------------------------------------------------------
 #t hf aug-cc-pvdz symm=none int=(grid=ultrafine) guess=(read,tcheck) s
 table=(opt,rrhf)
 ----------------------------------------------------------------------
 -----
 title
 -----
 Symbolic Z-matrix:
 Charge =  0 Multiplicity = 1

 SCF Done:  E(RHF) =  -763.517995429     A.U. after   16 cycles
 Normal termination of Gaussian 16 at Wed Apr  9 00:04:23 2025.
 Gaussian 16:  ES64L-G16RevC.01  3-Jul-2019

 ----------------------------------------------------------------------
 #t hf aug-cc-pvdz iop(5/13=1,5/36=2,99/5=2) pseudo=read geom=check gue
 ss=(read,tcheck) scf=(maxcycle=1)
 ----------------------------------------------------------------------
 -----
 title
 -----
 Structure from the checkpoint file:  "BDE49_nonexpt_2158_mol1.chk"
 Charge =  0 Multiplicity = 1

                         Standard orientation:
 ---------------------------------------------------------------------
 Center     Atomic      Atomic             Coordinates (Angstroms)
 Number     Number       Type             X           Y           Z
 ---------------------------------------------------------------------
      1          6           0       -2.617251   -0.506566    0.244998
      2         14           0       -1.742465    0.978656   -0.607373
      3          8           0       -3.677463   -0.899926   -0.164441
      4          8           0       -2.030012   -1.088895    1.325763
      5          7           0       -0.193349    1.296978    0.117147
      6          6           0        1.003165    0.562952    0.016725
      7          1           0       -0.074816    2.196949    0.561625
      8          1           0       -1.187607   -0.646991    1.503509
      9          6           0        1.030516   -0.706225   -0.580167
     10          6           0        2.197625    1.087104    0.532982
     11          6           0        3.380985    0.362874    0.452589
     12          6           0        3.404019   -0.897140   -0.143234
     13          6           0        2.221644   -1.422364   -0.657513
     14          1           0        2.219002   -2.400705   -1.124620
     15          1           0        0.125358   -1.140247   -0.991036
     16          1           0        2.192970    2.068650    0.997078
     17          1           0        4.291827    0.789176    0.858017
     18          1           0        4.327797   -1.459286   -0.205138
     19          1           0       -2.550020    2.187823   -0.360996
     20          1           0       -1.660982    0.651375   -2.044098
 ---------------------------------------------------------------------

 SCF Done:  E(RHF) =  -765.805931722     A.U. after    2 cycles

 The electronic state is 1-A.
 Alpha  occ. eigenvalues --  -76.25716 -21.12195 -21.05857 -15.76282 -11.53981
 Alpha  occ. eigenvalues --  -11.48584 -11.47036 -11.44553 -11.41855 -11.41658
 Alpha  occ. eigenvalues --  -11.37493  -5.59580  -2.25383  -2.22456  -2.21787
 Alpha  occ. eigenvalues --   -1.81222  -1.65321  -1.42679  -1.28054  -1.10716
 Alpha  occ. eigenvalues --   -1.07112  -0.89453  -0.87937  -0.84327  -0.75994
 Alpha  occ. eigenvalues --   -0.73023  -0.68619  -0.65822  -0.62532  -0.59512
 Alpha  occ. eigenvalues --   -0.58642  -0.55814  -0.54951  -0.53667  -0.52044
 Alpha  occ. eigenvalues --   -0.49568  -0.46859  -0.45355  -0.45193  -0.44792
 Alpha  occ. eigenvalues --   -0.34729  -0.33583  -0.30263  -0.27308
 Alpha virt. eigenvalues --    0.02838   0.04370   0.04593   0.05196   0.05563
 Alpha virt. eigenvalues --    0.05661   0.06506   0.07332   0.07794   0.09123
 Alpha virt. eigenvalues --    0.09290   0.10307   0.10784   0.11219   0.11796

 Mulliken charges:
               1
     1  C    3.134847
     2  Si   5.601711
     3  O   -2.659653
     4  O   -2.864204
     5  N   -4.969508
     6  C    4.402513
     7  H    0.869555
     8  H    1.236346
     9  C   -1.149632
    10  C   -4.142241
    11  C   -0.316676
    12  C   -2.835343
    13  C   -0.767596
    14  H    1.513802
    15  H    2.085071
    16  H    1.740408
    17  H    1.517616
    18  H    1.568247
    19  H   -2.086037
    20  H   -1.879227
 Sum of Mulliken charges =   0.00000

 Dipole moment (field-independent basis, Debye):
    X=              2.5605    Y=              1.5166    Z=              0.5769  Tot=              3.0313

 Test job not archived.
 1\1\GINC-SE455\SP\RHF\Aug-CC-pVDZ\C7H9N1O2Si1\OHZDE\09-Apr-2025\0\\#t
 hf aug-cc-pvdz iop(5/13=1,5/36=2,99/5=2) pseudo=read geom=check guess=
 (read,tcheck) scf=(maxcycle=1)\\title\\0,1\C,0,-2.617251,-0.506566,0.2
 44998\Si,0,-1.742465,0.978656,-0.607373\O,0,-3.677463,-0.899926,-0.164
 441\O,0,-2.030012,-1.088895,1.325763\N,0,-0.193349,1.296978,0.117147\C
 ,0,1.003165,0.562952,0.016725\H,0,-0.074816,2.196949,0.561625\H,0,-1.1
 87607,-0.646991,1.503509\C,0,1.030516,-0.706225,-0.580167\C,0,2.197625
 ,1.087104,0.532982\C,0,3.380985,0.362874,0.452589\C,0,3.404019,-0.8971

 Normal termination of Gaussian 16 at Wed Apr  9 00:04:34 2025.
