 Gaussian 16, Revision C.01,

 ----------------------------------------------------------------------
 #t hf aug-cc-pvdz symm=none int=(grid=ultrafine) guess=(read,tcheck) s
 table=(opt,rrhf)
 ----------------------------------------------------------------------
 -----
 title
 -----
 Symbolic Z-matrix:
 Charge =  0 Multiplicity = 1

 SCF Done:  E(RHF) =  -884.040810845     A.U. after   12 cycles
 Normal termination of Gaussian 16 at Wed Apr  9 00:17:12 2025.
 Gaussian 16:  ES64L-G16RevC.01  3-Jul-2019

 ----------------------------------------------------------------------
 #t hf aug-cc-pvdz iop(5/13=1,5/36=2,99/5=2) pseudo=read geom=check gue
 ss=(read,tcheck) scf=(maxcycle=1)
 ----------------------------------------------------------------------
 -----
 title
 -----
 Structure from the checkpoint file:  "BDE49_nonexpt_2521_mol1.chk"
 Charge =  0 Multiplicity = 1

                         Standard orientation:
 ---------------------------------------------------------------------
 Center     Atomic      Atomic             Coordinates (Angstroms)
 Number     Number       Type             X           Y           Z
 ---------------------------------------------------------------------
      1          6           0        3.455905   -0.030868   -0.000000
      2          6           0        2.014110   -0.532731   -0.000000
      3          1           0        4.148841   -0.877858   -0.000000
      4          1           0        3.661908    0.577217    0.883932
      5          1           0        3.661908    0.577217   -0.883932
      6         16           0        0.845668    0.904134   -0.000000
      7          1           0        1.824342   -1.141645    0.885626
      8          1           0        1.824342   -1.141646   -0.885625
      9         14           0       -1.105084   -0.055769   -0.000000
     10          6           0       -2.327283    1.370569   -0.000000
     11          1           0       -2.203364    2.000882    0.884587
     12          1           0       -3.353614    0.989294   -0.000000
     13          6           0       -1.331036   -1.120534   -1.535474
     14          1           0       -1.212273   -0.526834   -2.445560
     15          1           0       -2.331989   -1.565311   -1.547195
     16          1           0       -0.607974   -1.940425   -1.571533
     17          6           0       -1.331036   -1.120533    1.535475
     18          1           0       -2.331989   -1.565310    1.547195
     19          1           0       -1.212273   -0.526833    2.445561
     20          1           0       -0.607974   -1.940425    1.571534
     21          1           0       -2.203364    2.000882   -0.884588
 ---------------------------------------------------------------------

 SCF Done:  E(RHF) =  -885.479499811     A.U. after    2 cycles

 The electronic state is 1-A.
 Alpha  occ. eigenvalues --  -76.20844 -75.65206 -13.10273 -13.06951 -13.02739
 Alpha  occ. eigenvalues --  -11.41650 -11.36787 -11.34711 -11.34667 -11.34499
 Alpha  occ. eigenvalues --   -7.99317  -5.54815  -2.18341  -2.18166  -2.17349
 Alpha  occ. eigenvalues --   -1.21344  -1.08515  -1.01961  -1.00914  -1.00556
 Alpha  occ. eigenvalues --   -0.85754  -0.65018  -0.62713  -0.58408  -0.56606
 Alpha  occ. eigenvalues --   -0.56392  -0.56297  -0.54730  -0.54654  -0.53370
 Alpha  occ. eigenvalues --   -0.51063  -0.49740  -0.41528  -0.39910  -0.37432
 Alpha  occ. eigenvalues --   -0.30323  -0.24136
 Alpha virt. eigenvalues --    0.02814   0.03880   0.05107   0.05330   0.06127
 Alpha virt. eigenvalues --    0.06247   0.06367   0.06808   0.07185   0.07279
 Alpha virt. eigenvalues --    0.08093   0.08590   0.08779   0.09513   0.10054

 Mulliken charges:
               1
     1  C   -4.041172
     2  C   -3.385258
     3  H    1.106390
     4  H    1.352803
     5  H    1.352803
     6  S   -1.457725
     7  H    1.497056
     8  H    1.497055
     9  Si   9.228527
    10  C   -5.798316
    11  H    1.177242
    12  H    1.194855
    13  C   -5.913981
    14  H    1.173205
    15  H    1.160567
    16  H    1.129459
    17  C   -5.913980
    18  H    1.160567
    19  H    1.173205
    20  H    1.129458
    21  H    1.177241
 Sum of Mulliken charges =  -0.00000

 Dipole moment (field-independent basis, Debye):
    X=              0.4099    Y=              0.1332    Z=             -0.0000  Tot=              0.4310

 Test job not archived.
 1\1\GINC-SE162\SP\RHF\Aug-CC-pVDZ\C5H14S1Si1\OHZDE\09-Apr-2025\0\\#t h
 f aug-cc-pvdz iop(5/13=1,5/36=2,99/5=2) pseudo=read geom=check guess=(
 read,tcheck) scf=(maxcycle=1)\\title\\0,1\C,0,-3.455905,0.030868,0.\C,
 0,-2.01411,0.532731,0.\H,0,-4.148841,0.877858,0.\H,0,-3.661908,-0.5772
 17,0.883932\H,0,-3.661908,-0.577217,-0.883932\S,0,-0.845668,-0.904134,
 0.\H,0,-1.824342,1.141645,0.885626\H,0,-1.824342,1.141646,-0.885625\Si
 ,0,1.105084,0.055769,0.\C,0,2.327283,-1.370569,0.\H,0,2.203364,-2.0008
 82,0.884587\H,0,3.353614,-0.989294,0.\C,0,1.331036,1.120534,-1.535474\

 Normal termination of Gaussian 16 at Wed Apr  9 00:17:21 2025.
