 Gaussian 16, Revision C.01,

 ----------------------------------------------------------------------
 #t hf aug-cc-pvdz symm=none int=(grid=ultrafine) guess=(read,tcheck) s
 table=(opt,rrhf)
 ----------------------------------------------------------------------
 -----
 title
 -----
 Symbolic Z-matrix:
 Charge =  0 Multiplicity = 1

 SCF Done:  E(RHF) =  -671.604570729     A.U. after   11 cycles
 Normal termination of Gaussian 16 at Tue Apr  8 23:54:19 2025.
 Gaussian 16:  ES64L-G16RevC.01  3-Jul-2019

 ----------------------------------------------------------------------
 #t hf aug-cc-pvdz iop(5/13=1,5/36=2,99/5=2) pseudo=read geom=check gue
 ss=(read,tcheck) scf=(maxcycle=1)
 ----------------------------------------------------------------------
 -----
 title
 -----
 Structure from the checkpoint file:  "BDE49_nonexpt_1950_mol1.chk"
 Charge =  0 Multiplicity = 1

                         Standard orientation:
 ---------------------------------------------------------------------
 Center     Atomic      Atomic             Coordinates (Angstroms)
 Number     Number       Type             X           Y           Z
 ---------------------------------------------------------------------
      1         14           0       -1.569067   -0.175751   -0.005392
      2          6           0        0.040027    0.809467    0.042179
      3          1           0       -1.658790   -0.962934   -1.256927
      4          1           0       -2.723622    0.751512    0.063325
      5          1           0       -1.635267   -1.104946    1.147403
      6         15           0        1.575991   -0.251854   -0.117641
      7          1           0        1.482982   -0.908592    1.137405
      8          1           0        2.524780    0.692572    0.357223
      9          1           0        0.060278    1.418021    0.949650
     10          1           0        0.036555    1.495895   -0.811050
 ---------------------------------------------------------------------

 SCF Done:  E(RHF) =  -672.185432442     A.U. after    2 cycles

 The electronic state is 1-A.
 Alpha  occ. eigenvalues -- -105.17996 -76.21659 -11.36312  -5.55154  -2.74913
 Alpha  occ. eigenvalues --   -2.18696  -2.17304  -2.17265  -1.46250  -1.44021
 Alpha  occ. eigenvalues --   -1.42751  -1.01646  -0.75124  -0.70254  -0.58540
 Alpha  occ. eigenvalues --   -0.47977  -0.46706  -0.44483  -0.25556  -0.23250
 Alpha  occ. eigenvalues --   -0.02673
 Alpha virt. eigenvalues --    0.04051   0.05135   0.05904   0.06034   0.07456
 Alpha virt. eigenvalues --    0.07821   0.08150   0.09320   0.09985   0.10455
 Alpha virt. eigenvalues --    0.11166   0.12370   0.14729   0.15527   0.15912

 Mulliken charges:
               1
     1  Si   5.921145
     2  C   -4.815022
     3  H   -1.738053
     4  H   -1.629584
     5  H   -1.721787
     6  P    2.602103
     7  H   -0.633291
     8  H   -0.491172
     9  H    1.280508
    10  H    1.225154
 Sum of Mulliken charges =  -0.00000

 Dipole moment (field-independent basis, Debye):
    X=              0.9061    Y=             -0.2535    Z=             -1.8688  Tot=              2.0923

 Test job not archived.
 1\1\GINC-SE253\SP\RHF\Aug-CC-pVDZ\C1H7P1Si1\OHZDE\08-Apr-2025\0\\#t hf
  aug-cc-pvdz iop(5/13=1,5/36=2,99/5=2) pseudo=read geom=check guess=(r
 ead,tcheck) scf=(maxcycle=1)\\title\\0,1\Si,0,-1.569067,-0.175751,-0.0
 05392\C,0,0.040027,0.809467,0.042179\H,0,-1.65879,-0.962934,-1.256927\
 H,0,-2.723622,0.751512,0.063325\H,0,-1.635267,-1.104946,1.147403\P,0,1
 .575991,-0.251854,-0.117641\H,0,1.482982,-0.908592,1.137405\H,0,2.5247
 8,0.692572,0.357223\H,0,0.060278,1.418021,0.94965\H,0,0.036555,1.49589
 5,-0.81105\\Version=ES64L-G16RevC.01\State=1-A\HF=-672.1854324\RMSD=3.

 Normal termination of Gaussian 16 at Tue Apr  8 23:54:21 2025.
