 Gaussian 16, Revision C.01,

 ----------------------------------------------------------------------
 #t hf aug-cc-pvdz symm=none int=(grid=ultrafine) guess=(read,tcheck) s
 table=(opt,rrhf)
 ----------------------------------------------------------------------
 -----
 title
 -----
 Symbolic Z-matrix:
 Charge =  0 Multiplicity = 1

 SCF Done:  E(RHF) =  -1085.93206516     A.U. after   12 cycles
 Normal termination of Gaussian 16 at Tue Apr  8 23:48:18 2025.
 Gaussian 16:  ES64L-G16RevC.01  3-Jul-2019

 ----------------------------------------------------------------------
 #t hf aug-cc-pvdz iop(5/13=1,5/36=2,99/5=2) pseudo=read geom=check gue
 ss=(read,tcheck) scf=(maxcycle=1)
 ----------------------------------------------------------------------
 -----
 title
 -----
 Structure from the checkpoint file:  "BDE49_nonexpt_1802_mol1.chk"
 Charge =  0 Multiplicity = 1

                         Standard orientation:
 ---------------------------------------------------------------------
 Center     Atomic      Atomic             Coordinates (Angstroms)
 Number     Number       Type             X           Y           Z
 ---------------------------------------------------------------------
      1         14           0       -0.329595    0.437030    0.385654
      2         17           0       -1.941705   -0.718494   -0.144297
      3          6           0        1.243403   -0.303000   -0.392314
      4          9           0       -0.529148    1.901112   -0.223155
      5          9           0        1.462465   -1.539539    0.169790
      6          9           0        2.304804    0.507023   -0.053073
      7          1           0       -0.224038    0.517573    1.845000
      8          1           0        1.243846   -0.420954   -1.479296
 ---------------------------------------------------------------------

 SCF Done:  E(RHF) =  -1087.51659483     A.U. after    2 cycles

 The electronic state is 1-A.
 Alpha  occ. eigenvalues --  -99.91377 -76.31721 -29.30180 -29.29997 -29.29917
 Alpha  occ. eigenvalues --  -11.50495 -10.48861  -9.68726  -9.68090  -9.68034
 Alpha  occ. eigenvalues --   -5.66470  -2.31320  -2.28715  -2.27453  -1.32606
 Alpha  occ. eigenvalues --   -1.27750  -0.90599  -0.80777  -0.75104  -0.67496
 Alpha  occ. eigenvalues --   -0.63124  -0.59602  -0.55857  -0.53583  -0.45596
 Alpha  occ. eigenvalues --   -0.40005  -0.38303  -0.37466  -0.36536  -0.31718
 Alpha  occ. eigenvalues --   -0.31530  -0.24135  -0.23449
 Alpha virt. eigenvalues --    0.04577   0.05285   0.06129   0.07104   0.08600
 Alpha virt. eigenvalues --    0.10991   0.12358   0.13138   0.14072   0.14378
 Alpha virt. eigenvalues --    0.15101   0.15786   0.15908   0.17712   0.20034

 Mulliken charges:
               1
     1  Si   4.702012
     2  Cl  -0.881204
     3  C   -2.609681
     4  F   -0.820073
     5  F    0.162926
     6  F    0.235150
     7  H   -2.096556
     8  H    1.307426
 Sum of Mulliken charges =   0.00000

 Dipole moment (field-independent basis, Debye):
    X=              2.2603    Y=              2.1665    Z=              0.1230  Tot=              3.1334

 Test job not archived.
 1\1\GINC-SE334\SP\RHF\Aug-CC-pVDZ\C1H2Cl1F3Si1\OHZDE\08-Apr-2025\0\\#t
  hf aug-cc-pvdz iop(5/13=1,5/36=2,99/5=2) pseudo=read geom=check guess
 =(read,tcheck) scf=(maxcycle=1)\\title\\0,1\Si,0,-0.329595,0.43703,0.3
 85654\Cl,0,-1.941705,-0.718494,-0.144297\C,0,1.243403,-0.303,-0.392314
 \F,0,-0.529147,1.901112,-0.223155\F,0,1.462465,-1.539539,0.16979\F,0,2
 .304804,0.507023,-0.053073\H,0,-0.224038,0.517573,1.845\H,0,1.243846,-
 0.420954,-1.479296\\Version=ES64L-G16RevC.01\State=1-A\HF=-1087.516594
 8\RMSD=7.227e-02\Dipole=0.8892778,0.8523674,0.0483967\Quadrupole=-0.02

 Normal termination of Gaussian 16 at Tue Apr  8 23:48:21 2025.
