 Gaussian 16, Revision C.01,

 ----------------------------------------------------------------------
 #t hf aug-cc-pvdz symm=none int=(grid=ultrafine) guess=(read,tcheck) s
 table=(opt,rrhf)
 ----------------------------------------------------------------------
 -----
 title
 -----
 Symbolic Z-matrix:
 Charge =  0 Multiplicity = 1

 SCF Done:  E(RHF) =  -785.836971065     A.U. after   14 cycles
 Normal termination of Gaussian 16 at Tue Apr  8 23:27:43 2025.
 Gaussian 16:  ES64L-G16RevC.01  3-Jul-2019

 ----------------------------------------------------------------------
 #t hf aug-cc-pvdz iop(5/13=1,5/36=2,99/5=2) pseudo=read geom=check gue
 ss=(read,tcheck) scf=(maxcycle=1)
 ----------------------------------------------------------------------
 -----
 title
 -----
 Structure from the checkpoint file:  "BDE49_nonexpt_1206_mol1.chk"
 Charge =  0 Multiplicity = 1

                         Standard orientation:
 ---------------------------------------------------------------------
 Center     Atomic      Atomic             Coordinates (Angstroms)
 Number     Number       Type             X           Y           Z
 ---------------------------------------------------------------------
      1          6           0       -2.031460   -0.752120    0.463386
      2          8           0       -1.032855   -0.992674   -0.549808
      3         16           0        0.127559   -2.156434   -0.160386
      4          6           0        1.410190   -1.145131    0.645696
      5          6           0       -3.086648    0.169432   -0.134633
      6          6           0        2.067915   -0.110568   -0.267688
      7          1           0        0.990322   -0.679617    1.542307
      8          1           0       -2.480422   -1.703870    0.765720
      9          6           0       -2.576106    1.549601   -0.576681
     10          1           0       -3.881731    0.288812    0.612549
     11          1           0       -3.534442   -0.343175   -0.992086
     12          6           0       -2.083087    2.439591    0.569079
     13          1           0       -3.389172    2.062109   -1.101928
     14          1           0       -1.776099    1.410133   -1.309225
     15          1           0       -2.867532    2.595645    1.317017
     16          1           0       -1.780466    3.422393    0.197836
     17          1           0       -1.218827    2.006851    1.080655
     18          6           0        3.108032    0.752091    0.459067
     19          1           0        1.287593    0.529513   -0.691212
     20          6           0        3.765887    1.788526   -0.456612
     21          1           0        3.880362    0.104534    0.891995
     22          1           0        2.630381    1.262778    1.304003
     23          1           0        4.284450    1.306263   -1.290765
     24          1           0        4.498355    2.391968    0.086187
     25          1           0        3.021231    2.469298   -0.880121
     26          1           0       -1.561309   -0.305628    1.347558
     27          1           0        2.535784   -0.627362   -1.112434
     28          1           0        2.135073   -1.894843    0.986889
 ---------------------------------------------------------------------

 SCF Done:  E(RHF) =  -788.018321960     A.U. after    2 cycles

 The electronic state is 1-A.
 Alpha  occ. eigenvalues --  -75.70952 -21.05572 -13.19626 -13.13625 -13.07788
 Alpha  occ. eigenvalues --  -11.44488 -11.43058 -11.41072 -11.40857 -11.37838
 Alpha  occ. eigenvalues --  -11.37777 -11.35035 -11.34729  -8.04621  -1.74712
 Alpha  occ. eigenvalues --   -1.25903  -1.22005  -1.12787  -1.05763  -0.99322
 Alpha  occ. eigenvalues --   -0.91936  -0.87560  -0.83063  -0.80487  -0.66361
 Alpha  occ. eigenvalues --   -0.65342  -0.63613  -0.59400  -0.59287  -0.57543
 Alpha  occ. eigenvalues --   -0.56250  -0.54751  -0.53634  -0.50940  -0.50341
 Alpha  occ. eigenvalues --   -0.49314  -0.46405  -0.46180  -0.45862  -0.44844
 Alpha  occ. eigenvalues --   -0.44005  -0.40217  -0.36669  -0.30214  -0.21818
 Alpha virt. eigenvalues --    0.03954   0.04603   0.04668   0.05138   0.05393
 Alpha virt. eigenvalues --    0.05615   0.05713   0.06094   0.06228   0.06667
 Alpha virt. eigenvalues --    0.07064   0.07241   0.07665   0.08921   0.09333

 Mulliken charges:
               1
     1  C   -1.703954
     2  O   -2.325787
     3  S    1.226895
     4  C   -4.123250
     5  C   -3.185387
     6  C   -2.940263
     7  H    1.613506
     8  H    1.541139
     9  C   -3.239420
    10  H    1.370469
    11  H    1.381113
    12  C   -3.832050
    13  H    1.345702
    14  H    1.626034
    15  H    1.261291
    16  H    1.251134
    17  H    1.640100
    18  C   -3.002989
    19  H    2.211196
    20  C   -3.896775
    21  H    1.434640
    22  H    1.492348
    23  H    1.302305
    24  H    1.100027
    25  H    1.346075
    26  H    2.018167
    27  H    1.547602
    28  H    1.540132
 Sum of Mulliken charges =  -0.00000

 Dipole moment (field-independent basis, Debye):
    X=             -0.0760    Y=              0.0504    Z=              0.0973  Tot=              0.1333

 Test job not archived.
 1\1\GINC-SE029\SP\RHF\Aug-CC-pVDZ\C8H18O1S1\OHZDE\08-Apr-2025\0\\#t hf
  aug-cc-pvdz iop(5/13=1,5/36=2,99/5=2) pseudo=read geom=check guess=(r
 ead,tcheck) scf=(maxcycle=1)\\title\\0,1\C,0,-2.03146,-0.75212,0.46338
 6\O,0,-1.032855,-0.992674,-0.549808\S,0,0.127559,-2.156434,-0.160386\C
 ,0,1.41019,-1.145131,0.645696\C,0,-3.086648,0.169432,-0.134633\C,0,2.0
 67915,-0.110568,-0.267688\H,0,0.990322,-0.679617,1.542307\H,0,-2.48042
 2,-1.70387,0.76572\C,0,-2.576106,1.549601,-0.576681\H,0,-3.881731,0.28
 8812,0.612549\H,0,-3.534442,-0.343175,-0.992086\C,0,-2.083087,2.439591

 Normal termination of Gaussian 16 at Tue Apr  8 23:28:04 2025.
