 Gaussian 16, Revision C.01,

 ----------------------------------------------------------------------
 #t hf aug-cc-pvdz symm=none int=(grid=ultrafine) guess=(read,tcheck) s
 table=opt
 ----------------------------------------------------------------------
 -----
 title
 -----
 Symbolic Z-matrix:
 Charge =  0 Multiplicity = 2

 SCF Done:  E(UHF) =  -173.734136627     A.U. after   20 cycles
 Normal termination of Gaussian 16 at Wed Apr  9 00:36:53 2025.
 Gaussian 16:  ES64L-G16RevC.01  3-Jul-2019

 ----------------------------------------------------------------------
 #t hf aug-cc-pvdz iop(5/13=1,5/36=2,99/5=2) pseudo=read geom=check gue
 ss=(read,tcheck) scf=(maxcycle=1)
 ----------------------------------------------------------------------
 -----
 title
 -----
 Structure from the checkpoint file:  "BDE49_nonexpt_523_mol2.chk"
 Charge =  0 Multiplicity = 2

                         Standard orientation:
 ---------------------------------------------------------------------
 Center     Atomic      Atomic             Coordinates (Angstroms)
 Number     Number       Type             X           Y           Z
 ---------------------------------------------------------------------
      1          1           0       -3.020545    0.602526    0.000737
      2          5           0       -1.913935    0.241636   -0.000212
      3          7           0       -0.718933   -0.143642    0.000001
      4          7           0        0.454962   -0.666234    0.000044
      5          6           0        1.514218    0.343019    0.000001
      6          1           0        2.475690   -0.168708   -0.000211
      7          1           0        1.438658    0.984382    0.887302
      8          1           0        1.438361    0.984644   -0.887085
 ---------------------------------------------------------------------

 SCF Done:  E(UHF) =  -174.540225566     A.U. after    2 cycles

 The electronic state is 2-A.
 Alpha  occ. eigenvalues --  -15.78292 -15.70725 -11.38537  -7.67256  -1.51372
 Alpha  occ. eigenvalues --   -1.15666  -0.95384  -0.71493  -0.67234  -0.64709
 Alpha  occ. eigenvalues --   -0.60920  -0.51040  -0.50130  -0.34999  -0.31669
 Alpha virt. eigenvalues --    0.03716   0.03782   0.04082   0.04478   0.07003
 Alpha virt. eigenvalues --    0.07779   0.09359   0.10725   0.12343   0.15175
 Alpha virt. eigenvalues --    0.15913   0.16096   0.16924   0.17635   0.17952

  Beta  occ. eigenvalues --  -15.75368 -15.71837 -11.38831  -7.66571  -1.48022
  Beta  occ. eigenvalues --   -1.14061  -0.92908  -0.70987  -0.65282  -0.61037
  Beta  occ. eigenvalues --   -0.59185  -0.50109  -0.49042  -0.33768
  Beta virt. eigenvalues --    0.03707   0.03785   0.03843   0.04499   0.07014
  Beta virt. eigenvalues --    0.07818   0.09434   0.09487   0.10840   0.12413
  Beta virt. eigenvalues --    0.15403   0.16176   0.16214   0.17156   0.18067

 Mulliken charges and spin densities:
               1          2
     1  H   -2.478180  -0.012806
     2  B    2.267847   0.408609
     3  N   -0.244254  -0.378425
     4  N   -0.650807   1.076400
     5  C   -2.853559  -0.160596
     6  H    1.296010   0.005020
     7  H    1.331543   0.030917
     8  H    1.331400   0.030880
 Sum of Mulliken charges =   0.00000   1.00000

 Dipole moment (field-independent basis, Debye):
    X=             -0.8459    Y=              1.4531    Z=              0.0003  Tot=              1.6814
                          Isotropic Fermi Contact Couplings
        Atom                 a.u.       MegaHertz       Gauss      10(-4) cm-1
     1  H(1)              -0.00986     -44.07860     -15.72834     -14.70304
     2  B(11)              0.03989      57.21126      20.41440      19.08362
     3  N(14)             -0.13329     -43.06571     -15.36692     -14.36517
     4  N(14)              0.21535      69.58045      24.82804      23.20954
     5  C(13)             -0.03267     -36.72954     -13.10601     -12.25166
     6  H(1)               0.00068       3.04786       1.08755       1.01666
     7  H(1)               0.01313      58.67394      20.93632      19.57152
     8  H(1)               0.01312      58.63661      20.92300      19.55907

 Normal termination of Gaussian 16 at Wed Apr  9 00:36:55 2025.
