 Gaussian 16, Revision C.01,

 ----------------------------------------------------------------------
 #t hf aug-cc-pvdz symm=none int=(grid=ultrafine) guess=(read,tcheck) s
 table=(opt,rrhf)
 ----------------------------------------------------------------------
 -----
 title
 -----
 Symbolic Z-matrix:
 Charge =  0 Multiplicity = 1

 SCF Done:  E(RHF) =  -709.630664718     A.U. after   15 cycles
 Normal termination of Gaussian 16 at Wed Apr  9 00:06:13 2025.
 Gaussian 16:  ES64L-G16RevC.01  3-Jul-2019

 ----------------------------------------------------------------------
 #t hf aug-cc-pvdz iop(5/13=1,5/36=2,99/5=2) pseudo=read geom=check gue
 ss=(read,tcheck) scf=(maxcycle=1)
 ----------------------------------------------------------------------
 -----
 title
 -----
 Structure from the checkpoint file:  "BDE49_nonexpt_2198_mol1.chk"
 Charge =  0 Multiplicity = 1

                         Standard orientation:
 ---------------------------------------------------------------------
 Center     Atomic      Atomic             Coordinates (Angstroms)
 Number     Number       Type             X           Y           Z
 ---------------------------------------------------------------------
      1          6           0       -2.642687   -1.095064   -0.012492
      2          6           0       -2.312311    0.247172    0.173140
      3          6           0       -0.986774    0.676352    0.195522
      4          6           0       -1.630264   -2.031150   -0.189019
      5          6           0       -0.295437   -1.627958   -0.179313
      6          6           0        0.018944   -0.285022    0.011833
      7          1           0       -1.870107   -3.077430   -0.339505
      8          1           0        0.491994   -2.358707   -0.329117
      9          8           0        1.321738    0.170363    0.025263
     10         14           0        2.752467   -0.682683    0.103304
     11          1           0       -3.099915    0.981914    0.305313
     12          1           0       -3.681386   -1.403381   -0.024749
     13          6           0       -0.616166    2.127283    0.415641
     14          8           0        0.122440    2.695321   -0.659911
     15          1           0       -0.059433    2.220967    1.359349
     16          1           0       -1.525706    2.722946    0.509761
     17          1           0        0.938797    2.187254   -0.720146
     18          1           0        3.794673    0.355309    0.183648
     19          1           0        2.941545   -1.514699   -1.105662
     20          1           0        2.769750   -1.551763    1.300152
 ---------------------------------------------------------------------

 SCF Done:  E(RHF) =  -711.702342378     A.U. after    2 cycles

 The electronic state is 1-A.
 Alpha  occ. eigenvalues --  -76.25641 -21.07910 -21.05676 -11.53412 -11.47249
 Alpha  occ. eigenvalues --  -11.44615 -11.42852 -11.41805 -11.41469 -11.37116
 Alpha  occ. eigenvalues --   -5.59119  -2.25760  -2.21186  -2.20697  -1.75401
 Alpha  occ. eigenvalues --   -1.69363  -1.32828  -1.13057  -1.08093  -0.96639
 Alpha  occ. eigenvalues --   -0.88433  -0.83727  -0.76853  -0.69963  -0.66254
 Alpha  occ. eigenvalues --   -0.63963  -0.59829  -0.58862  -0.57238  -0.55743
 Alpha  occ. eigenvalues --   -0.53219  -0.50070  -0.49685  -0.47951  -0.45214
 Alpha  occ. eigenvalues --   -0.43539  -0.42436  -0.37486  -0.33106  -0.30567
 Alpha  occ. eigenvalues --   -0.29036
 Alpha virt. eigenvalues --    0.03326   0.04325   0.04910   0.05681   0.05842
 Alpha virt. eigenvalues --    0.06099   0.06821   0.07142   0.07835   0.08455
 Alpha virt. eigenvalues --    0.08952   0.10435   0.11083   0.11138   0.11764

 Mulliken charges:
               1
     1  C   -2.799884
     2  C   -0.279869
     3  C    1.795298
     4  C   -1.458773
     5  C   -5.076185
     6  C    7.260892
     7  H    1.493243
     8  H    1.990028
     9  O   -5.267522
    10  Si   6.210607
    11  H    1.801142
    12  H    1.522685
    13  C   -2.799879
    14  O   -2.507007
    15  H    1.221003
    16  H    1.163613
    17  H    0.949371
    18  H   -1.813111
    19  H   -1.700280
    20  H   -1.705370
 Sum of Mulliken charges =   0.00000

 Dipole moment (field-independent basis, Debye):
    X=              0.0413    Y=             -0.8063    Z=              0.3934  Tot=              0.8981

 Test job not archived.
 1\1\GINC-SE339\SP\RHF\Aug-CC-pVDZ\C7H10O2Si1\OHZDE\09-Apr-2025\0\\#t h
 f aug-cc-pvdz iop(5/13=1,5/36=2,99/5=2) pseudo=read geom=check guess=(
 read,tcheck) scf=(maxcycle=1)\\title\\0,1\C,0,-2.642687,-1.095064,-0.0
 12492\C,0,-2.312311,0.247172,0.17314\C,0,-0.986774,0.676352,0.195522\C
 ,0,-1.630264,-2.03115,-0.189019\C,0,-0.295437,-1.627958,-0.179313\C,0,
 0.018944,-0.285022,0.011833\H,0,-1.870107,-3.07743,-0.339505\H,0,0.491
 994,-2.358707,-0.329117\O,0,1.321738,0.170363,0.025263\Si,0,2.752467,-
 0.682683,0.103304\H,0,-3.099915,0.981914,0.305313\H,0,-3.681386,-1.403

 Normal termination of Gaussian 16 at Wed Apr  9 00:06:24 2025.
