 Gaussian 16, Revision C.01,

 ----------------------------------------------------------------------
 #t hf aug-cc-pvdz symm=none int=(grid=ultrafine) guess=(read,tcheck) s
 table=opt
 ----------------------------------------------------------------------
 -----
 title
 -----
 Symbolic Z-matrix:
 Charge =  0 Multiplicity = 2

 SCF Done:  E(UHF) =  -497.461065838     A.U. after   19 cycles
 Normal termination of Gaussian 16 at Wed Apr  9 00:11:46 2025.
 Gaussian 16:  ES64L-G16RevC.01  3-Jul-2019

 ----------------------------------------------------------------------
 #t hf aug-cc-pvdz iop(5/13=1,5/36=2,99/5=2) pseudo=read geom=check gue
 ss=(read,tcheck) scf=(maxcycle=1)
 ----------------------------------------------------------------------
 -----
 title
 -----
 Structure from the checkpoint file:  "BDE49_nonexpt_2371_mol3.chk"
 Charge =  0 Multiplicity = 2

                         Standard orientation:
 ---------------------------------------------------------------------
 Center     Atomic      Atomic             Coordinates (Angstroms)
 Number     Number       Type             X           Y           Z
 ---------------------------------------------------------------------
      1         14           0        1.860311   -0.396254   -0.000002
      2          6           0        0.031746    0.241353    0.000034
      3          1           0        2.512013    0.168521   -1.209610
      4          1           0        2.512048    0.168505    1.209593
      5          8           0       -0.102988    1.457138   -0.000004
      6          7           0       -1.000016   -0.640510    0.000002
      7          6           0       -2.400468   -0.237058   -0.000013
      8          1           0       -0.770690   -1.622310   -0.000001
      9          1           0       -2.431334    0.851027   -0.000089
     10          1           0       -2.915015   -0.608683    0.890400
     11          1           0       -2.915024   -0.608812   -0.890367
 ---------------------------------------------------------------------

 SCF Done:  E(UHF) =  -498.525946972     A.U. after    2 cycles

 The electronic state is 2-A.
 Alpha  occ. eigenvalues --  -76.24113 -21.02942 -15.77200 -11.46233 -11.40121
 Alpha  occ. eigenvalues --   -5.57452  -2.20894  -2.19315  -2.19099  -1.70050
 Alpha  occ. eigenvalues --   -1.38966  -1.02731  -0.83301  -0.77341  -0.65004
 Alpha  occ. eigenvalues --   -0.62118  -0.57880  -0.53002  -0.51679  -0.46845
 Alpha  occ. eigenvalues --   -0.46583  -0.33709  -0.31036  -0.24183
 Alpha virt. eigenvalues --    0.03244   0.04675   0.05457   0.05602   0.06281
 Alpha virt. eigenvalues --    0.06979   0.07757   0.07996   0.09675   0.11748
 Alpha virt. eigenvalues --    0.13524   0.13699   0.13855   0.14494   0.14946

  Beta  occ. eigenvalues --  -76.23580 -21.02709 -15.77221 -11.46110 -11.40127
  Beta  occ. eigenvalues --   -5.56618  -2.20177  -2.18713  -2.15719  -1.69630
  Beta  occ. eigenvalues --   -1.38933  -1.02618  -0.81241  -0.75766  -0.63831
  Beta  occ. eigenvalues --   -0.62125  -0.57402  -0.52464  -0.51333  -0.46215
  Beta  occ. eigenvalues --   -0.46210  -0.31008  -0.27392
  Beta virt. eigenvalues --    0.02539   0.03638   0.05444   0.05589   0.06402
  Beta virt. eigenvalues --    0.06432   0.07124   0.07891   0.09134   0.09990
  Beta virt. eigenvalues --    0.11986   0.13770   0.14151   0.14295   0.14775

 Mulliken charges and spin densities:
               1          2
     1  Si   4.021769   0.929606
     2  C    2.507643   0.073799
     3  H   -1.534002   0.021195
     4  H   -1.534006   0.021192
     5  O   -2.576717   0.055520
     6  N   -2.457929  -0.081139
     7  C   -3.257332  -0.011241
     8  H    0.839451  -0.000650
     9  H    1.385668  -0.010311
    10  H    1.302733   0.001015
    11  H    1.302722   0.001015
 Sum of Mulliken charges =   0.00000   1.00000

 Dipole moment (field-independent basis, Debye):
    X=             -1.5754    Y=             -2.1447    Z=             -0.0001  Tot=              2.6611
                          Isotropic Fermi Contact Couplings
        Atom                 a.u.       MegaHertz       Gauss      10(-4) cm-1
     1  Si(29)             0.41382    -367.77573    -131.23153    -122.67678
     2  C(13)              0.02188      24.59982       8.77783       8.20562
     3  H(1)               0.00679      30.34336      10.82726      10.12145
     4  H(1)               0.00679      30.33872      10.82561      10.11991
     5  O(17)              0.02505     -15.18622      -5.41882      -5.06558
     6  N(14)             -0.01122      -3.62612      -1.29389      -1.20954
     7  C(13)             -0.00063      -0.70876      -0.25290      -0.23642
     8  H(1)              -0.00013      -0.58373      -0.20829      -0.19471

 1\1\GINC-SE322\SP\UHF\Aug-CC-pVDZ\C2H6N1O1Si1(2)\OHZDE\09-Apr-2025\0\\
 #t hf aug-cc-pvdz iop(5/13=1,5/36=2,99/5=2) pseudo=read geom=check gue
 ss=(read,tcheck) scf=(maxcycle=1)\\title\\0,2\Si,0,1.860311,-0.396254,
 -0.000002\C,0,0.031746,0.241353,0.000034\H,0,2.512013,0.168521,-1.2096
 1\H,0,2.512048,0.168505,1.209593\O,0,-0.102988,1.457138,-0.000004\N,0,
 -1.000016,-0.64051,0.000002\C,0,-2.400468,-0.237058,-0.000013\H,0,-0.7
 7069,-1.62231,-0.000001\H,0,-2.431334,0.851027,-0.000089\H,0,-2.915015
 ,-0.608683,0.8904\H,0,-2.915024,-0.608812,-0.890367\\Version=ES64L-G16

 Normal termination of Gaussian 16 at Wed Apr  9 00:11:50 2025.
