 Gaussian 16, Revision C.01,

 ----------------------------------------------------------------------
 #t hf aug-cc-pvdz symm=none int=(grid=ultrafine) guess=(read,tcheck) s
 table=(opt,rrhf)
 ----------------------------------------------------------------------
 -----
 title
 -----
 Symbolic Z-matrix:
 Charge =  0 Multiplicity = 1

 SCF Done:  E(RHF) =  -639.435641164     A.U. after   12 cycles
 Normal termination of Gaussian 16 at Wed Apr  9 00:10:37 2025.
 Gaussian 16:  ES64L-G16RevC.01  3-Jul-2019

 ----------------------------------------------------------------------
 #t hf aug-cc-pvdz iop(5/13=1,5/36=2,99/5=2) pseudo=read geom=check gue
 ss=(read,tcheck) scf=(maxcycle=1)
 ----------------------------------------------------------------------
 -----
 title
 -----
 Structure from the checkpoint file:  "BDE49_nonexpt_2256_mol1.chk"
 Charge =  0 Multiplicity = 1

                         Standard orientation:
 ---------------------------------------------------------------------
 Center     Atomic      Atomic             Coordinates (Angstroms)
 Number     Number       Type             X           Y           Z
 ---------------------------------------------------------------------
      1          8           0       -0.387923   -0.028898    0.191254
      2          6           0       -1.828497    0.067074    0.168268
      3          6           0       -2.227890    1.348221   -0.574219
      4          1           0       -1.902867    1.313936   -1.617039
      5          1           0       -1.766798    2.217505   -0.099808
      6          6           0       -2.431800   -1.169915   -0.508581
      7          1           0       -3.523865   -1.132220   -0.472959
      8          1           0       -2.102672   -2.081589   -0.004425
      9          1           0       -2.134678   -1.231744   -1.559560
     10          6           0       -2.254177    0.138100    1.637084
     11          1           0       -1.783654    0.996027    2.122216
     12          1           0       -1.941638   -0.765983    2.164434
     13          1           0       -3.339390    0.237683    1.725786
     14          1           0       -3.313186    1.481632   -0.560881
     15         14           0        0.734871   -0.421024   -0.952470
     16          6           0        2.424964   -0.061894   -0.204173
     17          6           0        2.703023   -0.935193    1.033856
     18          1           0        1.988697   -0.717925    1.833005
     19          1           0        3.708516   -0.747396    1.426286
     20          1           0        2.630993   -2.002483    0.804890
     21          6           0        2.611533    1.434358    0.109076
     22          1           0        3.144789   -0.340552   -0.988300
     23          1           0        1.893314    1.766950    0.863889
     24          1           0        2.473224    2.057907   -0.779107
     25          1           0        3.616850    1.629901    0.498090
     26          1           0        0.543050    0.377133   -2.194309
     27          1           0        0.641570   -1.857774   -1.325519
 ---------------------------------------------------------------------

 SCF Done:  E(RHF) =  -641.356564613     A.U. after    2 cycles

 The electronic state is 1-A.
 Alpha  occ. eigenvalues --  -76.21059 -21.02286 -11.45194 -11.39638 -11.39467
 Alpha  occ. eigenvalues --  -11.39124 -11.37751 -11.35082 -11.33713  -5.54987
 Alpha  occ. eigenvalues --   -2.22336  -2.18660  -2.16998  -1.69192  -1.20992
 Alpha  occ. eigenvalues --   -1.19038  -1.01325  -1.00973  -0.99251  -0.84495
 Alpha  occ. eigenvalues --   -0.79447  -0.69634  -0.62497  -0.61672  -0.61202
 Alpha  occ. eigenvalues --   -0.61022  -0.57642  -0.55713  -0.54888  -0.54516
 Alpha  occ. eigenvalues --   -0.52655  -0.51433  -0.47787  -0.47153  -0.45902
 Alpha  occ. eigenvalues --   -0.45808  -0.44504  -0.44011  -0.36947  -0.33761
 Alpha  occ. eigenvalues --   -0.33120
 Alpha virt. eigenvalues --    0.03905   0.04946   0.05162   0.05281   0.05560
 Alpha virt. eigenvalues --    0.05582   0.05686   0.06292   0.06371   0.06931
 Alpha virt. eigenvalues --    0.07065   0.07408   0.08394   0.08649   0.09314

 Mulliken charges:
               1
     1  O   -4.759175
     2  C    4.505549
     3  C   -4.433413
     4  H    1.402276
     5  H    1.318930
     6  C   -4.472190
     7  H    1.158431
     8  H    1.337648
     9  H    1.325367
    10  C   -4.282905
    11  H    1.333785
    12  H    1.308521
    13  H    1.162597
    14  H    1.178617
    15  Si   7.344496
    16  C   -2.420759
    17  C   -4.067698
    18  H    1.443796
    19  H    1.186939
    20  H    1.309656
    21  C   -4.003007
    22  H    1.640325
    23  H    1.431904
    24  H    1.319644
    25  H    1.198126
    26  H   -2.109376
    27  H   -2.358081
 Sum of Mulliken charges =   0.00000

 Dipole moment (field-independent basis, Debye):
    X=             -0.3776    Y=              0.3043    Z=              0.7102  Tot=              0.8599

 Test job not archived.
 1\1\GINC-SE343\SP\RHF\Aug-CC-pVDZ\C7H18O1Si1\OHZDE\09-Apr-2025\0\\#t h
 f aug-cc-pvdz iop(5/13=1,5/36=2,99/5=2) pseudo=read geom=check guess=(
 read,tcheck) scf=(maxcycle=1)\\title\\0,1\O,0,-0.387923,-0.028898,0.19
 1254\C,0,-1.828497,0.067074,0.168268\C,0,-2.22789,1.348221,-0.574219\H
 ,0,-1.902867,1.313936,-1.617039\H,0,-1.766798,2.217505,-0.099808\C,0,-
 2.4318,-1.169915,-0.508581\H,0,-3.523865,-1.13222,-0.472959\H,0,-2.102
 672,-2.081589,-0.004425\H,0,-2.134678,-1.231744,-1.55956\C,0,-2.254177
 ,0.1381,1.637084\H,0,-1.783654,0.996027,2.122216\H,0,-1.941638,-0.7659

 Normal termination of Gaussian 16 at Wed Apr  9 00:10:59 2025.
