 Gaussian 16, Revision C.01,

 ----------------------------------------------------------------------
 #t hf aug-cc-pvdz symm=none int=(grid=ultrafine) guess=(read,tcheck) s
 table=(opt,rrhf)
 ----------------------------------------------------------------------
 -----
 title
 -----
 Symbolic Z-matrix:
 Charge =  0 Multiplicity = 1

 SCF Done:  E(RHF) =  -867.350813381     A.U. after   12 cycles
 Normal termination of Gaussian 16 at Tue Apr  8 23:45:32 2025.
 Gaussian 16:  ES64L-G16RevC.01  3-Jul-2019

 ----------------------------------------------------------------------
 #t hf aug-cc-pvdz iop(5/13=1,5/36=2,99/5=2) pseudo=read geom=check gue
 ss=(read,tcheck) scf=(maxcycle=1)
 ----------------------------------------------------------------------
 -----
 title
 -----
 Structure from the checkpoint file:  "BDE49_nonexpt_1735_mol1.chk"
 Charge =  0 Multiplicity = 1

                         Standard orientation:
 ---------------------------------------------------------------------
 Center     Atomic      Atomic             Coordinates (Angstroms)
 Number     Number       Type             X           Y           Z
 ---------------------------------------------------------------------
      1         14           0        0.485583   -0.000003    0.963098
      2          6           0       -1.289119   -0.000001    0.333602
      3         17           0        1.839652    0.000002   -0.633848
      4          6           0       -1.635199    1.274809   -0.457844
      5          1           0       -1.441347    2.182830    0.120009
      6          1           0       -2.694310    1.277946   -0.735448
      7          1           0       -1.052559    1.336184   -1.381370
      8          6           0       -1.635200   -1.274806   -0.457850
      9          1           0       -2.694310   -1.277941   -0.735455
     10          1           0       -1.441348   -2.182830    0.119998
     11          1           0       -1.052560   -1.336177   -1.381377
     12          1           0       -1.885366   -0.000003    1.259370
     13          1           0        0.773333   -1.211731    1.759430
     14          1           0        0.773333    1.211720    1.759437
 ---------------------------------------------------------------------

 SCF Done:  E(RHF) =  -868.381818033     A.U. after    2 cycles

 The electronic state is 1-A.
 Alpha  occ. eigenvalues --  -99.87535 -76.24914 -11.41133 -11.39051 -11.35360
 Alpha  occ. eigenvalues --  -10.44914  -9.64842  -9.64301  -9.64198  -5.58547
 Alpha  occ. eigenvalues --   -2.22362  -2.20821  -2.20689  -1.28100  -1.21312
 Alpha  occ. eigenvalues --   -1.00806  -0.86267  -0.75090  -0.63253  -0.59905
 Alpha  occ. eigenvalues --   -0.57222  -0.54814  -0.54386  -0.53173  -0.52076
 Alpha  occ. eigenvalues --   -0.47353  -0.47342  -0.45325  -0.38360
 Alpha virt. eigenvalues --    0.03507   0.05315   0.05492   0.05720   0.06120
 Alpha virt. eigenvalues --    0.06219   0.06446   0.07192   0.07300   0.09683
 Alpha virt. eigenvalues --    0.10313   0.10879   0.12731   0.13036   0.13526

 Mulliken charges:
               1
     1  Si   5.678062
     2  C   -3.168844
     3  Cl  -0.908333
     4  C   -3.463588
     5  H    1.269214
     6  H    1.265085
     7  H    1.242700
     8  C   -3.463587
     9  H    1.265086
    10  H    1.269215
    11  H    1.242699
    12  H    1.686152
    13  H   -1.956930
    14  H   -1.956931
 Sum of Mulliken charges =   0.00000

 Dipole moment (field-independent basis, Debye):
    X=             -2.1596    Y=             -0.0000    Z=              0.8074  Tot=              2.3056

 Test job not archived.
 1\1\GINC-SE273\SP\RHF\Aug-CC-pVDZ\C3H9Cl1Si1\OHZDE\08-Apr-2025\0\\#t h
 f aug-cc-pvdz iop(5/13=1,5/36=2,99/5=2) pseudo=read geom=check guess=(
 read,tcheck) scf=(maxcycle=1)\\title\\0,1\Si,0,0.485583,-0.000003,0.96
 3098\C,0,-1.289119,-0.000001,0.333602\Cl,0,1.839652,0.000002,-0.633848
 \C,0,-1.635199,1.274809,-0.457844\H,0,-1.441347,2.18283,0.120009\H,0,-
 2.69431,1.277946,-0.735448\H,0,-1.052559,1.336184,-1.38137\C,0,-1.6352
 ,-1.274806,-0.45785\H,0,-2.69431,-1.277941,-0.735455\H,0,-1.441348,-2.
 18283,0.119998\H,0,-1.05256,-1.336177,-1.381377\H,0,-1.885366,-0.00000

 Normal termination of Gaussian 16 at Tue Apr  8 23:45:37 2025.
