 Gaussian 16, Revision C.01,

 ----------------------------------------------------------------------
 #t hf aug-cc-pvdz symm=none int=(grid=ultrafine) guess=(read,tcheck) s
 table=(opt,rrhf)
 ----------------------------------------------------------------------
 -----
 title
 -----
 Symbolic Z-matrix:
 Charge =  0 Multiplicity = 1

 SCF Done:  E(RHF) =  -1164.39387641     A.U. after   13 cycles
 Normal termination of Gaussian 16 at Tue Apr  8 23:53:35 2025.
 Gaussian 16:  ES64L-G16RevC.01  3-Jul-2019

 ----------------------------------------------------------------------
 #t hf aug-cc-pvdz iop(5/13=1,5/36=2,99/5=2) pseudo=read geom=check gue
 ss=(read,tcheck) scf=(maxcycle=1)
 ----------------------------------------------------------------------
 -----
 title
 -----
 Structure from the checkpoint file:  "BDE49_nonexpt_1930_mol1.chk"
 Charge =  0 Multiplicity = 1

                         Standard orientation:
 ---------------------------------------------------------------------
 Center     Atomic      Atomic             Coordinates (Angstroms)
 Number     Number       Type             X           Y           Z
 ---------------------------------------------------------------------
      1         14           0        2.819924    0.197395    0.031082
      2          6           0        1.023209    0.372221   -0.550819
      3         16           0       -0.096826   -0.650221    0.476050
      4         16           0       -1.962737   -0.442141   -0.422545
      5          1           0        3.662042    1.061410   -0.828955
      6          1           0        3.267658   -1.206945   -0.092033
      7          6           0       -2.639801    1.071733    0.351416
      8          1           0       -3.653933    1.178851   -0.041577
      9          1           0       -2.056249    1.950223    0.077448
     10          1           0       -2.679891    0.961611    1.434065
     11          1           0        2.952357    0.633645    1.438947
     12          1           0        0.951415    0.048457   -1.591587
     13          1           0        0.730239    1.423294   -0.491110
 ---------------------------------------------------------------------

 SCF Done:  E(RHF) =  -1165.43225660     A.U. after    2 cycles

 The electronic state is 1-A.
 Alpha  occ. eigenvalues --  -76.22359 -75.70439 -75.70085 -13.14272 -13.10586
 Alpha  occ. eigenvalues --  -13.08819 -13.07620 -13.04402 -13.03123 -11.40007
 Alpha  occ. eigenvalues --  -11.38664  -8.04253  -8.03982  -5.55841  -2.19407
 Alpha  occ. eigenvalues --   -2.18069  -2.17994  -1.25641  -1.12632  -0.98055
 Alpha  occ. eigenvalues --   -0.87499  -0.75625  -0.60861  -0.59607  -0.59226
 Alpha  occ. eigenvalues --   -0.52345  -0.47296  -0.47136  -0.44352  -0.42518
 Alpha  occ. eigenvalues --   -0.32599  -0.24898  -0.23659
 Alpha virt. eigenvalues --    0.02710   0.03524   0.04355   0.05320   0.05540
 Alpha virt. eigenvalues --    0.07090   0.07287   0.07996   0.09195   0.09324
 Alpha virt. eigenvalues --    0.09673   0.10538   0.11134   0.12955   0.13073

 Mulliken charges:
               1
     1  Si   6.175351
     2  C   -4.434781
     3  S    0.270268
     4  S    0.113256
     5  H   -1.679833
     6  H   -1.702976
     7  C   -4.596639
     8  H    1.372325
     9  H    1.492067
    10  H    1.522906
    11  H   -1.709687
    12  H    1.621720
    13  H    1.556023
 Sum of Mulliken charges =  -0.00000

 Dipole moment (field-independent basis, Debye):
    X=             -0.7951    Y=             -0.4277    Z=             -0.1901  Tot=              0.9227

 Test job not archived.
 1\1\GINC-SE361\SP\RHF\Aug-CC-pVDZ\C2H8S2Si1\OHZDE\08-Apr-2025\0\\#t hf
  aug-cc-pvdz iop(5/13=1,5/36=2,99/5=2) pseudo=read geom=check guess=(r
 ead,tcheck) scf=(maxcycle=1)\\title\\0,1\Si,0,2.819924,0.197395,0.0310
 82\C,0,1.023209,0.372221,-0.550819\S,0,-0.096826,-0.650221,0.47605\S,0
 ,-1.962737,-0.442141,-0.422545\H,0,3.662042,1.06141,-0.828955\H,0,3.26
 7658,-1.206945,-0.092033\C,0,-2.639801,1.071733,0.351416\H,0,-3.653933
 ,1.178851,-0.041577\H,0,-2.056249,1.950223,0.077448\H,0,-2.679891,0.96
 1611,1.434065\H,0,2.952357,0.633645,1.438947\H,0,0.951415,0.048457,-1.

 Normal termination of Gaussian 16 at Tue Apr  8 23:53:39 2025.
