 Gaussian 16, Revision C.01,

 ----------------------------------------------------------------------
 #t hf aug-cc-pvdz symm=none int=(grid=ultrafine) guess=(read,tcheck) s
 table=(opt,rrhf)
 ----------------------------------------------------------------------
 -----
 title
 -----
 Symbolic Z-matrix:
 Charge =  0 Multiplicity = 1

 SCF Done:  E(RHF) =  -495.096016869     A.U. after   14 cycles
 Normal termination of Gaussian 16 at Tue Apr  8 23:35:53 2025.
 Gaussian 16:  ES64L-G16RevC.01  3-Jul-2019

 ----------------------------------------------------------------------
 #t hf aug-cc-pvdz iop(5/13=1,5/36=2,99/5=2) pseudo=read geom=check gue
 ss=(read,tcheck) scf=(maxcycle=1)
 ----------------------------------------------------------------------
 -----
 title
 -----
 Structure from the checkpoint file:  "BDE49_nonexpt_1487_mol1.chk"
 Charge =  0 Multiplicity = 1

                         Standard orientation:
 ---------------------------------------------------------------------
 Center     Atomic      Atomic             Coordinates (Angstroms)
 Number     Number       Type             X           Y           Z
 ---------------------------------------------------------------------
      1         15           0        0.163994   -1.209860   -0.000000
      2          6           0       -0.049533    0.045385    1.285039
      3          6           0       -0.049533    1.278994    0.728301
      4          6           0       -0.049533    1.278994   -0.728301
      5          6           0       -0.049533    0.045385   -1.285039
      6          1           0       -0.032848   -0.160430    2.346503
      7          1           0       -0.045607    2.199950    1.301582
      8          1           0       -0.032848   -0.160430   -2.346503
      9          1           0       -0.045607    2.199950   -1.301582
     10          1           0       -1.114195   -1.823691   -0.000000
 ---------------------------------------------------------------------

 SCF Done:  E(RHF) =  -496.030964859     A.U. after    2 cycles

 The electronic state is 1-A'.
 Alpha  occ. eigenvalues -- -105.17053 -11.45900 -11.41559 -11.39453 -11.36866
 Alpha  occ. eigenvalues --   -2.75725  -1.52096  -1.48552  -1.43117  -1.23000
 Alpha  occ. eigenvalues --   -1.01215  -0.88458  -0.71523  -0.71400  -0.64699
 Alpha  occ. eigenvalues --   -0.55493  -0.49290  -0.45606  -0.31702  -0.23854
 Alpha  occ. eigenvalues --   -0.21466  -0.02955
 Alpha virt. eigenvalues --    0.03690   0.05351   0.05919   0.05996   0.06998
 Alpha virt. eigenvalues --    0.08443   0.09963   0.10530   0.12984   0.13679
 Alpha virt. eigenvalues --    0.14277   0.14903   0.15118   0.15165   0.15638

 Mulliken charges:
               1
     1  P    4.271849
     2  C   -3.142007
     3  C   -1.499413
     4  C   -1.499413
     5  C   -3.142007
     6  H    1.087334
     7  H    1.393350
     8  H    1.087334
     9  H    1.393350
    10  H    0.049622
 Sum of Mulliken charges =   0.00000

 Dipole moment (field-independent basis, Debye):
    X=              2.1269    Y=             -3.4432    Z=             -0.0000  Tot=              4.0471

 Test job not archived.
 1\1\GINC-SE049\SP\RHF\Aug-CC-pVDZ\C4H5P1\OHZDE\08-Apr-2025\0\\#t hf au
 g-cc-pvdz iop(5/13=1,5/36=2,99/5=2) pseudo=read geom=check guess=(read
 ,tcheck) scf=(maxcycle=1)\\title\\0,1\P,0,0.163994,-1.20986,0.\C,0,-0.
 049533,0.045385,1.285039\C,0,-0.049533,1.278994,0.728301\C,0,-0.049533
 ,1.278994,-0.728301\C,0,-0.049533,0.045385,-1.285039\H,0,-0.032848,-0.
 16043,2.346503\H,0,-0.045607,2.19995,1.301582\H,0,-0.032848,-0.16043,-
 2.346503\H,0,-0.045607,2.19995,-1.301582\H,0,-1.114195,-1.823691,0.\\V
 ersion=ES64L-G16RevC.01\State=1-A'\HF=-496.0309649\RMSD=1.513e+00\Dipo

 Normal termination of Gaussian 16 at Tue Apr  8 23:35:56 2025.
