 Gaussian 16, Revision C.01,

 ----------------------------------------------------------------------
 #t hf aug-cc-pvdz symm=none int=(grid=ultrafine) guess=(read,tcheck) s
 table=(opt,rrhf)
 ----------------------------------------------------------------------
 -----
 title
 -----
 Symbolic Z-matrix:
 Charge =  0 Multiplicity = 1

 SCF Done:  E(RHF) =  -784.890273340     A.U. after   13 cycles
 Normal termination of Gaussian 16 at Wed Apr  9 00:12:37 2025.
 Gaussian 16:  ES64L-G16RevC.01  3-Jul-2019

 ----------------------------------------------------------------------
 #t hf aug-cc-pvdz iop(5/13=1,5/36=2,99/5=2) pseudo=read geom=check gue
 ss=(read,tcheck) scf=(maxcycle=1)
 ----------------------------------------------------------------------
 -----
 title
 -----
 Structure from the checkpoint file:  "BDE49_nonexpt_2403_mol1.chk"
 Charge =  0 Multiplicity = 1

                         Standard orientation:
 ---------------------------------------------------------------------
 Center     Atomic      Atomic             Coordinates (Angstroms)
 Number     Number       Type             X           Y           Z
 ---------------------------------------------------------------------
      1         14           0       -1.846970   -0.818189    0.000001
      2         14           0       -0.515804    1.131127   -0.000001
      3          1           0       -3.264424   -0.378860   -0.000000
      4          1           0       -1.599770   -1.634641    1.210281
      5          8           0        1.146916    0.765426   -0.000006
      6          1           0       -0.767700    1.953101    1.204651
      7          1           0       -0.767704    1.953102   -1.204652
      8          7           0        1.512665   -0.644462   -0.000001
      9          8           0        2.664277   -0.781420    0.000007
     10          1           0       -1.599769   -1.634645   -1.210276
 ---------------------------------------------------------------------

 SCF Done:  E(RHF) =  -786.046399143     A.U. after    2 cycles

 The electronic state is 1-A.
 Alpha  occ. eigenvalues --  -76.25421 -76.22803 -21.17337 -21.08727 -15.95490
 Alpha  occ. eigenvalues --   -5.58926  -5.56227  -2.24587  -2.20529  -2.20070
 Alpha  occ. eigenvalues --   -2.18317  -2.18304  -2.17332  -1.96571  -1.68685
 Alpha  occ. eigenvalues --   -0.96771  -0.81699  -0.73255  -0.64407  -0.61978
 Alpha  occ. eigenvalues --   -0.61854  -0.50770  -0.48332  -0.47921  -0.43294
 Alpha  occ. eigenvalues --   -0.37736  -0.34625  -0.31069
 Alpha virt. eigenvalues --    0.04068   0.04609   0.06270   0.06463   0.07097
 Alpha virt. eigenvalues --    0.07871   0.08163   0.09124   0.09458   0.09462
 Alpha virt. eigenvalues --    0.09885   0.11173   0.12258   0.13998   0.14715

 Mulliken charges:
               1
     1  Si   4.285554
     2  Si   4.997164
     3  H   -1.453052
     4  H   -1.487357
     5  O   -2.421142
     6  H   -1.674131
     7  H   -1.674129
     8  N    2.627206
     9  O   -1.712756
    10  H   -1.487357
 Sum of Mulliken charges =  -0.00000

 Dipole moment (field-independent basis, Debye):
    X=              0.3416    Y=              0.1665    Z=              0.0000  Tot=              0.3800

 Test job not archived.
 1\1\GINC-SE165\SP\RHF\Aug-CC-pVDZ\H5N1O2Si2\OHZDE\09-Apr-2025\0\\#t hf
  aug-cc-pvdz iop(5/13=1,5/36=2,99/5=2) pseudo=read geom=check guess=(r
 ead,tcheck) scf=(maxcycle=1)\\title\\0,1\Si,0,-1.84697,-0.81819,0.0000
 01\Si,0,-0.515804,1.131127,-0.000001\H,0,-3.264424,-0.378861,0.\H,0,-1
 .59977,-1.634641,1.210281\O,0,1.146916,0.765426,-0.000006\H,0,-0.7677,
 1.953101,1.204651\H,0,-0.767704,1.953102,-1.204652\N,0,1.512665,-0.644
 462,-0.000001\O,0,2.664277,-0.78142,0.000007\H,0,-1.599769,-1.634645,-
 1.210276\\Version=ES64L-G16RevC.01\State=1-A\HF=-786.0463991\RMSD=8.80

 Normal termination of Gaussian 16 at Wed Apr  9 00:12:41 2025.
