 Gaussian 16, Revision C.01,

 ----------------------------------------------------------------------
 #t hf aug-cc-pvdz symm=none int=(grid=ultrafine) guess=(read,tcheck) s
 table=opt
 ----------------------------------------------------------------------
 -----
 title
 -----
 Symbolic Z-matrix:
 Charge =  0 Multiplicity = 2

 SCF Done:  E(UHF) =  -795.639428306     A.U. after   18 cycles
 Normal termination of Gaussian 16 at Tue Apr  8 22:47:26 2025.
 Gaussian 16:  ES64L-G16RevC.01  3-Jul-2019

 ----------------------------------------------------------------------
 #t hf aug-cc-pvdz iop(5/13=1,5/36=2,99/5=2) pseudo=read geom=check gue
 ss=(read,tcheck) scf=(maxcycle=1)
 ----------------------------------------------------------------------
 -----
 title
 -----
 Structure from the checkpoint file:  "BDE49_expt_1590_mol2.chk"
 Charge =  0 Multiplicity = 2

                         Standard orientation:
 ---------------------------------------------------------------------
 Center     Atomic      Atomic             Coordinates (Angstroms)
 Number     Number       Type             X           Y           Z
 ---------------------------------------------------------------------
      1         16           0        0.040244    1.039253    0.000000
      2         16           0        0.040244   -0.962096    0.000000
      3          1           0       -1.287804   -1.234525    0.000000
 ---------------------------------------------------------------------

 SCF Done:  E(UHF) =  -796.060603578     A.U. after    2 cycles

 The electronic state is 2-A".
 Alpha  occ. eigenvalues --  -75.74324 -75.72981 -13.15610 -13.09827 -13.06488
 Alpha  occ. eigenvalues --  -13.06425 -13.04752 -13.03735  -8.08210  -8.06683
 Alpha  occ. eigenvalues --   -1.24641  -0.98586  -0.53974  -0.39914  -0.38225
 Alpha  occ. eigenvalues --   -0.26994  -0.22104
 Alpha virt. eigenvalues --    0.02207   0.04147   0.09814   0.11638   0.12590
 Alpha virt. eigenvalues --    0.14690   0.16077   0.17045   0.19021   0.21946
 Alpha virt. eigenvalues --    0.24873   0.27083   0.28006   0.30357   0.35531

  Beta  occ. eigenvalues --  -75.74099 -75.72079 -13.15476 -13.09739 -13.06062
  Beta  occ. eigenvalues --  -13.04563 -13.03188 -12.99858  -8.07956  -8.05669
  Beta  occ. eigenvalues --   -1.21408  -0.91582  -0.53584  -0.36885  -0.32643
  Beta  occ. eigenvalues --   -0.25651
  Beta virt. eigenvalues --    0.02268   0.04393   0.05651   0.09880   0.12141
  Beta virt. eigenvalues --    0.12678   0.14825   0.16244   0.19503   0.20255
  Beta virt. eigenvalues --    0.22470   0.25947   0.27621   0.28175   0.34306

 Mulliken charges and spin densities:
               1          2
     1  S    0.025651   0.875719
     2  S   -1.150917   0.159533
     3  H    1.125266  -0.035253
 Sum of Mulliken charges =   0.00000   1.00000

 Dipole moment (field-independent basis, Debye):
    X=              0.7633    Y=             -0.1569    Z=              0.0000  Tot=              0.7792
                          Isotropic Fermi Contact Couplings
        Atom                 a.u.       MegaHertz       Gauss      10(-4) cm-1
     1  S(33)              0.29049      99.77522      35.60228      33.28143
     2  S(33)              0.14052      48.26512      17.22220      16.09951
     3  H(1)              -0.00309     -13.80318      -4.92532      -4.60425
 --------------------------------------------------------
       Center         ----  Spin Dipole Couplings  ----
                      3XX-RR        3YY-RR        3ZZ-RR
 --------------------------------------------------------
     1   Atom       -0.214522     -0.229245      0.443767

 Normal termination of Gaussian 16 at Tue Apr  8 22:47:28 2025.
