 Gaussian 16, Revision C.01,

 ----------------------------------------------------------------------
 #t hf aug-cc-pvdz symm=none int=(grid=ultrafine) guess=(read,tcheck) s
 table=(opt,rrhf)
 ----------------------------------------------------------------------
 -----
 title
 -----
 Symbolic Z-matrix:
 Charge =  0 Multiplicity = 1

 SCF Done:  E(RHF) =  -457.881863172     A.U. after   13 cycles
 Normal termination of Gaussian 16 at Tue Apr  8 23:58:22 2025.
 Gaussian 16:  ES64L-G16RevC.01  3-Jul-2019

 ----------------------------------------------------------------------
 #t hf aug-cc-pvdz iop(5/13=1,5/36=2,99/5=2) pseudo=read geom=check gue
 ss=(read,tcheck) scf=(maxcycle=1)
 ----------------------------------------------------------------------
 -----
 title
 -----
 Structure from the checkpoint file:  "BDE49_nonexpt_2062_mol1.chk"
 Charge =  0 Multiplicity = 1

                         Standard orientation:
 ---------------------------------------------------------------------
 Center     Atomic      Atomic             Coordinates (Angstroms)
 Number     Number       Type             X           Y           Z
 ---------------------------------------------------------------------
      1         14           0        1.393705   -0.172212   -0.000032
      2          6           0       -1.271933    0.112498    0.000250
      3          7           0       -2.338946   -0.335861   -0.000146
      4          8           0       -0.102657    0.645471    0.000011
      5          1           0        2.373368    0.922058   -0.000650
      6          1           0        1.469847   -0.999862   -1.216540
      7          1           0        1.470393   -0.998956    1.217058
 ---------------------------------------------------------------------

 SCF Done:  E(RHF) =  -458.734332669     A.U. after    2 cycles

 The electronic state is 1-A.
 Alpha  occ. eigenvalues --  -76.29178 -21.15261 -15.75323 -11.48640  -5.62535
 Alpha  occ. eigenvalues --   -2.28254  -2.24476  -2.24204  -1.81579  -1.28551
 Alpha  occ. eigenvalues --   -0.85333  -0.69555  -0.59752  -0.59676  -0.52875
 Alpha  occ. eigenvalues --   -0.51094  -0.50809  -0.38189  -0.37220
 Alpha virt. eigenvalues --    0.03117   0.04101   0.05386   0.05723   0.08209
 Alpha virt. eigenvalues --    0.08224   0.10301   0.11865   0.12264   0.12621
 Alpha virt. eigenvalues --    0.13592   0.15348   0.15781   0.17110   0.19596

 Mulliken charges:
               1
     1  Si   6.122033
     2  C    3.772317
     3  N   -2.434016
     4  O   -2.773947
     5  H   -1.552882
     6  H   -1.566707
     7  H   -1.566798
 Sum of Mulliken charges =  -0.00000

 Dipole moment (field-independent basis, Debye):
    X=              4.2500    Y=              0.8840    Z=              0.0001  Tot=              4.3410

 Test job not archived.
 1\1\GINC-SE073\SP\RHF\Aug-CC-pVDZ\C1H3N1O1Si1\OHZDE\08-Apr-2025\0\\#t
 hf aug-cc-pvdz iop(5/13=1,5/36=2,99/5=2) pseudo=read geom=check guess=
 (read,tcheck) scf=(maxcycle=1)\\title\\0,1\Si,0,1.393705,-0.172212,-0.
 000032\C,0,-1.271933,0.112498,0.00025\N,0,-2.338946,-0.335861,-0.00014
 6\O,0,-0.102657,0.645471,0.000011\H,0,2.373368,0.922058,-0.00065\H,0,1
 .469847,-0.999862,-1.21654\H,0,1.470393,-0.998956,1.217058\\Version=ES
 64L-G16RevC.01\State=1-A\HF=-458.7343327\RMSD=7.491e-02\Dipole=1.67208
 79,0.3477938,0.0000209\Quadrupole=-3.0726189,1.5085837,1.5640352,-1.73

 Normal termination of Gaussian 16 at Tue Apr  8 23:58:24 2025.
