 Gaussian 16, Revision C.01,

 ----------------------------------------------------------------------
 #t hf aug-cc-pvdz symm=none int=(grid=ultrafine) guess=(read,tcheck) s
 table=(opt,rrhf)
 ----------------------------------------------------------------------
 -----
 title
 -----
 Symbolic Z-matrix:
 Charge =  0 Multiplicity = 1

 SCF Done:  E(RHF) =  -665.477001138     A.U. after   13 cycles
 Normal termination of Gaussian 16 at Tue Apr  8 22:47:50 2025.
 Gaussian 16:  ES64L-G16RevC.01  3-Jul-2019

 ----------------------------------------------------------------------
 #t hf aug-cc-pvdz iop(5/13=1,5/36=2,99/5=2) pseudo=read geom=check gue
 ss=(read,tcheck) scf=(maxcycle=1)
 ----------------------------------------------------------------------
 -----
 title
 -----
 Structure from the checkpoint file:  "BDE49_expt_1598_mol1.chk"
 Charge =  0 Multiplicity = 1

                         Standard orientation:
 ---------------------------------------------------------------------
 Center     Atomic      Atomic             Coordinates (Angstroms)
 Number     Number       Type             X           Y           Z
 ---------------------------------------------------------------------
      1         16           0        0.402218   -0.191120    0.000000
      2          6           0       -1.046102    0.898973    0.000000
      3          6           0        1.790259    0.952402   -0.000001
      4          8           0        0.422273   -0.911241   -1.259599
      5          8           0        0.422274   -0.911240    1.259600
      6          1           0        1.757506    1.562682   -0.901892
      7          1           0        2.685317    0.329447   -0.000001
      8          1           0        1.757506    1.562683    0.901891
      9          6           0       -2.329407    0.070165    0.000000
     10          1           0       -0.963571    1.524613   -0.891582
     11          1           0       -0.963571    1.524613    0.891581
     12          1           0       -2.378496   -0.564835   -0.885702
     13          1           0       -3.196554    0.734154    0.000000
     14          1           0       -2.378496   -0.564834    0.885703
 ---------------------------------------------------------------------

 SCF Done:  E(RHF) =  -666.991432904     A.U. after    2 cycles

 The electronic state is 1-A.
 Alpha  occ. eigenvalues --  -75.87378 -21.03488 -21.03462 -13.49679 -13.39936
 Alpha  occ. eigenvalues --  -13.33238 -11.44474 -11.42312 -11.38878  -8.22573
 Alpha  occ. eigenvalues --   -1.82031  -1.63971  -1.22464  -1.12804  -0.96932
 Alpha  occ. eigenvalues --   -0.84738  -0.66540  -0.66224  -0.62572  -0.62536
 Alpha  occ. eigenvalues --   -0.56138  -0.52605  -0.51850  -0.51624  -0.42468
 Alpha  occ. eigenvalues --   -0.38503  -0.37692  -0.34958  -0.34284
 Alpha virt. eigenvalues --    0.02653   0.03789   0.04832   0.05410   0.06547
 Alpha virt. eigenvalues --    0.06793   0.07259   0.08063   0.10943   0.11699
 Alpha virt. eigenvalues --    0.12805   0.13439   0.13948   0.13972   0.15385

 Mulliken charges:
               1
     1  S    6.376789
     2  C   -3.946453
     3  C   -4.670770
     4  O   -2.518186
     5  O   -2.518184
     6  H    1.347108
     7  H    1.317578
     8  H    1.347106
     9  C   -3.498133
    10  H    1.498466
    11  H    1.498468
    12  H    1.327055
    13  H    1.112101
    14  H    1.327055
 Sum of Mulliken charges =  -0.00000

 Dipole moment (field-independent basis, Debye):
    X=             -0.4064    Y=              2.2563    Z=             -0.0000  Tot=              2.2926

 Test job not archived.
 1\1\GINC-SE363\SP\RHF\Aug-CC-pVDZ\C3H8O2S1\OHZDE\08-Apr-2025\0\\#t hf
 aug-cc-pvdz iop(5/13=1,5/36=2,99/5=2) pseudo=read geom=check guess=(re
 ad,tcheck) scf=(maxcycle=1)\\title\\0,1\S,0,0.402218,-0.19112,0.\C,0,-
 1.046102,0.898973,0.\C,0,1.790259,0.952401,-0.000001\O,0,0.422273,-0.9
 11241,-1.259599\O,0,0.422274,-0.91124,1.2596\H,0,1.757506,1.562681,-0.
 901892\H,0,2.685317,0.329446,-0.000001\H,0,1.757506,1.562682,0.901891\
 C,0,-2.329407,0.070165,0.\H,0,-0.963571,1.524613,-0.891582\H,0,-0.9635
 71,1.524613,0.891581\H,0,-2.378496,-0.564835,-0.885702\H,0,-3.196554,0

 Normal termination of Gaussian 16 at Tue Apr  8 22:47:55 2025.
