 Gaussian 16, Revision C.01,

 ----------------------------------------------------------------------
 #t hf aug-cc-pvdz symm=none int=(grid=ultrafine) guess=(read,tcheck) s
 table=(opt,rrhf)
 ----------------------------------------------------------------------
 -----
 title
 -----
 Symbolic Z-matrix:
 Charge =  0 Multiplicity = 1

 SCF Done:  E(RHF) =  -586.186787323     A.U. after   13 cycles
 Normal termination of Gaussian 16 at Tue Apr  8 23:38:11 2025.
 Gaussian 16:  ES64L-G16RevC.01  3-Jul-2019

 ----------------------------------------------------------------------
 #t hf aug-cc-pvdz iop(5/13=1,5/36=2,99/5=2) pseudo=read geom=check gue
 ss=(read,tcheck) scf=(maxcycle=1)
 ----------------------------------------------------------------------
 -----
 title
 -----
 Structure from the checkpoint file:  "BDE49_nonexpt_1560_mol1.chk"
 Charge =  0 Multiplicity = 1

                         Standard orientation:
 ---------------------------------------------------------------------
 Center     Atomic      Atomic             Coordinates (Angstroms)
 Number     Number       Type             X           Y           Z
 ---------------------------------------------------------------------
      1         15           0       -0.690038   -0.804697    0.132888
      2          7           0        0.717380    0.140201   -0.395184
      3          8           0        0.804030    1.355329    0.350662
      4          8           0        1.850661   -0.655436   -0.022102
      5          6           0       -2.005390    0.442281   -0.228876
      6          1           0       -1.761306    1.423200    0.176628
      7          1           0       -2.936351    0.082699    0.217989
      8          1           0       -2.152796    0.512681   -1.308483
      9          1           0        2.409794   -0.618457   -0.806874
     10          1           0        1.156572    1.983516   -0.291739
     11          1           0       -0.592189   -0.547422    1.530226
 ---------------------------------------------------------------------

 SCF Done:  E(RHF) =  -587.446835913     A.U. after    2 cycles

 The electronic state is 1-A.
 Alpha  occ. eigenvalues -- -105.19226 -21.10003 -21.09961 -15.79805 -11.37051
 Alpha  occ. eigenvalues --   -2.77020  -1.85235  -1.67818  -1.50839  -1.47970
 Alpha  occ. eigenvalues --   -1.44923  -1.04808  -0.97770  -0.69351  -0.65449
 Alpha  occ. eigenvalues --   -0.62398  -0.56742  -0.56494  -0.48417  -0.46821
 Alpha  occ. eigenvalues --   -0.32734  -0.31529  -0.26417  -0.22757  -0.01819
 Alpha virt. eigenvalues --    0.04282   0.05307   0.06249   0.06342   0.07059
 Alpha virt. eigenvalues --    0.08085   0.10515   0.11848   0.12422   0.14309
 Alpha virt. eigenvalues --    0.16425   0.16821   0.17484   0.17988   0.18710

 Mulliken charges:
               1
     1  P    3.923232
     2  N    1.589220
     3  O   -2.036775
     4  O   -2.144213
     5  C   -5.435233
     6  H    1.213859
     7  H    1.167338
     8  H    1.125604
     9  H    0.792596
    10  H    0.749421
    11  H   -0.945048
 Sum of Mulliken charges =   0.00000

 Dipole moment (field-independent basis, Debye):
    X=              2.2886    Y=             -0.0486    Z=             -0.3932  Tot=              2.3226

 Test job not archived.
 1\1\GINC-SE457\SP\RHF\Aug-CC-pVDZ\C1H6N1O2P1\OHZDE\08-Apr-2025\0\\#t h
 f aug-cc-pvdz iop(5/13=1,5/36=2,99/5=2) pseudo=read geom=check guess=(
 read,tcheck) scf=(maxcycle=1)\\title\\0,1\P,0,-0.690038,-0.804697,0.13
 2888\N,0,0.71738,0.140201,-0.395184\O,0,0.80403,1.355329,0.350662\O,0,
 1.850661,-0.655436,-0.022102\C,0,-2.00539,0.442282,-0.228876\H,0,-1.76
 1306,1.423201,0.176628\H,0,-2.936351,0.0827,0.217989\H,0,-2.152796,0.5
 12682,-1.308483\H,0,2.409794,-0.618457,-0.806874\H,0,1.156573,1.983516
 ,-0.291739\H,0,-0.592189,-0.547422,1.530226\\Version=ES64L-G16RevC.01\

 Normal termination of Gaussian 16 at Tue Apr  8 23:38:14 2025.
