 Gaussian 16, Revision C.01,

 ----------------------------------------------------------------------
 #t hf aug-cc-pvdz symm=none int=(grid=ultrafine) guess=(read,tcheck) s
 table=(opt,rrhf)
 ----------------------------------------------------------------------
 -----
 title
 -----
 Symbolic Z-matrix:
 Charge =  0 Multiplicity = 1

 SCF Done:  E(RHF) =  -1148.56632271     A.U. after   15 cycles

 1\1\GINC-SE328\Stability\RHF\Aug-CC-pVDZ\C6H4Cl2\OHZDE\08-Apr-2025\0\\
 #t hf aug-cc-pvdz symm=none int=(grid=ultrafine) guess=(read,tcheck) s
 table=(opt,rrhf)\\title\\0,1\C,0,0.,0.699073,-0.025772\C,0,0.,1.391744
 ,1.183908\C,0,0.,0.696546,2.387623\C,0,0.,-0.696546,2.387623\C,0,0.,-1
 .391744,1.183908\C,0,0.,-0.699073,-0.025772\Cl,0,0.,1.608246,-1.515448
 \H,0,0.,1.245486,3.321548\H,0,0.,-1.245486,3.321548\H,0,0.,2.473891,1.
 166512\H,0,0.,-2.473891,1.166512\Cl,0,0.,-1.608246,-1.515448\\Version=
 ES64L-G16RevC.01\HF=-1148.5663227\RMSD=2.195e-09\Dipole=0.,0.,1.172193

 Normal termination of Gaussian 16 at Tue Apr  8 22:49:47 2025.
 Gaussian 16:  ES64L-G16RevC.01  3-Jul-2019

 ----------------------------------------------------------------------
 #t hf aug-cc-pvdz iop(5/13=1,5/36=2,99/5=2) pseudo=read geom=check gue
 ss=(read,tcheck) scf=(maxcycle=1)
 ----------------------------------------------------------------------
 -----
 title
 -----
 Structure from the checkpoint file:  "BDE49_expt_1672_mol1.chk"
 Charge =  0 Multiplicity = 1

                         Standard orientation:
 ---------------------------------------------------------------------
 Center     Atomic      Atomic             Coordinates (Angstroms)
 Number     Number       Type             X           Y           Z
 ---------------------------------------------------------------------
      1          6           0        0.000000    0.699073   -0.025772
      2          6           0        0.000000    1.391744    1.183908
      3          6           0        0.000000    0.696546    2.387623
      4          6           0       -0.000000   -0.696546    2.387623
      5          6           0       -0.000000   -1.391744    1.183908
      6          6           0       -0.000000   -0.699073   -0.025772
      7         17           0        0.000000    1.608246   -1.515448
      8          1           0        0.000000    1.245486    3.321548
      9          1           0       -0.000000   -1.245486    3.321548
     10          1           0        0.000000    2.473891    1.166512
     11          1           0       -0.000000   -2.473891    1.166512
     12         17           0       -0.000000   -1.608246   -1.515448
 ---------------------------------------------------------------------

 SCF Done:  E(RHF) =  -1150.15274193     A.U. after    2 cycles

 The electronic state is 1-A1.
 Alpha  occ. eigenvalues --  -99.90238 -99.90219 -11.54464 -11.48261 -11.47637
 Alpha  occ. eigenvalues --  -11.44172 -11.43525 -11.39203 -10.47629 -10.47607
 Alpha  occ. eigenvalues --   -9.67809  -9.67471  -9.66842  -9.66589  -9.66576
 Alpha  occ. eigenvalues --   -9.66510  -1.44154  -1.32715  -1.27709  -1.11094
 Alpha  occ. eigenvalues --   -1.08798  -0.89918  -0.87851  -0.73821  -0.68844
 Alpha  occ. eigenvalues --   -0.65074  -0.61617  -0.61120  -0.60619  -0.54632
 Alpha  occ. eigenvalues --   -0.52665  -0.51967  -0.49430  -0.47610  -0.47561
 Alpha  occ. eigenvalues --   -0.35277  -0.34747
 Alpha virt. eigenvalues --    0.02868   0.04894   0.05070   0.06241   0.06882
 Alpha virt. eigenvalues --    0.08985   0.09002   0.09443   0.09639   0.12103
 Alpha virt. eigenvalues --    0.12424   0.13435   0.13488   0.13627   0.13957

 Mulliken charges:
               1
     1  C   -0.946135
     2  C   -0.659738
     3  C   -1.065108
     4  C   -1.065108
     5  C   -0.659738
     6  C   -0.946135
     7  Cl  -0.603077
     8  H    1.531759
     9  H    1.531759
    10  H    1.742300
    11  H    1.742300
    12  Cl  -0.603077
 Sum of Mulliken charges =  -0.00000

 Dipole moment (field-independent basis, Debye):
    X=             -0.0000    Y=              0.0000    Z=              3.6118  Tot=              3.6118

 Test job not archived.
 1\1\GINC-SE328\SP\RHF\Aug-CC-pVDZ\C6H4Cl2\OHZDE\08-Apr-2025\0\\#t hf a
 ug-cc-pvdz iop(5/13=1,5/36=2,99/5=2) pseudo=read geom=check guess=(rea
 d,tcheck) scf=(maxcycle=1)\\title\\0,1\C,0,0.,0.699073,-0.025772\C,0,0
 .,1.391744,1.183908\C,0,0.,0.696546,2.387623\C,0,0.,-0.696546,2.387623
 \C,0,0.,-1.391744,1.183908\C,0,0.,-0.699073,-0.025772\Cl,0,0.,1.608246
 ,-1.515448\H,0,0.,1.245486,3.321548\H,0,0.,-1.245486,3.321548\H,0,0.,2
 .473891,1.166512\H,0,0.,-2.473891,1.166512\Cl,0,0.,-1.608246,-1.515448
 \\Version=ES64L-G16RevC.01\State=1-A1\HF=-1150.1527419\RMSD=2.775e+00\

 Normal termination of Gaussian 16 at Tue Apr  8 22:49:52 2025.
