 Gaussian 16, Revision C.01,

 ----------------------------------------------------------------------
 #t hf aug-cc-pvdz symm=none int=(grid=ultrafine) guess=(read,tcheck) s
 table=opt
 ----------------------------------------------------------------------
 -----
 title
 -----
 Symbolic Z-matrix:
 Charge =  0 Multiplicity = 2

 SCF Done:  E(UHF) =  -837.846082791     A.U. after   21 cycles
 Normal termination of Gaussian 16 at Tue Apr  8 23:55:21 2025.
 Gaussian 16:  ES64L-G16RevC.01  3-Jul-2019

 ----------------------------------------------------------------------
 #t hf aug-cc-pvdz iop(5/13=1,5/36=2,99/5=2) pseudo=read geom=check gue
 ss=(read,tcheck) scf=(maxcycle=1)
 ----------------------------------------------------------------------
 -----
 title
 -----
 Structure from the checkpoint file:  "BDE49_nonexpt_1966_mol2.chk"
 Charge =  0 Multiplicity = 2

                         Standard orientation:
 ---------------------------------------------------------------------
 Center     Atomic      Atomic             Coordinates (Angstroms)
 Number     Number       Type             X           Y           Z
 ---------------------------------------------------------------------
      1         14           0       -1.615131    0.207465    0.022914
      2         16           0        0.577064   -0.188738   -0.449499
      3          1           0       -2.307281   -0.941867   -0.626362
      4          1           0       -1.665212    0.030126    1.499254
      5          8           0        0.868614   -1.324075    0.467911
      6          8           0        1.050379    1.280342    0.268748
      7          1           0        1.999361    1.376897    0.105023
 ---------------------------------------------------------------------

 SCF Done:  E(UHF) =  -838.841168420     A.U. after    2 cycles

 The electronic state is 2-A.
 Alpha  occ. eigenvalues --  -76.27744 -75.81925 -21.11381 -21.03122 -13.35601
 Alpha  occ. eigenvalues --  -13.23738 -13.19026  -8.15866  -5.60870  -2.22600
 Alpha  occ. eigenvalues --   -2.22262  -2.21966  -1.78005  -1.66146  -1.00670
 Alpha  occ. eigenvalues --   -0.77825  -0.63628  -0.53259  -0.50688  -0.48338
 Alpha  occ. eigenvalues --   -0.44874  -0.38246  -0.34926  -0.30927  -0.23681
 Alpha virt. eigenvalues --    0.03557   0.03860   0.04533   0.06927   0.07513
 Alpha virt. eigenvalues --    0.08929   0.10058   0.11187   0.11900   0.13587
 Alpha virt. eigenvalues --    0.14357   0.16509   0.17066   0.18362   0.19012

  Beta  occ. eigenvalues --  -76.27181 -75.81888 -21.11390 -21.02801 -13.35613
  Beta  occ. eigenvalues --  -13.23660 -13.18843  -8.15824  -5.59970  -2.21995
  Beta  occ. eigenvalues --   -2.21655  -2.18389  -1.77838  -1.65706  -0.99902
  Beta  occ. eigenvalues --   -0.73403  -0.63568  -0.52745  -0.49538  -0.47497
  Beta  occ. eigenvalues --   -0.44673  -0.35216  -0.33993  -0.25544
  Beta virt. eigenvalues --    0.01105   0.03987   0.04520   0.04985   0.07525
  Beta virt. eigenvalues --    0.08315   0.09341   0.10254   0.11531   0.12289
  Beta virt. eigenvalues --    0.14723   0.15831   0.17516   0.18519   0.19883

 Mulliken charges and spin densities:
               1          2
     1  Si   3.723420   0.855495
     2  S    2.162448   0.024788
     3  H   -1.468973   0.036974
     4  H   -1.390152   0.043373
     5  O   -2.037634   0.054274
     6  O   -1.995411  -0.006386
     7  H    1.006303  -0.008518
 Sum of Mulliken charges =  -0.00000   1.00000

 Dipole moment (field-independent basis, Debye):
    X=              0.1396    Y=              1.6678    Z=             -1.3449  Tot=              2.1470
                          Isotropic Fermi Contact Couplings
        Atom                 a.u.       MegaHertz       Gauss      10(-4) cm-1
     1  Si(29)             0.45473    -404.12844    -144.20308    -134.80274
     2  S(33)              0.00360       1.23537       0.44081       0.41207
     3  H(1)               0.00917      41.00894      14.63301      13.67911
     4  H(1)               0.01134      50.70120      18.09145      16.91210
     5  O(17)              0.01921     -11.64410      -4.15491      -3.88406
     6  O(17)             -0.00600       3.63481       1.29699       1.21244
     7  H(1)              -0.00059      -2.62431      -0.93642      -0.87537
 --------------------------------------------------------

 Normal termination of Gaussian 16 at Tue Apr  8 23:55:23 2025.
