 Gaussian 16, Revision C.01,

 ----------------------------------------------------------------------
 #t hf aug-cc-pvdz symm=none int=(grid=ultrafine) guess=(read,tcheck) s
 table=opt
 ----------------------------------------------------------------------
 -----
 title
 -----
 Symbolic Z-matrix:
 Charge =  0 Multiplicity = 2

 SCF Done:  E(UHF) =  -1270.04878656     a.u. after    6 cycles
 Normal termination of Gaussian 16 at Wed Apr  9 00:19:29 2025.
 Gaussian 16:  ES64L-G16RevC.01  3-Jul-2019

 ----------------------------------------------------------------------
 #t hf aug-cc-pvdz iop(5/13=1,5/36=2,99/5=2) pseudo=read geom=check gue
 ss=(read,tcheck) scf=(maxcycle=1)
 ----------------------------------------------------------------------
 -----
 title
 -----
 Structure from the checkpoint file:  "BDE49_nonexpt_2576_mol2.chk"
 Charge =  0 Multiplicity = 2

                         Standard orientation:
 ---------------------------------------------------------------------
 Center     Atomic      Atomic             Coordinates (Angstroms)
 Number     Number       Type             X           Y           Z
 ---------------------------------------------------------------------
      1         16           0       -1.874925   -0.784215    0.000008
      2          6           0       -0.353699   -0.058377   -0.000011
      3         16           0       -0.502458    1.615611    0.000000
      4         16           0        1.100278   -0.998351   -0.000005
      5          6           0        2.415190    0.261273    0.000001
      6          1           0        3.348689   -0.302828    0.000004
      7          1           0        2.358013    0.878361    0.895456
      8          1           0        2.358019    0.878362   -0.895453
 ---------------------------------------------------------------------

 SCF Done:  E(UHF) =  -1271.07312486     A.U. after    2 cycles

 The electronic state is 2-A.
 Alpha  occ. eigenvalues --  -75.74535 -75.73341 -75.67472 -13.19086 -13.16561
 Alpha  occ. eigenvalues --  -13.14733 -13.11345 -13.09371 -13.06167 -13.05499
 Alpha  occ. eigenvalues --  -13.03140 -12.98788 -11.50616 -11.42129  -8.08513
 Alpha  occ. eigenvalues --   -8.07643  -8.01457  -1.34957  -1.19080  -1.07498
 Alpha  occ. eigenvalues --   -0.99791  -0.74451  -0.62416  -0.61210  -0.53938
 Alpha  occ. eigenvalues --   -0.50036  -0.47109  -0.39279  -0.30820  -0.25889
 Alpha  occ. eigenvalues --   -0.22961  -0.21156
 Alpha virt. eigenvalues --    0.02210   0.04268   0.04757   0.05498   0.07711
 Alpha virt. eigenvalues --    0.07819   0.08349   0.09877   0.11846   0.13867
 Alpha virt. eigenvalues --    0.14338   0.15232   0.15738   0.16184   0.17119

  Beta  occ. eigenvalues --  -75.73630 -75.73281 -75.67258 -13.18654 -13.16217
  Beta  occ. eigenvalues --  -13.14733 -13.11095 -13.06197 -13.04821 -13.04121
  Beta  occ. eigenvalues --  -13.01822 -12.98661 -11.50703 -11.42115  -8.07663
  Beta  occ. eigenvalues --   -8.07406  -8.01214  -1.33482  -1.17233  -1.02942
  Beta  occ. eigenvalues --   -0.98977  -0.72606  -0.61982  -0.61212  -0.52247
  Beta  occ. eigenvalues --   -0.48954  -0.47187  -0.38433  -0.25378  -0.23128
  Beta  occ. eigenvalues --   -0.22078
  Beta virt. eigenvalues --    0.01200   0.02871   0.04718   0.04997   0.06584
  Beta virt. eigenvalues --    0.07795   0.08102   0.08824   0.10127   0.12917
  Beta virt. eigenvalues --    0.14285   0.14520   0.15248   0.15887   0.16526

 Mulliken charges and spin densities:
               1          2
     1  S    1.112593   0.951822
     2  C   -2.770863  -0.148537
     3  S    0.812803   0.167417
     4  S    1.333738   0.031869
     5  C   -4.638140  -0.010479
     6  H    1.297438   0.004271
     7  H    1.426217   0.001819
     8  H    1.426213   0.001819
 Sum of Mulliken charges =  -0.00000   1.00000

 Dipole moment (field-independent basis, Debye):
    X=              0.7635    Y=             -0.5710    Z=              0.0001  Tot=              0.9534
                          Isotropic Fermi Contact Couplings
        Atom                 a.u.       MegaHertz       Gauss      10(-4) cm-1
     1  S(33)              0.38232     131.31647      46.85698      43.80246
     2  C(13)             -0.00999     -11.22885      -4.00673      -3.74554
     3  S(33)              0.13947      47.90518      17.09376      15.97945
     4  S(33)             -0.01882      -6.46467      -2.30676      -2.15638
     5  C(13)              0.00893      10.03346       3.58019       3.34680
     6  H(1)               0.00080       3.56490       1.27205       1.18912
     7  H(1)              -0.00005      -0.23882      -0.08522      -0.07966
     8  H(1)              -0.00005      -0.23873      -0.08519      -0.07963

 Normal termination of Gaussian 16 at Wed Apr  9 00:19:32 2025.
