 Gaussian 16, Revision C.01,

 ----------------------------------------------------------------------
 #t hf aug-cc-pvdz symm=none int=(grid=ultrafine) guess=(read,tcheck) s
 table=(opt,rrhf)
 ----------------------------------------------------------------------
 -----
 title
 -----
 Symbolic Z-matrix:
 Charge =  0 Multiplicity = 1

 SCF Done:  E(RHF) =  -1454.39434174     A.U. after   14 cycles
 Normal termination of Gaussian 16 at Wed Apr  9 00:21:38 2025.
 Gaussian 16:  ES64L-G16RevC.01  3-Jul-2019

 ----------------------------------------------------------------------
 #t hf aug-cc-pvdz iop(5/13=1,5/36=2,99/5=2) pseudo=read geom=check gue
 ss=(read,tcheck) scf=(maxcycle=1)
 ----------------------------------------------------------------------
 -----
 title
 -----
 Structure from the checkpoint file:  "BDE49_nonexpt_2630_mol1.chk"
 Charge =  0 Multiplicity = 1

                         Standard orientation:
 ---------------------------------------------------------------------
 Center     Atomic      Atomic             Coordinates (Angstroms)
 Number     Number       Type             X           Y           Z
 ---------------------------------------------------------------------
      1          9           0       -2.338784    0.008131    0.253867
      2         16           0       -1.051713   -0.903632   -0.279103
      3          6           0        0.277973    0.056919    0.450066
      4         17           0        0.399495    1.744314   -0.138102
      5         17           0        1.717944   -0.924440    0.017441
      6          1           0        0.212163    0.105561    1.531688
 ---------------------------------------------------------------------

 SCF Done:  E(RHF) =  -1455.62894788     A.U. after    2 cycles

 The electronic state is 1-A.
 Alpha  occ. eigenvalues --  -99.93328 -99.91939 -75.78950 -29.29173 -13.22977
 Alpha  occ. eigenvalues --  -13.17868 -13.09952 -11.53209 -10.50610 -10.49227
 Alpha  occ. eigenvalues --   -9.70418  -9.69691  -9.69620  -9.69017  -9.68283
 Alpha  occ. eigenvalues --   -9.68258  -8.12943  -1.44261  -1.31140  -1.23469
 Alpha  occ. eigenvalues --   -0.98688  -0.75790  -0.70679  -0.67090  -0.59674
 Alpha  occ. eigenvalues --   -0.55234  -0.53637  -0.51909  -0.48013  -0.42595
 Alpha  occ. eigenvalues --   -0.35470  -0.31887  -0.20627
 Alpha virt. eigenvalues --    0.02202   0.03883   0.06057   0.06566   0.08233
 Alpha virt. eigenvalues --    0.11163   0.12316   0.13140   0.13898   0.14398
 Alpha virt. eigenvalues --    0.15896   0.16322   0.17003   0.17427   0.18744

 Mulliken charges:
               1
     1  F   -0.186246
     2  S    1.749940
     3  C   -4.325655
     4  Cl   0.357400
     5  Cl   0.440386
     6  H    1.964175
 Sum of Mulliken charges =   0.00000

 Dipole moment (field-independent basis, Debye):
    X=             -4.6395    Y=             -0.5528    Z=              0.9137  Tot=              4.7608

 Test job not archived.
 1\1\GINC-SE404\SP\RHF\Aug-CC-pVDZ\C1H1Cl2F1S1\OHZDE\09-Apr-2025\0\\#t
 hf aug-cc-pvdz iop(5/13=1,5/36=2,99/5=2) pseudo=read geom=check guess=
 (read,tcheck) scf=(maxcycle=1)\\title\\0,1\F,0,-2.338784,0.008129,0.25
 3867\S,0,-1.051712,-0.903633,-0.279103\C,0,0.277973,0.056919,0.450066\
 Cl,0,0.399493,1.744314,-0.138102\Cl,0,1.717945,-0.924438,0.017441\H,0,
 0.212163,0.105561,1.531688\\Version=ES64L-G16RevC.01\State=1-A\HF=-145
 5.6289479\RMSD=7.090e-02\Dipole=-1.8253102,-0.2174712,0.3594729\Quadru
 pole=4.4283775,-2.417187,-2.0111905,0.3390992,-0.2032087,0.9683749\PG=

 Normal termination of Gaussian 16 at Wed Apr  9 00:21:40 2025.
