 Gaussian 16, Revision C.01,

 ----------------------------------------------------------------------
 #t hf aug-cc-pvdz symm=none int=(grid=ultrafine) guess=(read,tcheck) s
 table=opt
 ----------------------------------------------------------------------
 -----
 title
 -----
 Symbolic Z-matrix:
 Charge =  0 Multiplicity = 2

 SCF Done:  E(UHF) =  -288.102200483     A.U. after   23 cycles
 Normal termination of Gaussian 16 at Tue Apr  8 23:10:45 2025.
 Gaussian 16:  ES64L-G16RevC.01  3-Jul-2019

 ----------------------------------------------------------------------
 #t hf aug-cc-pvdz iop(5/13=1,5/36=2,99/5=2) pseudo=read geom=check gue
 ss=(read,tcheck) scf=(maxcycle=1)
 ----------------------------------------------------------------------
 -----
 title
 -----
 Structure from the checkpoint file:  "BDE49_expt_618_mol2.chk"
 Charge =  0 Multiplicity = 2

                         Standard orientation:
 ---------------------------------------------------------------------
 Center     Atomic      Atomic             Coordinates (Angstroms)
 Number     Number       Type             X           Y           Z
 ---------------------------------------------------------------------
      1          6           0       -0.575691    0.500679    0.284105
      2          8           0        0.676581    0.429784   -0.400836
      3          8           0        1.482697   -0.455365    0.170033
      4          9           0       -1.379827   -0.517940   -0.132749
      5          1           0       -0.393078    0.406923    1.354216
      6          1           0       -1.008553    1.455114   -0.017688
 ---------------------------------------------------------------------

 SCF Done:  E(UHF) =  -289.182271736     A.U. after    2 cycles

 The electronic state is 2-A.
 Alpha  occ. eigenvalues --  -29.28857 -21.17113 -21.15142 -11.49669  -2.06966
 Alpha  occ. eigenvalues --   -1.42791  -1.09584  -0.75246  -0.73284  -0.64407
 Alpha  occ. eigenvalues --   -0.58046  -0.49565  -0.42188  -0.36659  -0.32599
 Alpha  occ. eigenvalues --   -0.28145  -0.26439
 Alpha virt. eigenvalues --    0.04107   0.05362   0.10155   0.11447   0.13935
 Alpha virt. eigenvalues --    0.15141   0.17612   0.20903   0.21258   0.22210
 Alpha virt. eigenvalues --    0.24874   0.26042   0.27772   0.28615   0.31171

  Beta  occ. eigenvalues --  -29.28840 -21.14572 -21.13173 -11.49714  -2.01851
  Beta  occ. eigenvalues --   -1.34804  -1.07927  -0.74284  -0.73062  -0.63032
  Beta  occ. eigenvalues --   -0.48018  -0.45447  -0.39609  -0.34753  -0.28289
  Beta  occ. eigenvalues --   -0.26988
  Beta virt. eigenvalues --    0.04074   0.05308   0.10166   0.11423   0.12683
  Beta virt. eigenvalues --    0.14368   0.15477   0.17683   0.21131   0.21630
  Beta virt. eigenvalues --    0.23820   0.25982   0.27147   0.28755   0.30406

 Mulliken charges and spin densities:
               1          2
     1  C   -1.755898  -0.015131
     2  O   -1.064249   0.097989
     3  O   -0.268828   0.914472
     4  F    0.427280   0.012092
     5  H    1.418557  -0.008792
     6  H    1.243138  -0.000629
 Sum of Mulliken charges =  -0.00000   1.00000

 Dipole moment (field-independent basis, Debye):
    X=             -1.7913    Y=             -0.6421    Z=              0.0729  Tot=              1.9043
                          Isotropic Fermi Contact Couplings
        Atom                 a.u.       MegaHertz       Gauss      10(-4) cm-1
     1  C(13)             -0.00699      -7.86153      -2.80519      -2.62232
     2  O(17)              0.05367     -32.53750     -11.61019     -10.85334
     3  O(17)              0.19667    -119.22277     -42.54165     -39.76844
     4  F(19)              0.00616      25.92503       9.25070       8.64766
     5  H(1)               0.00011       0.50373       0.17974       0.16803
     6  H(1)              -0.00039      -1.73971      -0.62077      -0.58031
 --------------------------------------------------------
       Center         ----  Spin Dipole Couplings  ----

 Normal termination of Gaussian 16 at Tue Apr  8 23:10:47 2025.
