 Gaussian 16, Revision C.01,

 ----------------------------------------------------------------------
 #t hf aug-cc-pvdz symm=none int=(grid=ultrafine) guess=(read,tcheck) s
 table=(opt,rrhf)
 ----------------------------------------------------------------------
 -----
 title
 -----
 Symbolic Z-matrix:
 Charge =  0 Multiplicity = 1

 SCF Done:  E(RHF) =  -1104.60993865     A.U. after   15 cycles
 Normal termination of Gaussian 16 at Wed Apr  9 00:19:12 2025.
 Gaussian 16:  ES64L-G16RevC.01  3-Jul-2019

 ----------------------------------------------------------------------
 #t hf aug-cc-pvdz iop(5/13=1,5/36=2,99/5=2) pseudo=read geom=check gue
 ss=(read,tcheck) scf=(maxcycle=1)
 ----------------------------------------------------------------------
 -----
 title
 -----
 Structure from the checkpoint file:  "BDE49_nonexpt_2567_mol1.chk"
 Charge =  0 Multiplicity = 1

                         Standard orientation:
 ---------------------------------------------------------------------
 Center     Atomic      Atomic             Coordinates (Angstroms)
 Number     Number       Type             X           Y           Z
 ---------------------------------------------------------------------
      1         17           0        2.707018    0.023202   -0.105989
      2         16           0        0.821205   -0.770642    0.409700
      3          6           0       -0.394379    0.240027   -0.546694
      4          8           0       -0.190870    1.616531   -0.505610
      5          7           0       -1.593895   -0.285812    0.062973
      6          6           0       -2.633462   -0.718334   -0.867700
      7          1           0       -2.197450   -1.346751   -1.645526
      8          1           0       -3.151384    0.128332   -1.343970
      9          1           0       -3.371923   -1.316598   -0.330012
     10          6           0       -2.104361    0.450576    1.215840
     11          1           0       -1.297104    0.652423    1.921086
     12          1           0       -2.842833   -0.166809    1.730331
     13          1           0       -2.576295    1.401593    0.931370
     14          1           0       -0.360325   -0.045087   -1.596107
     15          1           0        0.116160    1.863560    0.374836
 ---------------------------------------------------------------------

 SCF Done:  E(RHF) =  -1106.24649636     A.U. after    2 cycles

 The electronic state is 1-A.
 Alpha  occ. eigenvalues --  -99.89268 -75.73473 -21.09952 -15.73469 -13.17715
 Alpha  occ. eigenvalues --  -13.11331 -13.07585 -11.47813 -11.40717 -11.39951
 Alpha  occ. eigenvalues --  -10.46337  -9.66140  -9.65518  -9.65403  -8.07146
 Alpha  occ. eigenvalues --   -1.76027  -1.43843  -1.31277  -1.12177  -1.05744
 Alpha  occ. eigenvalues --   -0.97294  -0.84214  -0.69616  -0.66920  -0.64816
 Alpha  occ. eigenvalues --   -0.60243  -0.56894  -0.55735  -0.55053  -0.53552
 Alpha  occ. eigenvalues --   -0.52652  -0.51116  -0.50201  -0.42901  -0.33106
 Alpha  occ. eigenvalues --   -0.31298  -0.25811
 Alpha virt. eigenvalues --    0.03115   0.04907   0.05313   0.05692   0.06071
 Alpha virt. eigenvalues --    0.06286   0.06629   0.07394   0.07867   0.09186
 Alpha virt. eigenvalues --    0.11773   0.12320   0.13680   0.14573   0.14830

 Mulliken charges:
               1
     1  Cl  -0.499939
     2  S    0.731121
     3  C    1.414092
     4  O   -3.170870
     5  N   -2.326172
     6  C   -3.536598
     7  H    1.377248
     8  H    1.458678
     9  H    1.412335
    10  C   -3.868231
    11  H    1.487501
    12  H    1.334176
    13  H    1.417791
    14  H    1.886859
    15  H    0.882008
 Sum of Mulliken charges =  -0.00000

 Dipole moment (field-independent basis, Debye):
    X=             -4.5769    Y=             -1.1611    Z=              0.8751  Tot=              4.8022

 Test job not archived.
 1\1\GINC-SE336\SP\RHF\Aug-CC-pVDZ\C3H8Cl1N1O1S1\OHZDE\09-Apr-2025\0\\#
 t hf aug-cc-pvdz iop(5/13=1,5/36=2,99/5=2) pseudo=read geom=check gues
 s=(read,tcheck) scf=(maxcycle=1)\\title\\0,1\Cl,0,2.707018,0.023202,-0
 .105989\S,0,0.821205,-0.770642,0.4097\C,0,-0.394379,0.240027,-0.546694
 \O,0,-0.19087,1.616531,-0.50561\N,0,-1.593895,-0.285812,0.062973\C,0,-
 2.633462,-0.718334,-0.8677\H,0,-2.19745,-1.346751,-1.645526\H,0,-3.151
 384,0.128332,-1.34397\H,0,-3.371923,-1.316598,-0.330012\C,0,-2.104361,
 0.450576,1.21584\H,0,-1.297104,0.652423,1.921086\H,0,-2.842833,-0.1668

 Normal termination of Gaussian 16 at Wed Apr  9 00:19:18 2025.
