 Gaussian 16, Revision C.01,

 ----------------------------------------------------------------------
 #t hf aug-cc-pvdz symm=none int=(grid=ultrafine) guess=(read,tcheck) s
 table=(opt,rrhf)
 ----------------------------------------------------------------------
 -----
 title
 -----
 Symbolic Z-matrix:
 Charge =  0 Multiplicity = 1

 SCF Done:  E(RHF) =  -145.769870200     A.U. after   13 cycles
 Normal termination of Gaussian 16 at Wed Apr  9 00:39:51 2025.
 Gaussian 16:  ES64L-G16RevC.01  3-Jul-2019

 ----------------------------------------------------------------------
 #t hf aug-cc-pvdz iop(5/13=1,5/36=2,99/5=2) pseudo=read geom=check gue
 ss=(read,tcheck) scf=(maxcycle=1)
 ----------------------------------------------------------------------
 -----
 title
 -----
 Structure from the checkpoint file:  "BDE49_nonexpt_61_mol1.chk"
 Charge =  0 Multiplicity = 1

                         Standard orientation:
 ---------------------------------------------------------------------
 Center     Atomic      Atomic             Coordinates (Angstroms)
 Number     Number       Type             X           Y           Z
 ---------------------------------------------------------------------
      1          5           0        1.896272   -0.528780    0.000014
      2          5           0        0.759115    0.689154   -0.000010
      3          7           0       -0.629967    0.605673    0.000001
      4          6           0       -1.447725   -0.600962   -0.000014
      5          1           0       -1.173542    1.457614    0.000022
      6          1           0       -0.798948   -1.478167   -0.000031
      7          1           0       -2.088681   -0.652767   -0.886725
      8          1           0       -2.088672   -0.652795    0.886702
      9          1           0        1.218696    1.805695    0.000063
     10          1           0        2.375270   -0.957588    1.010826
     11          1           0        2.375065   -0.957801   -1.010803
 ---------------------------------------------------------------------

 SCF Done:  E(RHF) =  -146.483380037     A.U. after    2 cycles

 The electronic state is 1-A.
 Alpha  occ. eigenvalues --  -15.71216 -11.39592  -7.58424  -7.56954  -1.37116
 Alpha  occ. eigenvalues --   -1.00261  -0.88108  -0.72023  -0.64049  -0.59626
 Alpha  occ. eigenvalues --   -0.54448  -0.48573  -0.47052  -0.37089  -0.36632
 Alpha virt. eigenvalues --    0.02301   0.02516   0.03153   0.04034   0.06863
 Alpha virt. eigenvalues --    0.07646   0.08189   0.08658   0.08846   0.09081
 Alpha virt. eigenvalues --    0.10096   0.11419   0.13356   0.13474   0.13970

 Mulliken charges:
               1
     1  B    3.914986
     2  B    4.104747
     3  N   -2.634114
     4  C   -2.675601
     5  H    1.140486
     6  H    1.630116
     7  H    1.236098
     8  H    1.236129
     9  H   -3.119828
    10  H   -2.416582
    11  H   -2.416436
 Sum of Mulliken charges =   0.00000

 Dipole moment (field-independent basis, Debye):
    X=             -1.9812    Y=              0.0232    Z=             -0.0000  Tot=              1.9813

 Test job not archived.
 1\1\GINC-SE332\SP\RHF\Aug-CC-pVDZ\C1H7B2N1\OHZDE\09-Apr-2025\0\\#t hf
 aug-cc-pvdz iop(5/13=1,5/36=2,99/5=2) pseudo=read geom=check guess=(re
 ad,tcheck) scf=(maxcycle=1)\\title\\0,1\B,0,1.896272,-0.52878,0.000014
 \B,0,0.759115,0.689154,-0.00001\N,0,-0.629967,0.605673,0.000001\C,0,-1
 .447725,-0.600962,-0.000014\H,0,-1.173542,1.457614,0.000022\H,0,-0.798
 948,-1.478167,-0.000031\H,0,-2.088681,-0.652767,-0.886725\H,0,-2.08867
 2,-0.652795,0.886702\H,0,1.218696,1.805695,0.000063\H,0,2.37527,-0.957
 588,1.010826\H,0,2.375065,-0.957801,-1.010803\\Version=ES64L-G16RevC.0

 Normal termination of Gaussian 16 at Wed Apr  9 00:39:53 2025.
