 Gaussian 16, Revision C.01,

 ----------------------------------------------------------------------
 #t hf aug-cc-pvdz symm=none int=(grid=ultrafine) guess=(read,tcheck) s
 table=(opt,rrhf)
 ----------------------------------------------------------------------
 -----
 title
 -----
 Symbolic Z-matrix:
 Charge =  0 Multiplicity = 1

 SCF Done:  E(RHF) =  -1052.24343566     A.U. after   16 cycles
 Normal termination of Gaussian 16 at Tue Apr  8 23:28:53 2025.
 Gaussian 16:  ES64L-G16RevC.01  3-Jul-2019

 ----------------------------------------------------------------------
 #t hf aug-cc-pvdz iop(5/13=1,5/36=2,99/5=2) pseudo=read geom=check gue
 ss=(read,tcheck) scf=(maxcycle=1)
 ----------------------------------------------------------------------
 -----
 title
 -----
 Structure from the checkpoint file:  "BDE49_nonexpt_1287_mol1.chk"
 Charge =  0 Multiplicity = 1

                         Standard orientation:
 ---------------------------------------------------------------------
 Center     Atomic      Atomic             Coordinates (Angstroms)
 Number     Number       Type             X           Y           Z
 ---------------------------------------------------------------------
      1          6           0       -0.408016    0.073740    0.455945
      2          7           0       -0.850478    1.386995   -0.214771
      3         15           0        1.360773   -0.372565   -0.028529
      4          7           0       -1.338025   -1.013612   -0.124665
      5          6           0       -0.575653    0.201555    1.958860
      6          8           0       -1.092767   -1.369664   -1.270312
      7          8           0        1.670106   -1.691920    0.506125
      8          8           0       -1.918807    1.418773   -0.778839
      9          8           0        2.223660    0.819143    0.544086
     10          8           0       -0.075573    2.326588   -0.082800
     11          8           0       -2.229598   -1.430621    0.574466
     12          1           0        0.061654    1.007134    2.321791
     13          1           0       -0.262743   -0.732131    2.425703
     14          1           0       -1.616134    0.401608    2.212838
     15          8           0        1.411510   -0.114161   -1.595558
     16          1           0        0.808045   -0.708161   -2.070006
     17          1           0        1.910863    1.689467    0.247487
 ---------------------------------------------------------------------

 SCF Done:  E(RHF) =  -1055.45058569     A.U. after    2 cycles

 The electronic state is 1-A.
 Alpha  occ. eigenvalues -- -105.35498 -21.16141 -21.15310 -21.14985 -21.14895
 Alpha  occ. eigenvalues --  -21.14585 -21.13730 -21.06013 -16.05587 -16.04702
 Alpha  occ. eigenvalues --  -11.58224 -11.44744  -2.97998  -2.06701  -2.04845
 Alpha  occ. eigenvalues --   -2.03738  -1.96353  -1.82674  -1.75532  -1.74528
 Alpha  occ. eigenvalues --   -1.60243  -1.43373  -1.31929  -1.27564  -1.09284
 Alpha  occ. eigenvalues --   -1.04045  -0.82359  -0.79644  -0.77638  -0.74724
 Alpha  occ. eigenvalues --   -0.69441  -0.67106  -0.66086  -0.64277  -0.64124
 Alpha  occ. eigenvalues --   -0.60916  -0.60805  -0.56520  -0.48034  -0.46613
 Alpha  occ. eigenvalues --   -0.44495  -0.39935  -0.39514  -0.38020  -0.37731
 Alpha  occ. eigenvalues --   -0.36906  -0.36380  -0.34328  -0.31538  -0.30161
 Alpha  occ. eigenvalues --   -0.18766
 Alpha virt. eigenvalues --    0.03589   0.05640   0.05866   0.06198   0.06561
 Alpha virt. eigenvalues --    0.08398   0.08957   0.09891   0.10926   0.11559
 Alpha virt. eigenvalues --    0.12542   0.13099   0.13729   0.14458   0.14898

 Mulliken charges:
               1
     1  C    0.021721
     2  N    3.517728
     3  P   10.194088
     4  N    3.997148
     5  C   -3.153810
     6  O   -2.880800
     7  O   -3.017574
     8  O   -2.709627
     9  O   -3.148189
    10  O   -2.833846
    11  O   -2.807287
    12  H    1.277498
    13  H    1.126794
    14  H    1.417891
    15  O   -3.091647
    16  H    1.027325
    17  H    1.062586
 Sum of Mulliken charges =   0.00000

 Dipole moment (field-independent basis, Debye):
    X=             -0.0382    Y=              2.5102    Z=             -0.0439  Tot=              2.5109

 Test job not archived.
 1\1\GINC-SE460\SP\RHF\Aug-CC-pVDZ\C2H5N2O7P1\OHZDE\08-Apr-2025\0\\#t h
 f aug-cc-pvdz iop(5/13=1,5/36=2,99/5=2) pseudo=read geom=check guess=(
 read,tcheck) scf=(maxcycle=1)\\title\\0,1\C,0,-0.408016,0.07374,0.4559
 45\N,0,-0.850479,1.386995,-0.214771\P,0,1.360773,-0.372564,-0.028529\N
 ,0,-1.338024,-1.013613,-0.124665\C,0,-0.575653,0.201555,1.95886\O,0,-1
 .092766,-1.369665,-1.270312\O,0,1.670107,-1.691919,0.506125\O,0,-1.918
 808,1.418772,-0.778839\O,0,2.22366,0.819144,0.544086\O,0,-0.075574,2.3
 26588,-0.0828\O,0,-2.229597,-1.430622,0.574466\H,0,0.061653,1.007134,2

 Normal termination of Gaussian 16 at Tue Apr  8 23:29:05 2025.
