 Gaussian 16, Revision C.01,

 ----------------------------------------------------------------------
 #t hf aug-cc-pvdz symm=none int=(grid=ultrafine) guess=(read,tcheck) s
 table=(opt,rrhf)
 ----------------------------------------------------------------------
 -----
 title
 -----
 Symbolic Z-matrix:
 Charge =  0 Multiplicity = 1

 SCF Done:  E(RHF) =  -368.630618873     A.U. after   14 cycles
 Normal termination of Gaussian 16 at Tue Apr  8 22:46:01 2025.
 Gaussian 16:  ES64L-G16RevC.01  3-Jul-2019

 ----------------------------------------------------------------------
 #t hf aug-cc-pvdz iop(5/13=1,5/36=2,99/5=2) pseudo=read geom=check gue
 ss=(read,tcheck) scf=(maxcycle=1)
 ----------------------------------------------------------------------
 -----
 title
 -----
 Structure from the checkpoint file:  "BDE49_expt_1527_mol1.chk"
 Charge =  0 Multiplicity = 1

                         Standard orientation:
 ---------------------------------------------------------------------
 Center     Atomic      Atomic             Coordinates (Angstroms)
 Number     Number       Type             X           Y           Z
 ---------------------------------------------------------------------
      1          6           0       -0.445591   -0.276934    0.000015
      2          6           0        0.505745   -1.301579   -0.000011
      3          6           0       -1.913246   -0.626220    0.000058
      4          6           0       -0.019813    1.050253    0.000025
      5          6           0        1.864233   -1.001744   -0.000021
      6          6           0        2.286917    0.327347   -0.000008
      7          6           0        1.342150    1.349376    0.000012
      8          1           0       -0.757319    1.842266    0.000036
      9          1           0        3.345330    0.561821   -0.000017
     10          1           0        1.662815    2.385233    0.000017
     11          1           0        0.184701   -2.339308   -0.000029
     12          1           0        2.593244   -1.804372   -0.000043
     13          9           0       -2.711315    0.516487   -0.000070
     14          1           0       -2.174650   -1.208410    0.889780
     15          1           0       -2.174654   -1.208618   -0.889527
 ---------------------------------------------------------------------

 SCF Done:  E(RHF) =  -370.270712355     A.U. after    2 cycles

 The electronic state is 1-A.
 Alpha  occ. eigenvalues --  -29.25411 -11.51620 -11.46250 -11.43357 -11.43144
 Alpha  occ. eigenvalues --  -11.40939 -11.40637 -11.36405  -1.36245  -1.19184
 Alpha  occ. eigenvalues --   -1.09447  -1.04393  -0.87129  -0.85012  -0.71752
 Alpha  occ. eigenvalues --   -0.68343  -0.65442  -0.65169  -0.58569  -0.58225
 Alpha  occ. eigenvalues --   -0.54904  -0.49784  -0.46296  -0.44844  -0.36164
 Alpha  occ. eigenvalues --   -0.33348  -0.32828  -0.25160  -0.25025
 Alpha virt. eigenvalues --    0.03477   0.04698   0.05171   0.05925   0.06088
 Alpha virt. eigenvalues --    0.06854   0.07427   0.09609   0.11330   0.11896
 Alpha virt. eigenvalues --    0.12141   0.13631   0.13816   0.13846   0.14390

 Mulliken charges:
               1
     1  C    2.540758
     2  C   -2.069874
     3  C   -2.738472
     4  C   -3.089513
     5  C   -1.307493
     6  C   -2.865152
     7  C   -1.098589
     8  H    1.786752
     9  H    1.525020
    10  H    1.504625
    11  H    1.721162
    12  H    1.480077
    13  F    0.298279
    14  H    1.156211
    15  H    1.156210
 Sum of Mulliken charges =   0.00000

 Dipole moment (field-independent basis, Debye):
    X=             -0.4978    Y=              0.7396    Z=             -0.0001  Tot=              0.8916

 Test job not archived.
 1\1\GINC-SE329\SP\RHF\Aug-CC-pVDZ\C7H7F1\OHZDE\08-Apr-2025\0\\#t hf au
 g-cc-pvdz iop(5/13=1,5/36=2,99/5=2) pseudo=read geom=check guess=(read
 ,tcheck) scf=(maxcycle=1)\\title\\0,1\C,0,0.445591,0.276934,0.000015\C
 ,0,-0.505745,1.301579,-0.000011\C,0,1.913246,0.62622,0.000058\C,0,0.01
 9813,-1.050253,0.000025\C,0,-1.864233,1.001744,-0.000021\C,0,-2.286917
 ,-0.327347,-0.000008\C,0,-1.34215,-1.349376,0.000012\H,0,0.757319,-1.8
 42266,0.000036\H,0,-3.34533,-0.561821,-0.000017\H,0,-1.662815,-2.38523
 3,0.000017\H,0,-0.184701,2.339308,-0.000029\H,0,-2.593244,1.804372,-0.

 Normal termination of Gaussian 16 at Tue Apr  8 22:46:06 2025.
