 Gaussian 16, Revision C.01,

 ----------------------------------------------------------------------
 #t hf aug-cc-pvdz symm=none int=(grid=ultrafine) guess=(read,tcheck) s
 table=(opt,rrhf)
 ----------------------------------------------------------------------
 -----
 title
 -----
 Symbolic Z-matrix:
 Charge =  0 Multiplicity = 1

 SCF Done:  E(RHF) =  -639.432944546     A.U. after   12 cycles
 Normal termination of Gaussian 16 at Wed Apr  9 00:08:42 2025.
 Gaussian 16:  ES64L-G16RevC.01  3-Jul-2019

 ----------------------------------------------------------------------
 #t hf aug-cc-pvdz iop(5/13=1,5/36=2,99/5=2) pseudo=read geom=check gue
 ss=(read,tcheck) scf=(maxcycle=1)
 ----------------------------------------------------------------------
 -----
 title
 -----
 Structure from the checkpoint file:  "BDE49_nonexpt_2224_mol1.chk"
 Charge =  0 Multiplicity = 1

                         Standard orientation:
 ---------------------------------------------------------------------
 Center     Atomic      Atomic             Coordinates (Angstroms)
 Number     Number       Type             X           Y           Z
 ---------------------------------------------------------------------
      1          8           0       -0.359623    0.372274   -0.191237
      2         14           0        0.955160    1.374032   -0.134526
      3          6           0        2.534086    0.490858    0.375779
      4          6           0        2.970405   -0.658165   -0.552225
      5          1           0        2.417565    0.120528    1.403103
      6          1           0        3.325534    1.252130    0.427825
      7          6           0        4.266232   -1.341945   -0.103913
      8          1           0        3.098110   -0.273511   -1.570690
      9          1           0        2.168984   -1.402600   -0.612648
     10          1           0        5.096582   -0.629678   -0.071119
     11          1           0        4.547048   -2.150935   -0.784552
     12          1           0        4.159357   -1.770487    0.897568
     13          6           0       -1.026781   -0.199316    0.934792
     14          6           0       -2.327040   -0.850332    0.481879
     15          1           0       -1.234665    0.580982    1.681237
     16          1           0       -0.380171   -0.949340    1.408292
     17          6           0       -3.339678    0.135635   -0.108769
     18          1           0       -2.766949   -1.366063    1.345201
     19          1           0       -2.086463   -1.622005   -0.258490
     20          6           0       -4.626696   -0.543056   -0.585018
     21          1           0       -2.868784    0.665251   -0.941513
     22          1           0       -3.582720    0.895587    0.644490
     23          1           0       -4.417390   -1.283808   -1.363085
     24          1           0       -5.329428    0.183946   -1.000998
     25          1           0       -5.132568   -1.061073    0.236237
     26          1           0        0.700617    2.483693    0.824040
     27          1           0        1.086919    1.910672   -1.506792
 ---------------------------------------------------------------------

 SCF Done:  E(RHF) =  -641.345337585     A.U. after    2 cycles

 The electronic state is 1-A.
 Alpha  occ. eigenvalues --  -76.21577 -21.03076 -11.44301 -11.41153 -11.40413
 Alpha  occ. eigenvalues --  -11.37431 -11.37083 -11.34244 -11.34009  -5.55446
 Alpha  occ. eigenvalues --   -2.22678  -2.18631  -2.17416  -1.68972  -1.21565
 Alpha  occ. eigenvalues --   -1.20202  -1.05174  -0.99413  -0.90299  -0.84582
 Alpha  occ. eigenvalues --   -0.81934  -0.72071  -0.63998  -0.63650  -0.62041
 Alpha  occ. eigenvalues --   -0.59112  -0.57461  -0.55802  -0.53642  -0.53234
 Alpha  occ. eigenvalues --   -0.51970  -0.49480  -0.47414  -0.46276  -0.45816
 Alpha  occ. eigenvalues --   -0.45101  -0.44263  -0.43544  -0.40140  -0.34874
 Alpha  occ. eigenvalues --   -0.32571
 Alpha virt. eigenvalues --    0.04023   0.04828   0.05044   0.05220   0.05411
 Alpha virt. eigenvalues --    0.05554   0.05742   0.06139   0.06467   0.06767
 Alpha virt. eigenvalues --    0.06904   0.07184   0.08153   0.08220   0.09178

 Mulliken charges:
               1
     1  O   -3.495228
     2  Si   6.598831
     3  C   -4.073154
     4  C   -2.704649
     5  H    1.639964
     6  H    1.387432
     7  C   -3.951171
     8  H    1.499845
     9  H    1.604057
    10  H    1.285827
    11  H    1.151435
    12  H    1.274738
    13  C   -1.800287
    14  C   -2.672582
    15  H    1.783914
    16  H    1.457371
    17  C   -2.870766
    18  H    1.437821
    19  H    1.560698
    20  C   -3.969159
    21  H    1.670680
    22  H    1.432765
    23  H    1.299303
    24  H    1.103697
    25  H    1.308364
    26  H   -1.909423
    27  H   -2.050324
 Sum of Mulliken charges =   0.00000

 Dipole moment (field-independent basis, Debye):
    X=              0.0097    Y=             -0.8699    Z=              0.3167  Tot=              0.9258

 Test job not archived.
 1\1\GINC-SE402\SP\RHF\Aug-CC-pVDZ\C7H18O1Si1\OHZDE\09-Apr-2025\0\\#t h
 f aug-cc-pvdz iop(5/13=1,5/36=2,99/5=2) pseudo=read geom=check guess=(
 read,tcheck) scf=(maxcycle=1)\\title\\0,1\O,0,0.359623,-0.372274,-0.19
 1237\Si,0,-0.95516,-1.374032,-0.134526\C,0,-2.534086,-0.490858,0.37577
 9\C,0,-2.970405,0.658165,-0.552225\H,0,-2.417565,-0.120528,1.403103\H,
 0,-3.325534,-1.25213,0.427825\C,0,-4.266232,1.341945,-0.103913\H,0,-3.
 09811,0.273511,-1.57069\H,0,-2.168984,1.4026,-0.612648\H,0,-5.096582,0
 .629678,-0.071119\H,0,-4.547048,2.150935,-0.784552\H,0,-4.159357,1.770

 Normal termination of Gaussian 16 at Wed Apr  9 00:08:57 2025.
