 Gaussian 16, Revision C.01,

 ----------------------------------------------------------------------
 #t hf aug-cc-pvdz symm=none int=(grid=ultrafine) guess=(read,tcheck) s
 table=(opt,rrhf)
 ----------------------------------------------------------------------
 -----
 title
 -----
 Symbolic Z-matrix:
 Charge =  0 Multiplicity = 1

 SCF Done:  E(RHF) =  -627.089722532     A.U. after   15 cycles
 Normal termination of Gaussian 16 at Tue Apr  8 23:30:49 2025.
 Gaussian 16:  ES64L-G16RevC.01  3-Jul-2019

 ----------------------------------------------------------------------
 #t hf aug-cc-pvdz iop(5/13=1,5/36=2,99/5=2) pseudo=read geom=check gue
 ss=(read,tcheck) scf=(maxcycle=1)
 ----------------------------------------------------------------------
 -----
 title
 -----
 Structure from the checkpoint file:  "BDE49_nonexpt_1343_mol1.chk"
 Charge =  0 Multiplicity = 1

                         Standard orientation:
 ---------------------------------------------------------------------
 Center     Atomic      Atomic             Coordinates (Angstroms)
 Number     Number       Type             X           Y           Z
 ---------------------------------------------------------------------
      1          6           0       -0.103603   -0.210674   -0.065829
      2         15           0       -1.895771   -0.588078   -0.275237
      3          7           0       -2.624207    0.838107    0.316793
      4          1           0       -2.559151    1.076850    1.297309
      5          1           0       -3.530864    1.050451   -0.070334
      6          6           0        0.380022    1.098566   -0.149518
      7          6           0        1.749490    1.351925   -0.084431
      8          6           0        2.653201    0.301743    0.055339
      9          6           0        2.179557   -1.007949    0.132380
     10          6           0        0.812895   -1.261545    0.071245
     11          1           0        0.457974   -2.285877    0.140303
     12          1           0       -0.323624    1.916123   -0.255007
     13          1           0        2.109560    2.373438   -0.143688
     14          1           0        3.717953    0.499927    0.105334
     15          1           0        2.875707   -1.831958    0.245120
     16          1           0       -1.970925   -1.476924    0.836842
 ---------------------------------------------------------------------

 SCF Done:  E(RHF) =  -628.659274410     A.U. after    2 cycles

 The electronic state is 1-A.
 Alpha  occ. eigenvalues -- -105.19024 -15.74507 -11.50818 -11.42554 -11.42227
 Alpha  occ. eigenvalues --  -11.40368 -11.40146 -11.35788  -2.76988  -1.56249
 Alpha  occ. eigenvalues --   -1.50602  -1.44297  -1.32358  -1.17692  -1.08765
 Alpha  occ. eigenvalues --   -1.07018  -0.85955  -0.84262  -0.73679  -0.68320
 Alpha  occ. eigenvalues --   -0.65265  -0.62220  -0.57963  -0.56174  -0.50165
 Alpha  occ. eigenvalues --   -0.49450  -0.44381  -0.41167  -0.33753  -0.32746
 Alpha  occ. eigenvalues --   -0.28329  -0.23509  -0.01325
 Alpha virt. eigenvalues --    0.03901   0.04854   0.05384   0.05874   0.06634
 Alpha virt. eigenvalues --    0.06783   0.07614   0.08317   0.09541   0.10471
 Alpha virt. eigenvalues --    0.11494   0.12056   0.13237   0.13514   0.13951

 Mulliken charges:
               1
     1  C    1.932312
     2  P    3.456547
     3  N   -2.653622
     4  H    0.491268
     5  H    0.626698
     6  C   -3.473435
     7  C   -0.456635
     8  C   -2.674030
     9  C   -0.532462
    10  C   -3.951758
    11  H    1.916503
    12  H    1.726179
    13  H    1.531721
    14  H    1.403728
    15  H    1.442944
    16  H   -0.785960
 Sum of Mulliken charges =   0.00000

 Dipole moment (field-independent basis, Debye):
    X=             -0.1235    Y=              0.5639    Z=              0.6686  Tot=              0.8833

 Test job not archived.
 1\1\GINC-SE195\SP\RHF\Aug-CC-pVDZ\C6H8N1P1\OHZDE\08-Apr-2025\0\\#t hf
 aug-cc-pvdz iop(5/13=1,5/36=2,99/5=2) pseudo=read geom=check guess=(re
 ad,tcheck) scf=(maxcycle=1)\\title\\0,1\C,0,-0.103603,-0.210674,-0.065
 829\P,0,-1.895771,-0.588078,-0.275237\N,0,-2.624207,0.838106,0.316793\
 H,0,-2.559151,1.076849,1.297309\H,0,-3.530864,1.05045,-0.070334\C,0,0.
 380022,1.098566,-0.149518\C,0,1.74949,1.351925,-0.084431\C,0,2.653201,
 0.301743,0.055339\C,0,2.179557,-1.007949,0.13238\C,0,0.812895,-1.26154
 5,0.071245\H,0,0.457974,-2.285877,0.140303\H,0,-0.323625,1.916123,-0.2

 Normal termination of Gaussian 16 at Tue Apr  8 23:30:56 2025.
