 Gaussian 16, Revision C.01,

 ----------------------------------------------------------------------
 #t hf aug-cc-pvdz symm=none int=(grid=ultrafine) guess=(read,tcheck) s
 table=(opt,rrhf)
 ----------------------------------------------------------------------
 -----
 title
 -----
 Symbolic Z-matrix:
 Charge =  0 Multiplicity = 1

 SCF Done:  E(RHF) =  -270.055892092     A.U. after   13 cycles

 1\1\GINC-SE424\Stability\RHF\Aug-CC-pVDZ\C5H10O1\OHZDE\08-Apr-2025\0\\
 #t hf aug-cc-pvdz symm=none int=(grid=ultrafine) guess=(read,tcheck) s
 table=(opt,rrhf)\\title\\0,1\C,0,0.839651,0.8374,0.000012\C,0,2.21667,
 0.218679,0.000021\O,0,2.442837,-0.964824,-0.000028\H,0,3.054241,0.9532
 01,-0.000032\C,0,-0.313125,-0.164065,0.000008\H,0,0.789245,1.508892,-0
 .869964\H,0,0.789238,1.508894,0.869986\C,0,-1.691866,0.504773,0.\H,0,-
 0.217399,-0.81931,0.872348\H,0,-0.217391,-0.819314,-0.872327\C,0,-2.84
 4357,-0.502775,-0.000003\H,0,-1.779218,1.159148,-0.876299\H,0,-1.77922

 Normal termination of Gaussian 16 at Tue Apr  8 22:36:45 2025.
 Gaussian 16:  ES64L-G16RevC.01  3-Jul-2019

 ----------------------------------------------------------------------
 #t hf aug-cc-pvdz iop(5/13=1,5/36=2,99/5=2) pseudo=read geom=check gue
 ss=(read,tcheck) scf=(maxcycle=1)
 ----------------------------------------------------------------------
 -----
 title
 -----
 Structure from the checkpoint file:  "BDE49_expt_1085_mol1.chk"
 Charge =  0 Multiplicity = 1

                         Standard orientation:
 ---------------------------------------------------------------------
 Center     Atomic      Atomic             Coordinates (Angstroms)
 Number     Number       Type             X           Y           Z
 ---------------------------------------------------------------------
      1          6           0        0.839651    0.837400    0.000012
      2          6           0        2.216670    0.218679    0.000021
      3          8           0        2.442837   -0.964824   -0.000028
      4          1           0        3.054241    0.953201   -0.000032
      5          6           0       -0.313125   -0.164065    0.000008
      6          1           0        0.789245    1.508892   -0.869964
      7          1           0        0.789238    1.508894    0.869986
      8          6           0       -1.691866    0.504773    0.000000
      9          1           0       -0.217399   -0.819310    0.872348
     10          1           0       -0.217391   -0.819314   -0.872327
     11          6           0       -2.844357   -0.502775   -0.000003
     12          1           0       -1.779218    1.159148   -0.876299
     13          1           0       -1.779226    1.159152    0.876296
     14          1           0       -2.804706   -1.148601   -0.882634
     15          1           0       -3.814596    0.001053   -0.000009
     16          1           0       -2.804715   -1.148597    0.882631
 ---------------------------------------------------------------------

 SCF Done:  E(RHF) =  -271.353334716     A.U. after    2 cycles

 The electronic state is 1-A.
 Alpha  occ. eigenvalues --  -21.06096 -11.48700 -11.42444 -11.40933 -11.37731
 Alpha  occ. eigenvalues --  -11.35106  -1.70789  -1.24997  -1.10860  -0.96363
 Alpha  occ. eigenvalues --   -0.84832  -0.78820  -0.66048  -0.64821  -0.59221
 Alpha  occ. eigenvalues --   -0.58131  -0.54555  -0.51076  -0.49184  -0.46084
 Alpha  occ. eigenvalues --   -0.45425  -0.43528  -0.42320  -0.29153
 Alpha virt. eigenvalues --    0.03787   0.04647   0.05121   0.05403   0.06153
 Alpha virt. eigenvalues --    0.06205   0.07286   0.07290   0.08090   0.09356
 Alpha virt. eigenvalues --    0.10135   0.11865   0.13099   0.13681   0.14594

 Mulliken charges:
               1
     1  C   -2.960123
     2  C    1.099475
     3  O   -2.776299
     4  H    1.317405
     5  C   -2.252950
     6  H    1.504110
     7  H    1.504139
     8  C   -2.833966
     9  H    1.560183
    10  H    1.560197
    11  C   -4.170461
    12  H    1.404668
    13  H    1.404660
    14  H    1.277991
    15  H    1.082983
    16  H    1.277988
 Sum of Mulliken charges =  -0.00000

 Dipole moment (field-independent basis, Debye):
    X=             -0.7999    Y=              1.0816    Z=             -0.0000  Tot=              1.3453

 Test job not archived.
 1\1\GINC-SE424\SP\RHF\Aug-CC-pVDZ\C5H10O1\OHZDE\08-Apr-2025\0\\#t hf a
 ug-cc-pvdz iop(5/13=1,5/36=2,99/5=2) pseudo=read geom=check guess=(rea
 d,tcheck) scf=(maxcycle=1)\\title\\0,1\C,0,0.839651,0.8374,0.000012\C,
 0,2.21667,0.218679,0.000021\O,0,2.442837,-0.964824,-0.000028\H,0,3.054
 241,0.953201,-0.000032\C,0,-0.313125,-0.164065,0.000008\H,0,0.789245,1
 .508892,-0.869964\H,0,0.789238,1.508894,0.869986\C,0,-1.691866,0.50477
 3,0.\H,0,-0.217399,-0.81931,0.872348\H,0,-0.217391,-0.819314,-0.872327
 \C,0,-2.844357,-0.502775,-0.000003\H,0,-1.779218,1.159148,-0.876299\H,

 Normal termination of Gaussian 16 at Tue Apr  8 22:36:49 2025.
