 Gaussian 16, Revision C.01,

 ----------------------------------------------------------------------
 #t hf aug-cc-pvdz symm=none int=(grid=ultrafine) guess=(read,tcheck) s
 table=(opt,rrhf)
 ----------------------------------------------------------------------
 -----
 title
 -----
 Symbolic Z-matrix:
 Charge =  0 Multiplicity = 1

 SCF Done:  E(RHF) =  -705.648295320     A.U. after   15 cycles
 Normal termination of Gaussian 16 at Tue Apr  8 22:52:43 2025.
 Gaussian 16:  ES64L-G16RevC.01  3-Jul-2019

 ----------------------------------------------------------------------
 #t hf aug-cc-pvdz iop(5/13=1,5/36=2,99/5=2) pseudo=read geom=check gue
 ss=(read,tcheck) scf=(maxcycle=1)
 ----------------------------------------------------------------------
 -----
 title
 -----
 Structure from the checkpoint file:  "BDE49_expt_1737_mol1.chk"
 Charge =  0 Multiplicity = 1

                         Standard orientation:
 ---------------------------------------------------------------------
 Center     Atomic      Atomic             Coordinates (Angstroms)
 Number     Number       Type             X           Y           Z
 ---------------------------------------------------------------------
      1          6           0        2.236186   -0.054273    0.000003
      2          6           0        1.460632   -1.207686    0.000004
      3          7           0        0.120977   -1.193843   -0.000003
      4          6           0        1.584285    1.178098    0.000003
      5          6           0        0.195697    1.209920   -0.000002
      6          6           0       -0.467783   -0.017177   -0.000010
      7          1           0        3.316963   -0.120192    0.000006
      8          1           0        1.921852   -2.190348    0.000004
      9          1           0        2.148097    2.103881    0.000006
     10          1           0       -0.357880    2.138774    0.000000
     11         17           0       -2.231175   -0.013441    0.000001
 ---------------------------------------------------------------------

 SCF Done:  E(RHF) =  -707.046660036     A.U. after    2 cycles

 The electronic state is 1-A.
 Alpha  occ. eigenvalues --  -99.89416 -15.75614 -11.50712 -11.48544 -11.45622
 Alpha  occ. eigenvalues --  -11.42959 -11.39678 -10.46782  -9.66769  -9.65893
 Alpha  occ. eigenvalues --   -9.65731  -1.48963  -1.31261  -1.20995  -1.10902
 Alpha  occ. eigenvalues --   -0.91541  -0.89304  -0.74565  -0.67355  -0.64339
 Alpha  occ. eigenvalues --   -0.60976  -0.59808  -0.57572  -0.51129  -0.50072
 Alpha  occ. eigenvalues --   -0.49916  -0.38603  -0.38347  -0.35233
 Alpha virt. eigenvalues --    0.02841   0.04866   0.05147   0.06068   0.08173
 Alpha virt. eigenvalues --    0.09159   0.09464   0.09973   0.11335   0.12492
 Alpha virt. eigenvalues --    0.12669   0.13399   0.13891   0.14008   0.14094

 Mulliken charges:
               1
     1  C   -0.844568
     2  C   -1.016255
     3  N   -3.155389
     4  C    0.927283
     5  C   -0.070962
     6  C   -1.541490
     7  H    1.431349
     8  H    1.552817
     9  H    1.543940
    10  H    1.579803
    11  Cl  -0.406528
 Sum of Mulliken charges =   0.00000

 Dipole moment (field-independent basis, Debye):
    X=              3.3691    Y=              1.5067    Z=              0.0000  Tot=              3.6906

 Test job not archived.
 1\1\GINC-SE166\SP\RHF\Aug-CC-pVDZ\C5H4Cl1N1\OHZDE\08-Apr-2025\0\\#t hf
  aug-cc-pvdz iop(5/13=1,5/36=2,99/5=2) pseudo=read geom=check guess=(r
 ead,tcheck) scf=(maxcycle=1)\\title\\0,1\C,0,2.236186,-0.054273,0.0000
 03\C,0,1.460632,-1.207686,0.000004\N,0,0.120977,-1.193843,-0.000003\C,
 0,1.584285,1.178098,0.000003\C,0,0.195697,1.20992,-0.000002\C,0,-0.467
 783,-0.017177,-0.00001\H,0,3.316963,-0.120191,0.000006\H,0,1.921852,-2
 .190348,0.000004\H,0,2.148097,2.103881,0.000006\H,0,-0.35788,2.138774,
 0.\Cl,0,-2.231175,-0.013442,0.000001\\Version=ES64L-G16RevC.01\State=1

 Normal termination of Gaussian 16 at Tue Apr  8 22:52:47 2025.
