 Gaussian 16, Revision C.01,

 ----------------------------------------------------------------------
 #t hf aug-cc-pvdz symm=none int=(grid=ultrafine) guess=(read,tcheck) s
 table=opt
 ----------------------------------------------------------------------
 -----
 title
 -----
 Symbolic Z-matrix:
 Charge =  0 Multiplicity = 2

 SCF Done:  E(UHF) =  -464.125712013     A.U. after   24 cycles
 Normal termination of Gaussian 16 at Wed Apr  9 00:34:27 2025.
 Gaussian 16:  ES64L-G16RevC.01  3-Jul-2019

 ----------------------------------------------------------------------
 #t hf aug-cc-pvdz iop(5/13=1,5/36=2,99/5=2) pseudo=read geom=check gue
 ss=(read,tcheck) scf=(maxcycle=1)
 ----------------------------------------------------------------------
 -----
 title
 -----
 Structure from the checkpoint file:  "BDE49_nonexpt_413_mol2.chk"
 Charge =  0 Multiplicity = 2

                         Standard orientation:
 ---------------------------------------------------------------------
 Center     Atomic      Atomic             Coordinates (Angstroms)
 Number     Number       Type             X           Y           Z
 ---------------------------------------------------------------------
      1          9           0       -3.107805   -0.792355    0.021305
      2          5           0       -2.135103   -0.166914   -0.573494
      3          6           0       -0.820425    0.405949    0.076297
      4          8           0       -0.759457    1.493367    0.576678
      5          8           0        0.245548   -0.470927   -0.063440
      6          6           0        1.582412   -0.022072   -0.130527
      7          8           0        1.880841    1.064883   -0.505804
      8          6           0        2.499373   -1.134204    0.289971
      9          1           0        2.273813   -2.041065   -0.274445
     10          1           0        2.336280   -1.357394    1.347419
     11          1           0        3.532056   -0.832398    0.128834
 ---------------------------------------------------------------------

 SCF Done:  E(UHF) =  -465.956905091     A.U. after    2 cycles

 The electronic state is 2-A.
 Alpha  occ. eigenvalues --  -29.29888 -21.12526 -21.09278 -21.08247 -11.55304
 Alpha  occ. eigenvalues --  -11.51219 -11.41458  -7.72674  -1.88593  -1.74126
 Alpha  occ. eigenvalues --   -1.67722  -1.14019  -1.07201  -0.89085  -0.75553
 Alpha  occ. eigenvalues --   -0.67134  -0.64938  -0.63498  -0.59966  -0.56628
 Alpha  occ. eigenvalues --   -0.55172  -0.50907  -0.50315  -0.47103  -0.45117
 Alpha  occ. eigenvalues --   -0.41433  -0.35489  -0.34445  -0.31650  -0.22796
 Alpha virt. eigenvalues --    0.02992   0.04013   0.04176   0.05640   0.06151
 Alpha virt. eigenvalues --    0.06523   0.08005   0.10706   0.11978   0.12357
 Alpha virt. eigenvalues --    0.12746   0.13407   0.13771   0.14871   0.15211

  Beta  occ. eigenvalues --  -29.29596 -21.12569 -21.08742 -21.08254 -11.55288
  Beta  occ. eigenvalues --  -11.51132 -11.41457  -7.70742  -1.88524  -1.73615
  Beta  occ. eigenvalues --   -1.67279  -1.13823  -1.03785  -0.88365  -0.74892
  Beta  occ. eigenvalues --   -0.67008  -0.64907  -0.63304  -0.59706  -0.55719
  Beta  occ. eigenvalues --   -0.53634  -0.50166  -0.46788  -0.45220  -0.44213
  Beta  occ. eigenvalues --   -0.40115  -0.34820  -0.33256  -0.29054
  Beta virt. eigenvalues --    0.02820   0.03729   0.04179   0.05380   0.06080
  Beta virt. eigenvalues --    0.06501   0.07091   0.09091   0.11187   0.12455
  Beta virt. eigenvalues --    0.13110   0.13554   0.14078   0.14710   0.14891

 Mulliken charges and spin densities:
               1          2
     1  F   -0.420353  -0.073503
     2  B    1.075883   1.017693
     3  C    3.300544  -0.200658
     4  O   -2.534086   0.200660
     5  O   -3.113535   0.032483
     6  C    4.970940   0.015291
     7  O   -2.940585   0.001544
     8  C   -4.162042   0.009679
     9  H    1.301797  -0.001011
    10  H    1.313297  -0.001286
    11  H    1.208141  -0.000893
 Sum of Mulliken charges =   0.00000   1.00000

 Dipole moment (field-independent basis, Debye):
    X=             -2.0895    Y=             -3.3461    Z=              1.9341  Tot=              4.3935
                          Isotropic Fermi Contact Couplings
        Atom                 a.u.       MegaHertz       Gauss      10(-4) cm-1
     1  F(19)              0.04685     197.10885      70.33334      65.74843
     2  B(11)              0.18878     270.78637      96.62331      90.32461
     3  C(13)              0.05736      64.47896      23.00770      21.50787
     4  O(17)              0.02929     -17.75453      -6.33526      -5.92227
     5  O(17)              0.00060      -0.36482      -0.13018      -0.12169
     6  C(13)              0.00466       5.24165       1.87035       1.74843
     7  O(17)             -0.00024       0.14249       0.05084       0.04753
     8  C(13)              0.00073       0.82323       0.29375       0.27460

 Normal termination of Gaussian 16 at Wed Apr  9 00:34:32 2025.
