 Gaussian 16, Revision C.01,

 ----------------------------------------------------------------------
 #t hf aug-cc-pvdz symm=none int=(grid=ultrafine) guess=(read,tcheck) s
 table=(opt,rrhf)
 ----------------------------------------------------------------------
 -----
 title
 -----
 Symbolic Z-matrix:
 Charge =  0 Multiplicity = 1

 SCF Done:  E(RHF) =  -357.444392144     A.U. after   12 cycles
 Normal termination of Gaussian 16 at Wed Apr  9 00:30:49 2025.
 Gaussian 16:  ES64L-G16RevC.01  3-Jul-2019

 ----------------------------------------------------------------------
 #t hf aug-cc-pvdz iop(5/13=1,5/36=2,99/5=2) pseudo=read geom=check gue
 ss=(read,tcheck) scf=(maxcycle=1)
 ----------------------------------------------------------------------
 -----
 title
 -----
 Structure from the checkpoint file:  "BDE49_nonexpt_353_mol1.chk"
 Charge =  0 Multiplicity = 1

                         Standard orientation:
 ---------------------------------------------------------------------
 Center     Atomic      Atomic             Coordinates (Angstroms)
 Number     Number       Type             X           Y           Z
 ---------------------------------------------------------------------
      1          9           0       -1.483450    1.141514   -0.000009
      2          9           0       -1.483450   -1.141514   -0.000007
      3          7           0        0.612942    0.000000    0.000006
      4          5           0       -0.780926    0.000000    0.000009
      5          6           0        1.393084   -1.229455    0.000005
      6          1           0        2.036055   -1.284700   -0.886870
      7          1           0        0.727447   -2.090959    0.000007
      8          1           0        2.036059   -1.284698    0.886877
      9          6           0        1.393084    1.229455    0.000003
     10          1           0        0.727447    2.090959    0.000002
     11          1           0        2.036056    1.284698   -0.886872
     12          1           0        2.036058    1.284700    0.886876
 ---------------------------------------------------------------------

 SCF Done:  E(RHF) =  -358.879532485     A.U. after    2 cycles

 The electronic state is 1-A.
 Alpha  occ. eigenvalues --  -29.23973 -29.23872 -15.70609 -11.40550 -11.39652
 Alpha  occ. eigenvalues --   -7.68958  -1.45985  -1.11981  -1.05805  -0.88144
 Alpha  occ. eigenvalues --   -0.74563  -0.67736  -0.65210  -0.59930  -0.55580
 Alpha  occ. eigenvalues --   -0.55534  -0.53604  -0.49995  -0.42740  -0.42349
 Alpha  occ. eigenvalues --   -0.32310  -0.31170  -0.30144  -0.26965
 Alpha virt. eigenvalues --    0.02436   0.04302   0.04401   0.04665   0.06787
 Alpha virt. eigenvalues --    0.07301   0.07391   0.07583   0.08254   0.09561
 Alpha virt. eigenvalues --    0.11659   0.13632   0.13929   0.16116   0.16738

 Mulliken charges:
               1
     1  F   -0.789655
     2  F   -0.789655
     3  N   -2.992088
     4  B    1.413375
     5  C   -2.882364
     6  H    1.389523
     7  H    1.682328
     8  H    1.389525
     9  C   -2.882363
    10  H    1.682328
    11  H    1.389523
    12  H    1.389524
 Sum of Mulliken charges =  -0.00000

 Dipole moment (field-independent basis, Debye):
    X=             -1.4865    Y=             -0.0000    Z=             -0.0000  Tot=              1.4865

 Test job not archived.
 1\1\GINC-SE459\SP\RHF\Aug-CC-pVDZ\C2H6B1F2N1\OHZDE\09-Apr-2025\0\\#t h
 f aug-cc-pvdz iop(5/13=1,5/36=2,99/5=2) pseudo=read geom=check guess=(
 read,tcheck) scf=(maxcycle=1)\\title\\0,1\F,0,-1.48345,1.141514,-0.000
 009\F,0,-1.48345,-1.141514,-0.000007\N,0,0.612942,0.,0.000006\B,0,-0.7
 80926,0.,0.000009\C,0,1.393084,-1.229455,0.000005\H,0,2.036055,-1.2847
 ,-0.88687\H,0,0.727447,-2.090959,0.000007\H,0,2.036059,-1.284698,0.886
 877\C,0,1.393084,1.229455,0.000003\H,0,0.727447,2.090959,0.000002\H,0,
 2.036056,1.284698,-0.886872\H,0,2.036058,1.2847,0.886876\\Version=ES64

 Normal termination of Gaussian 16 at Wed Apr  9 00:30:52 2025.
