 Gaussian 16, Revision C.01,

 ----------------------------------------------------------------------
 #t hf aug-cc-pvdz symm=none int=(grid=ultrafine) guess=(read,tcheck) s
 table=(opt,rrhf)
 ----------------------------------------------------------------------
 -----
 title
 -----
 Symbolic Z-matrix:
 Charge =  0 Multiplicity = 1

 SCF Done:  E(RHF) =  -441.920262835     A.U. after   15 cycles
 Normal termination of Gaussian 16 at Tue Apr  8 23:12:59 2025.
 Gaussian 16:  ES64L-G16RevC.01  3-Jul-2019

 ----------------------------------------------------------------------
 #t hf aug-cc-pvdz iop(5/13=1,5/36=2,99/5=2) pseudo=read geom=check gue
 ss=(read,tcheck) scf=(maxcycle=1)
 ----------------------------------------------------------------------
 -----
 title
 -----
 Structure from the checkpoint file:  "BDE49_expt_468_mol1.chk"
 Charge =  0 Multiplicity = 1

                         Standard orientation:
 ---------------------------------------------------------------------
 Center     Atomic      Atomic             Coordinates (Angstroms)
 Number     Number       Type             X           Y           Z
 ---------------------------------------------------------------------
      1          6           0       -0.384483    1.212624   -0.002849
      2          6           0       -1.777215    1.206209   -0.005732
      3          6           0       -2.490337    0.002806   -0.006554
      4          6           0        0.363493    0.031073   -0.001323
      5          6           0       -0.365849   -1.167551   -0.003044
      6          6           0       -1.753445   -1.190725   -0.006493
      7          1           0        0.114862    2.173012   -0.000667
      8          1           0       -2.316979    2.148444   -0.011641
      9          7           0       -3.886621   -0.013425   -0.071956
     10          1           0       -4.337658    0.819058    0.278842
     11          1           0       -4.319129   -0.850791    0.290365
     12          1           0       -2.276197   -2.142494   -0.013655
     13          1           0        0.157958   -2.117263   -0.001127
     14          6           0        1.901720    0.003296    0.002490
     15          6           0        2.509627    1.417907    0.002263
     16          1           0        2.215815    1.985643   -0.884861
     17          1           0        3.600978    1.349595    0.004180
     18          1           0        2.212920    1.987365    0.887370
     19          6           0        2.410870   -0.737048   -1.256285
     20          1           0        2.075857   -0.231677   -2.166127
     21          1           0        2.047532   -1.766689   -1.294417
     22          1           0        3.505166   -0.768663   -1.266060
     23          6           0        2.405231   -0.734361    1.265097
     24          1           0        2.041306   -1.763793    1.303935
     25          1           0        2.066794   -0.226661    2.172461
     26          1           0        3.499454   -0.766497    1.279682
 ---------------------------------------------------------------------

 SCF Done:  E(RHF) =  -444.126905037     A.U. after    2 cycles

 The electronic state is 1-A.
 Alpha  occ. eigenvalues --  -15.75286 -11.51363 -11.44629 -11.43523 -11.43056
 Alpha  occ. eigenvalues --  -11.41287 -11.39689 -11.38830 -11.37943 -11.37343
 Alpha  occ. eigenvalues --  -11.34898  -1.40986  -1.30936  -1.20396  -1.08571
 Alpha  occ. eigenvalues --   -1.03552  -0.99809  -0.99789  -0.86352  -0.86114
 Alpha  occ. eigenvalues --   -0.77269  -0.69459  -0.66885  -0.64508  -0.60764
 Alpha  occ. eigenvalues --   -0.59940  -0.59613  -0.56913  -0.54577  -0.54227
 Alpha  occ. eigenvalues --   -0.52607  -0.50835  -0.50586  -0.50096  -0.44996
 Alpha  occ. eigenvalues --   -0.44555  -0.40505  -0.40294  -0.39435  -0.32394
 Alpha  occ. eigenvalues --   -0.26267
 Alpha virt. eigenvalues --    0.03624   0.04715   0.04841   0.05282   0.05646
 Alpha virt. eigenvalues --    0.05755   0.06440   0.06591   0.06763   0.06966
 Alpha virt. eigenvalues --    0.08233   0.09094   0.09504   0.09643   0.10759

 Mulliken charges:
               1
     1  C   -1.522626
     2  C   -2.331289
     3  C   -0.294463
     4  C    5.964271
     5  C   -1.235873
     6  C   -3.677300
     7  H    1.884315
     8  H    1.694385
     9  N   -3.971330
    10  H    0.632160
    11  H    0.621403
    12  H    1.670575
    13  H    2.123946
    14  C    2.529489
    15  C   -5.235619
    16  H    1.321347
    17  H    0.960009
    18  H    1.325735
    19  C   -5.080938
    20  H    1.240583
    21  H    1.350295
    22  H    1.265479
    23  C   -5.088314
    24  H    1.343879
    25  H    1.236686
    26  H    1.273195
 Sum of Mulliken charges =  -0.00000

 Dipole moment (field-independent basis, Debye):
    X=             -1.0035    Y=              0.0031    Z=              0.7860  Tot=              1.2747

 Test job not archived.
 1\1\GINC-SE402\SP\RHF\Aug-CC-pVDZ\C10H15N1\OHZDE\08-Apr-2025\0\\#t hf
 aug-cc-pvdz iop(5/13=1,5/36=2,99/5=2) pseudo=read geom=check guess=(re
 ad,tcheck) scf=(maxcycle=1)\\title\\0,1\C,0,-0.384483,1.212624,-0.0028
 49\C,0,-1.777215,1.206209,-0.005732\C,0,-2.490337,0.002806,-0.006554\C
 ,0,0.363493,0.031073,-0.001323\C,0,-0.365849,-1.167551,-0.003044\C,0,-
 1.753445,-1.190725,-0.006493\H,0,0.114862,2.173012,-0.000667\H,0,-2.31
 6979,2.148444,-0.011641\N,0,-3.886621,-0.013425,-0.071956\H,0,-4.33765
 8,0.819058,0.278842\H,0,-4.319129,-0.850791,0.290365\H,0,-2.276197,-2.

 Normal termination of Gaussian 16 at Tue Apr  8 23:13:19 2025.
