 Gaussian 16, Revision C.01,

 ----------------------------------------------------------------------
 #t hf aug-cc-pvdz symm=none int=(grid=ultrafine) guess=(read,tcheck) s
 table=(opt,rrhf)
 ----------------------------------------------------------------------
 -----
 title
 -----
 Symbolic Z-matrix:
 Charge =  0 Multiplicity = 1

 SCF Done:  E(RHF) =  -672.462691339     A.U. after   10 cycles
 Normal termination of Gaussian 16 at Tue Apr  8 22:45:36 2025.
 Gaussian 16:  ES64L-G16RevC.01  3-Jul-2019

 ----------------------------------------------------------------------
 #t hf aug-cc-pvdz iop(5/13=1,5/36=2,99/5=2) pseudo=read geom=check gue
 ss=(read,tcheck) scf=(maxcycle=1)
 ----------------------------------------------------------------------
 -----
 title
 -----
 Structure from the checkpoint file:  "BDE49_expt_1510_mol1.chk"
 Charge =  0 Multiplicity = 1

                         Standard orientation:
 ---------------------------------------------------------------------
 Center     Atomic      Atomic             Coordinates (Angstroms)
 Number     Number       Type             X           Y           Z
 ---------------------------------------------------------------------
      1          6           0        0.774912    0.000003   -0.000003
      2          9           0        1.229651    1.225150    0.276873
      3          6           0       -0.774912   -0.000003    0.000003
      4          9           0        1.229634   -0.852363    0.922566
      5          9           0       -1.229616    0.372788    1.199461
      6          9           0       -1.229634    0.852363   -0.922566
      7          9           0       -1.229651   -1.225150   -0.276873
      8          9           0        1.229616   -0.372788   -1.199461
 ---------------------------------------------------------------------

 SCF Done:  E(RHF) =  -674.794053147     A.U. after    2 cycles

 The electronic state is 1-AG.
 Alpha  occ. eigenvalues --  -29.34790 -29.34790 -29.34770 -29.34770 -29.34713
 Alpha  occ. eigenvalues --  -29.34711 -11.66836 -11.60266  -1.54923  -1.35175
 Alpha  occ. eigenvalues --   -0.99499  -0.99499  -0.89905  -0.86184  -0.86184
 Alpha  occ. eigenvalues --   -0.52562  -0.50939  -0.49168  -0.49168  -0.46065
 Alpha  occ. eigenvalues --   -0.46065  -0.44663  -0.39503  -0.39502  -0.39216
 Alpha  occ. eigenvalues --   -0.39216  -0.32121  -0.32121  -0.27416  -0.26701
 Alpha  occ. eigenvalues --   -0.25925  -0.25925  -0.23122
 Alpha virt. eigenvalues --    0.09837   0.10708   0.12384   0.12384   0.12568
 Alpha virt. eigenvalues --    0.12568   0.15095   0.19544   0.19544   0.20971
 Alpha virt. eigenvalues --    0.23857   0.24173   0.24173   0.24793   0.28333

 Mulliken charges:
               1
     1  C   -1.735590
     2  F    0.578532
     3  C   -1.735590
     4  F    0.578527
     5  F    0.578531
     6  F    0.578527
     7  F    0.578532
     8  F    0.578531
 Sum of Mulliken charges =  -0.00000

 Dipole moment (field-independent basis, Debye):
    X=              0.0000    Y=             -0.0000    Z=              0.0000  Tot=              0.0000

 Test job not archived.
 1\1\GINC-SE125\SP\RHF\Aug-CC-pVDZ\C2F6\OHZDE\08-Apr-2025\0\\#t hf aug-
 cc-pvdz iop(5/13=1,5/36=2,99/5=2) pseudo=read geom=check guess=(read,t
 check) scf=(maxcycle=1)\\title\\0,1\C,0,0.774912,0.000003,-0.000003\F,
 0,1.229651,1.22515,0.276873\C,0,-0.774912,-0.000003,0.000003\F,0,1.229
 634,-0.852363,0.922566\F,0,-1.229616,0.372788,1.199461\F,0,-1.229634,0
 .852363,-0.922566\F,0,-1.229651,-1.22515,-0.276873\F,0,1.229616,-0.372
 788,-1.199461\\Version=ES64L-G16RevC.01\State=1-AG\HF=-674.7940531\RMS
 D=1.678e-01\Dipole=0.,0.,0.\Quadrupole=0.0177324,-0.0088636,-0.0088688

 Normal termination of Gaussian 16 at Tue Apr  8 22:45:39 2025.
