 Gaussian 16, Revision C.01,

 ----------------------------------------------------------------------
 #t hf aug-cc-pvdz symm=none int=(grid=ultrafine) guess=(read,tcheck) s
 table=(opt,rrhf)
 ----------------------------------------------------------------------
 -----
 title
 -----
 Symbolic Z-matrix:
 Charge =  0 Multiplicity = 1

 SCF Done:  E(RHF) =  -325.124640470     A.U. after   13 cycles
 Normal termination of Gaussian 16 at Tue Apr  8 23:05:18 2025.
 Gaussian 16:  ES64L-G16RevC.01  3-Jul-2019

 ----------------------------------------------------------------------
 #t hf aug-cc-pvdz iop(5/13=1,5/36=2,99/5=2) pseudo=read geom=check gue
 ss=(read,tcheck) scf=(maxcycle=1)
 ----------------------------------------------------------------------
 -----
 title
 -----
 Structure from the checkpoint file:  "BDE49_expt_357_mol1.chk"
 Charge =  0 Multiplicity = 1

                         Standard orientation:
 ---------------------------------------------------------------------
 Center     Atomic      Atomic             Coordinates (Angstroms)
 Number     Number       Type             X           Y           Z
 ---------------------------------------------------------------------
      1          7           0        0.122391    0.154802   -0.457601
      2          6           0       -1.164980   -0.040970    0.209754
      3          6           0        1.326581   -0.036761    0.161079
      4          8           0        1.431191   -0.378643    1.326888
      5          6           0        2.550765    0.208547   -0.708287
      6          1           0        2.317705    0.525449   -1.727236
      7          1           0        3.138938   -0.710580   -0.746289
      8          1           0        3.168051    0.971134   -0.229535
      9          6           0       -1.918085   -1.232016   -0.394776
     10          1           0       -2.155298   -1.053961   -1.449529
     11          1           0       -2.859898   -1.402625    0.133974
     12          1           0       -1.317826   -2.141832   -0.328148
     13          6           0       -1.992848    1.248204    0.171626
     14          1           0       -0.904850   -0.271961    1.244229
     15          1           0       -2.233503    1.532255   -0.859055
     16          1           0       -1.446834    2.072982    0.634512
     17          1           0       -2.936667    1.116831    0.707544
     18          1           0        0.115307    0.425810   -1.428735
 ---------------------------------------------------------------------

 SCF Done:  E(RHF) =  -326.675717851     A.U. after    2 cycles

 The electronic state is 1-A.
 Alpha  occ. eigenvalues --  -21.01096 -15.75270 -11.49626 -11.43719 -11.39251
 Alpha  occ. eigenvalues --  -11.38538 -11.35855  -1.69465  -1.40188  -1.17461
 Alpha  occ. eigenvalues --   -1.07003  -1.01089  -0.86421  -0.79299  -0.66069
 Alpha  occ. eigenvalues --   -0.63668  -0.61316  -0.60240  -0.57476  -0.56585
 Alpha  occ. eigenvalues --   -0.54238  -0.49417  -0.48777  -0.46693  -0.46114
 Alpha  occ. eigenvalues --   -0.43867  -0.29921  -0.27801
 Alpha virt. eigenvalues --    0.03342   0.04769   0.05104   0.05539   0.05917
 Alpha virt. eigenvalues --    0.06249   0.06825   0.06998   0.07680   0.08062
 Alpha virt. eigenvalues --    0.08251   0.11474   0.12142   0.13534   0.13722

 Mulliken charges:
               1
     1  N   -2.986713
     2  C   -1.034544
     3  C    5.339146
     4  O   -3.381465
     5  C   -4.692439
     6  H    1.400365
     7  H    1.231047
     8  H    1.231284
     9  C   -3.757615
    10  H    1.285748
    11  H    1.207287
    12  H    1.326122
    13  C   -3.723116
    14  H    1.942777
    15  H    1.278167
    16  H    1.304157
    17  H    1.207380
    18  H    0.822411
 Sum of Mulliken charges =   0.00000

 Dipole moment (field-independent basis, Debye):
    X=             -1.0293    Y=              0.5922    Z=             -1.9908  Tot=              2.3181

 Test job not archived.
 1\1\GINC-SE460\SP\RHF\Aug-CC-pVDZ\C5H11N1O1\OHZDE\08-Apr-2025\0\\#t hf
  aug-cc-pvdz iop(5/13=1,5/36=2,99/5=2) pseudo=read geom=check guess=(r
 ead,tcheck) scf=(maxcycle=1)\\title\\0,1\N,0,0.122391,-0.154802,0.4576
 01\C,0,-1.16498,0.04097,-0.209754\C,0,1.326581,0.036761,-0.161079\O,0,
 1.431191,0.378643,-1.326888\C,0,2.550765,-0.208547,0.708287\H,0,2.3177
 05,-0.525449,1.727236\H,0,3.138938,0.71058,0.746289\H,0,3.168051,-0.97
 1134,0.229535\C,0,-1.918085,1.232016,0.394776\H,0,-2.155298,1.053961,1
 .449529\H,0,-2.859898,1.402625,-0.133974\H,0,-1.317826,2.141832,0.3281

 Normal termination of Gaussian 16 at Tue Apr  8 23:05:25 2025.
