 Gaussian 16, Revision C.01,

 ----------------------------------------------------------------------
 #t hf aug-cc-pvdz symm=none int=(grid=ultrafine) guess=(read,tcheck) s
 table=opt
 ----------------------------------------------------------------------
 -----
 title
 -----
 Symbolic Z-matrix:
 Charge =  0 Multiplicity = 2

 SCF Done:  E(UHF) =  -947.424595745     A.U. after   22 cycles
 Normal termination of Gaussian 16 at Wed Apr  9 00:51:04 2025.
 Gaussian 16:  ES64L-G16RevC.01  3-Jul-2019

 ----------------------------------------------------------------------
 #t hf aug-cc-pvdz iop(5/13=1,5/36=2,99/5=2) pseudo=read geom=check gue
 ss=(read,tcheck) scf=(maxcycle=1)
 ----------------------------------------------------------------------
 -----
 title
 -----
 Structure from the checkpoint file:  "BDE49_nonexpt_908_mol2.chk"
 Charge =  0 Multiplicity = 2

                         Standard orientation:
 ---------------------------------------------------------------------
 Center     Atomic      Atomic             Coordinates (Angstroms)
 Number     Number       Type             X           Y           Z
 ---------------------------------------------------------------------
      1         16           0        1.964299    0.268049    0.000207
      2         16           0        0.350128   -0.881525   -0.000141
      3          6           0       -1.110211    0.328585   -0.000110
      4          6           0       -2.428572   -0.403254    0.000019
      5          1           0       -3.242716    0.320830    0.000073
      6          1           0       -2.501119   -1.045005    0.882006
      7          1           0       -2.501269   -1.045046   -0.881925
      8          8           0       -0.944129    1.504106   -0.000082
 ---------------------------------------------------------------------

 SCF Done:  E(UHF) =  -948.518167309     A.U. after    2 cycles

 The electronic state is 2-A.
 Alpha  occ. eigenvalues --  -75.73729 -75.72834 -21.09402 -13.14242 -13.11353
 Alpha  occ. eigenvalues --  -13.09392 -13.06406 -13.04870 -13.04672 -11.52474
 Alpha  occ. eigenvalues --  -11.41758  -8.07824  -8.06625  -1.74901  -1.26146
 Alpha  occ. eigenvalues --   -1.13840  -0.98941  -0.76029  -0.64033  -0.62395
 Alpha  occ. eigenvalues --   -0.58202  -0.50989  -0.48024  -0.39133  -0.38036
 Alpha  occ. eigenvalues --   -0.30837  -0.24881  -0.22450
 Alpha virt. eigenvalues --    0.02150   0.04789   0.05682   0.06191   0.07598
 Alpha virt. eigenvalues --    0.09260   0.12243   0.12478   0.12538   0.13554
 Alpha virt. eigenvalues --    0.14532   0.15723   0.15763   0.16618   0.16936

  Beta  occ. eigenvalues --  -75.73534 -75.71935 -21.09273 -13.14144 -13.11269
  Beta  occ. eigenvalues --  -13.08981 -13.04770 -13.04139 -12.99892 -11.52568
  Beta  occ. eigenvalues --  -11.41759  -8.07613  -8.05607  -1.74674  -1.23583
  Beta  occ. eigenvalues --   -1.12907  -0.92961  -0.75355  -0.63944  -0.62337
  Beta  occ. eigenvalues --   -0.58193  -0.50887  -0.47330  -0.36646  -0.32267
  Beta  occ. eigenvalues --   -0.30291  -0.24018
  Beta virt. eigenvalues --    0.02192   0.04683   0.04955   0.05710   0.06209
  Beta virt. eigenvalues --    0.07666   0.09317   0.12339   0.12580   0.13147
  Beta virt. eigenvalues --    0.13916   0.14590   0.15883   0.16514   0.16969

 Mulliken charges and spin densities:
               1          2
     1  S    0.103328   0.905200
     2  S    0.067900   0.082301
     3  C    2.392630  -0.038452
     4  C   -3.720350   0.005986
     5  H    1.271742  -0.001288
     6  H    1.311400   0.000931
     7  H    1.311379   0.000925
     8  O   -2.738029   0.044398
 Sum of Mulliken charges =  -0.00000   1.00000

 Dipole moment (field-independent basis, Debye):
    X=             -0.2370    Y=             -0.9214    Z=              0.0001  Tot=              0.9514
                          Isotropic Fermi Contact Couplings
        Atom                 a.u.       MegaHertz       Gauss      10(-4) cm-1
     1  S(33)              0.27726      95.23174      33.98105      31.76589
     2  S(33)              0.09890      33.96891      12.12095      11.33081
     3  C(13)             -0.00832      -9.35472      -3.33800      -3.12040
     4  C(13)             -0.00099      -1.11688      -0.39853      -0.37255
     5  H(1)              -0.00029      -1.31255      -0.46835      -0.43782
     6  H(1)               0.00007       0.33032       0.11787       0.11018
     7  H(1)               0.00007       0.32875       0.11731       0.10966
     8  O(17)              0.00654      -3.96541      -1.41496      -1.32272

 Normal termination of Gaussian 16 at Wed Apr  9 00:51:07 2025.
