 Gaussian 16, Revision C.01,

 ----------------------------------------------------------------------
 #t hf aug-cc-pvdz symm=none int=(grid=ultrafine) guess=(read,tcheck) s
 table=(opt,rrhf)
 ----------------------------------------------------------------------
 -----
 title
 -----
 Symbolic Z-matrix:
 Charge =  0 Multiplicity = 1

 SCF Done:  E(RHF) =  -1329.90949357     A.U. after   17 cycles
 Normal termination of Gaussian 16 at Tue Apr  8 23:18:49 2025.
 Gaussian 16:  ES64L-G16RevC.01  3-Jul-2019

 ----------------------------------------------------------------------
 #t hf aug-cc-pvdz iop(5/13=1,5/36=2,99/5=2) pseudo=read geom=check gue
 ss=(read,tcheck) scf=(maxcycle=1)
 ----------------------------------------------------------------------
 -----
 title
 -----
 Structure from the checkpoint file:  "BDE49_nonexpt_1056_mol1.chk"
 Charge =  0 Multiplicity = 1

                         Standard orientation:
 ---------------------------------------------------------------------
 Center     Atomic      Atomic             Coordinates (Angstroms)
 Number     Number       Type             X           Y           Z
 ---------------------------------------------------------------------
      1         17           0       -2.085362   -0.478878   -0.103856
      2          8           0       -0.729345    0.631793    0.626309
      3         16           0        0.562110    0.901844   -0.276165
      4         16           0        1.912172   -0.625062    0.135043
      5          1           0        1.697405   -1.341926   -0.986962
 ---------------------------------------------------------------------

 SCF Done:  E(RHF) =  -1330.91573066     A.U. after    2 cycles

 The electronic state is 1-A.
 Alpha  occ. eigenvalues --  -99.94811 -75.78009 -75.73889 -21.16779 -13.25961
 Alpha  occ. eigenvalues --  -13.15944 -13.12453 -13.10364 -13.09652 -13.05519
 Alpha  occ. eigenvalues --  -10.51257  -9.70951  -9.70421  -9.70371  -8.11911
 Alpha  occ. eigenvalues --   -8.07730  -1.79141  -1.27908  -1.19383  -0.97192
 Alpha  occ. eigenvalues --   -0.60601  -0.59762  -0.58528  -0.54210  -0.48117
 Alpha  occ. eigenvalues --   -0.46029  -0.34312  -0.29510  -0.28876
 Alpha virt. eigenvalues --    0.01166   0.02556   0.04778   0.07973   0.08843
 Alpha virt. eigenvalues --    0.11687   0.12672   0.14072   0.14325   0.14688
 Alpha virt. eigenvalues --    0.15076   0.16920   0.18334   0.20451   0.21583

 Mulliken charges:
               1
     1  Cl   0.107264
     2  O   -1.420218
     3  S    1.215159
     4  S   -1.111972
     5  H    1.209768
 Sum of Mulliken charges =  -0.00000

 Dipole moment (field-independent basis, Debye):
    X=              4.8737    Y=              2.1227    Z=              0.4676  Tot=              5.3365

 Test job not archived.
 1\1\GINC-SE173\SP\RHF\Aug-CC-pVDZ\Cl1H1O1S2\OHZDE\08-Apr-2025\0\\#t hf
  aug-cc-pvdz iop(5/13=1,5/36=2,99/5=2) pseudo=read geom=check guess=(r
 ead,tcheck) scf=(maxcycle=1)\\title\\0,1\Cl,0,-2.085362,-0.478878,-0.1
 03856\O,0,-0.729345,0.631793,0.626309\S,0,0.56211,0.901844,-0.276165\S
 ,0,1.912172,-0.625062,0.135043\H,0,1.697405,-1.341926,-0.986962\\Versi
 on=ES64L-G16RevC.01\State=1-A\HF=-1330.9157307\RMSD=6.263e-02\Dipole=1
 .917477,0.8351505,0.1839708\Quadrupole=-1.8449022,2.0740143,-0.2291121
 ,-1.2387617,1.3140369,-0.0662524\PG=C01 [X(Cl1H1O1S2)]\\@

 Normal termination of Gaussian 16 at Tue Apr  8 23:18:51 2025.
