 Gaussian 16, Revision C.01,

 ----------------------------------------------------------------------
 #t hf aug-cc-pvdz symm=none int=(grid=ultrafine) guess=(read,tcheck) s
 table=(opt,rrhf)
 ----------------------------------------------------------------------
 -----
 title
 -----
 Symbolic Z-matrix:
 Charge =  0 Multiplicity = 1

 SCF Done:  E(RHF) =  -760.981707943     A.U. after   15 cycles
 Normal termination of Gaussian 16 at Tue Apr  8 23:21:54 2025.
 Gaussian 16:  ES64L-G16RevC.01  3-Jul-2019

 ----------------------------------------------------------------------
 #t hf aug-cc-pvdz iop(5/13=1,5/36=2,99/5=2) pseudo=read geom=check gue
 ss=(read,tcheck) scf=(maxcycle=1)
 ----------------------------------------------------------------------
 -----
 title
 -----
 Structure from the checkpoint file:  "BDE49_nonexpt_1152_mol1.chk"
 Charge =  0 Multiplicity = 1

                         Standard orientation:
 ---------------------------------------------------------------------
 Center     Atomic      Atomic             Coordinates (Angstroms)
 Number     Number       Type             X           Y           Z
 ---------------------------------------------------------------------
      1          9           0       -2.050995    0.049789    0.036546
      2          8           0       -0.966010   -0.550027   -0.701550
      3         16           0        0.475457   -0.130369    0.090487
      4          8           0        1.406697   -0.820826   -0.750409
      5          6           0        0.506497    1.623546   -0.216289
      6          8           0        0.341663   -0.372587    1.491405
      7          1           0        0.556586    1.779723   -1.291724
      8          1           0        1.394084    2.012430    0.282802
      9          1           0       -0.396813    2.051892    0.214395
 ---------------------------------------------------------------------

 SCF Done:  E(RHF) =  -762.713360653     A.U. after    2 cycles

 The electronic state is 1-A.
 Alpha  occ. eigenvalues --  -75.95060 -29.33535 -21.19475 -21.09658 -21.09581
 Alpha  occ. eigenvalues --  -13.58861 -13.47225 -13.38973 -11.45748  -8.30300
 Alpha  occ. eigenvalues --   -1.93421  -1.78234  -1.69893  -1.18311  -0.94072
 Alpha  occ. eigenvalues --   -0.74874  -0.69002  -0.66463  -0.63952  -0.60051
 Alpha  occ. eigenvalues --   -0.52863  -0.49335  -0.45847  -0.42824  -0.41812
 Alpha  occ. eigenvalues --   -0.39901  -0.38005  -0.28102  -0.26612
 Alpha virt. eigenvalues --    0.02428   0.05030   0.05459   0.08848   0.11302
 Alpha virt. eigenvalues --    0.11574   0.12201   0.12955   0.14373   0.15582
 Alpha virt. eigenvalues --    0.17061   0.18981   0.20414   0.22400   0.22805

 Mulliken charges:
               1
     1  F   -0.058842
     2  O   -1.254455
     3  S    6.798988
     4  O   -2.503027
     5  C   -4.405548
     6  O   -2.496353
     7  H    1.290589
     8  H    1.323867
     9  H    1.304780
 Sum of Mulliken charges =  -0.00000

 Dipole moment (field-independent basis, Debye):
    X=             -1.7982    Y=              2.5528    Z=              0.1675  Tot=              3.1270

 Test job not archived.
 1\1\GINC-SE086\SP\RHF\Aug-CC-pVDZ\C1H3F1O3S1\OHZDE\08-Apr-2025\0\\#t h
 f aug-cc-pvdz iop(5/13=1,5/36=2,99/5=2) pseudo=read geom=check guess=(
 read,tcheck) scf=(maxcycle=1)\\title\\0,1\F,0,-2.050995,0.049789,0.036
 546\O,0,-0.96601,-0.550027,-0.70155\S,0,0.475457,-0.130369,0.090487\O,
 0,1.406697,-0.820826,-0.750409\C,0,0.506497,1.623546,-0.216289\O,0,0.3
 41663,-0.372587,1.491405\H,0,0.556586,1.779723,-1.291724\H,0,1.394084,
 2.01243,0.282802\H,0,-0.396813,2.051892,0.214395\\Version=ES64L-G16Rev
 C.01\State=1-A\HF=-762.7133607\RMSD=8.556e-02\Dipole=-0.7074769,1.0043

 Normal termination of Gaussian 16 at Tue Apr  8 23:21:57 2025.
