 Gaussian 16, Revision C.01,

 ----------------------------------------------------------------------
 #t hf aug-cc-pvdz symm=none int=(grid=ultrafine) guess=(read,tcheck) s
 table=(opt,rrhf)
 ----------------------------------------------------------------------
 -----
 title
 -----
 Symbolic Z-matrix:
 Charge =  0 Multiplicity = 1

 SCF Done:  E(RHF) =  -1087.17994610     A.U. after   15 cycles
 Normal termination of Gaussian 16 at Tue Apr  8 23:16:26 2025.
 Gaussian 16:  ES64L-G16RevC.01  3-Jul-2019

 ----------------------------------------------------------------------
 #t hf aug-cc-pvdz iop(5/13=1,5/36=2,99/5=2) pseudo=read geom=check gue
 ss=(read,tcheck) scf=(maxcycle=1)
 ----------------------------------------------------------------------
 -----
 title
 -----
 Structure from the checkpoint file:  "BDE49_expt_852_mol1.chk"
 Charge =  0 Multiplicity = 1

                         Standard orientation:
 ---------------------------------------------------------------------
 Center     Atomic      Atomic             Coordinates (Angstroms)
 Number     Number       Type             X           Y           Z
 ---------------------------------------------------------------------
      1          6           0       -1.241660    1.389084    0.000000
      2          6           0       -1.204920   -0.000463    0.000000
      3          6           0       -0.006249   -0.704689    0.000000
      4          6           0       -0.032633    2.081090    0.000000
      5          6           0        1.180932    1.403054    0.000000
      6          6           0        1.198021    0.003974    0.000000
      7          1           0       -2.188976    1.910943    0.000001
      8         17           0       -2.712794   -0.901702    0.000000
      9          1           0       -0.021754   -1.786545    0.000000
     10          1           0       -0.039022    3.164920    0.000001
     11          1           0        2.112001    1.957447    0.000000
     12         16           0        2.785520   -0.805245    0.000000
     13          1           0        2.325983   -2.066228   -0.000002
 ---------------------------------------------------------------------

 SCF Done:  E(RHF) =  -1088.74711893     A.U. after    2 cycles

 The electronic state is 1-A.
 Alpha  occ. eigenvalues --  -99.89981 -75.71125 -13.18024 -13.15809 -13.02870
 Alpha  occ. eigenvalues --  -11.52829 -11.47346 -11.45754 -11.43733 -11.43367
 Alpha  occ. eigenvalues --  -11.38993 -10.47323  -9.67348  -9.66463  -9.66286
 Alpha  occ. eigenvalues --   -8.05120  -1.41589  -1.30041  -1.17875  -1.09867
 Alpha  occ. eigenvalues --   -1.05015  -0.88873  -0.85708  -0.72762  -0.66634
 Alpha  occ. eigenvalues --   -0.63230  -0.60799  -0.58041  -0.57044  -0.51597
 Alpha  occ. eigenvalues --   -0.50938  -0.49446  -0.47106  -0.39908  -0.38642
 Alpha  occ. eigenvalues --   -0.34772  -0.23752
 Alpha virt. eigenvalues --    0.02749   0.04525   0.04879   0.05723   0.06122
 Alpha virt. eigenvalues --    0.07571   0.08737   0.09598   0.10284   0.10979
 Alpha virt. eigenvalues --    0.11732   0.12325   0.12736   0.13388   0.13721

 Mulliken charges:
               1
     1  C   -2.141043
     2  C   -1.392312
     3  C   -1.127566
     4  C   -0.213815
     5  C   -3.741037
     6  C    2.787352
     7  H    1.694474
     8  Cl  -0.798087
     9  H    1.730155
    10  H    1.483650
    11  H    1.743696
    12  S   -1.081387
    13  H    1.055920
 Sum of Mulliken charges =   0.00000

 Dipole moment (field-independent basis, Debye):
    X=              2.9964    Y=              1.7657    Z=              0.0000  Tot=              3.4780

 Test job not archived.
 1\1\GINC-SE402\SP\RHF\Aug-CC-pVDZ\C6H5Cl1S1\OHZDE\08-Apr-2025\0\\#t hf
  aug-cc-pvdz iop(5/13=1,5/36=2,99/5=2) pseudo=read geom=check guess=(r
 ead,tcheck) scf=(maxcycle=1)\\title\\0,1\C,0,-1.24166,1.389084,0.\C,0,
 -1.20492,-0.000463,0.\C,0,-0.006249,-0.704689,0.\C,0,-0.032633,2.08109
 ,0.\C,0,1.180932,1.403054,0.\C,0,1.198021,0.003974,0.\H,0,-2.188976,1.
 910943,0.000001\Cl,0,-2.712794,-0.901702,0.\H,0,-0.021754,-1.786545,0.
 \H,0,-0.039022,3.16492,0.000001\H,0,2.112001,1.957447,0.\S,0,2.78552,-
 0.805245,0.\H,0,2.325983,-2.066228,-0.000002\\Version=ES64L-G16RevC.01

 Normal termination of Gaussian 16 at Tue Apr  8 23:16:31 2025.
