 Gaussian 16, Revision C.01,

 ----------------------------------------------------------------------
 #t hf aug-cc-pvdz symm=none int=(grid=ultrafine) guess=(read,tcheck) s
 table=(opt,rrhf)
 ----------------------------------------------------------------------
 -----
 title
 -----
 Symbolic Z-matrix:
 Charge =  0 Multiplicity = 1

 SCF Done:  E(RHF) =  -827.204246226     A.U. after   13 cycles
 Normal termination of Gaussian 16 at Wed Apr  9 00:12:18 2025.
 Gaussian 16:  ES64L-G16RevC.01  3-Jul-2019

 ----------------------------------------------------------------------
 #t hf aug-cc-pvdz iop(5/13=1,5/36=2,99/5=2) pseudo=read geom=check gue
 ss=(read,tcheck) scf=(maxcycle=1)
 ----------------------------------------------------------------------
 -----
 title
 -----
 Structure from the checkpoint file:  "BDE49_nonexpt_2373_mol1.chk"
 Charge =  0 Multiplicity = 1

                         Standard orientation:
 ---------------------------------------------------------------------
 Center     Atomic      Atomic             Coordinates (Angstroms)
 Number     Number       Type             X           Y           Z
 ---------------------------------------------------------------------
      1         14           0        2.879018   -0.306527    0.000004
      2         14           0        0.906501    0.972136   -0.000001
      3          6           0       -0.508878   -0.348562   -0.000008
      4          1           0        0.806552    1.856704   -1.191597
      5          1           0        0.806545    1.856701    1.191596
      6          8           0       -0.126915   -1.518794   -0.000001
      7          7           0       -1.833545   -0.010794   -0.000002
      8          1           0        2.946018   -1.150240    1.213614
      9          6           0       -2.318128    1.356607    0.000002
     10          1           0       -1.486116    2.059581    0.000002
     11          1           0       -2.929930    1.552600    0.887924
     12          1           0       -2.929935    1.552604   -0.887915
     13          1           0        4.051014    0.606711    0.000009
     14          1           0        2.946026   -1.150236   -1.213609
     15          6           0       -2.847904   -1.058350   -0.000001
     16          1           0       -2.343340   -2.021619   -0.000003
     17          1           0       -3.482250   -0.976790   -0.889220
     18          1           0       -3.482245   -0.976792    0.889222
 ---------------------------------------------------------------------

 SCF Done:  E(RHF) =  -828.671075956     A.U. after    2 cycles

 The electronic state is 1-A.
 Alpha  occ. eigenvalues --  -76.22330 -76.21118 -21.02369 -15.75217 -11.45833
 Alpha  occ. eigenvalues --  -11.41463 -11.39418  -5.55952  -5.54477  -2.19924
 Alpha  occ. eigenvalues --   -2.17873  -2.17731  -2.16571  -2.16511  -2.15866
 Alpha  occ. eigenvalues --   -1.69808  -1.42754  -1.06064  -0.99316  -0.83898
 Alpha  occ. eigenvalues --   -0.75890  -0.70315  -0.65776  -0.63437  -0.62231
 Alpha  occ. eigenvalues --   -0.56237  -0.52787  -0.52630  -0.50905  -0.47015
 Alpha  occ. eigenvalues --   -0.46933  -0.45911  -0.44846  -0.34969  -0.29414
 Alpha  occ. eigenvalues --   -0.26994
 Alpha virt. eigenvalues --    0.03382   0.04706   0.05068   0.05506   0.05637
 Alpha virt. eigenvalues --    0.06312   0.06608   0.07251   0.07367   0.08430
 Alpha virt. eigenvalues --    0.08655   0.09289   0.09914   0.10313   0.10405

 Mulliken charges:
               1
     1  Si   5.178089
     2  Si   4.676639
     3  C    2.823979
     4  H   -1.983669
     5  H   -1.983668
     6  O   -2.528854
     7  N   -3.082148
     8  H   -1.532279
     9  C   -3.620017
    10  H    1.689014
    11  H    1.411260
    12  H    1.411261
    13  H   -1.670311
    14  H   -1.532278
    15  C   -3.650756
    16  H    1.493202
    17  H    1.450269
    18  H    1.450267
 Sum of Mulliken charges =  -0.00000

 Dipole moment (field-independent basis, Debye):
    X=             -2.1822    Y=              0.8068    Z=              0.0000  Tot=              2.3266

 Test job not archived.
 1\1\GINC-SE284\SP\RHF\Aug-CC-pVDZ\C3H11N1O1Si2\OHZDE\09-Apr-2025\0\\#t
  hf aug-cc-pvdz iop(5/13=1,5/36=2,99/5=2) pseudo=read geom=check guess
 =(read,tcheck) scf=(maxcycle=1)\\title\\0,1\Si,0,-2.879018,-0.306527,-
 0.000004\Si,0,-0.906501,0.972136,0.000001\C,0,0.508878,-0.348562,0.000
 008\H,0,-0.806552,1.856704,1.191597\H,0,-0.806545,1.856701,-1.191596\O
 ,0,0.126915,-1.518794,0.000001\N,0,1.833545,-0.010794,0.000002\H,0,-2.
 946018,-1.15024,-1.213614\C,0,2.318128,1.356607,-0.000002\H,0,1.486116
 ,2.059581,-0.000002\H,0,2.92993,1.5526,-0.887924\H,0,2.929935,1.552604

 Normal termination of Gaussian 16 at Wed Apr  9 00:12:25 2025.
