 Gaussian 16, Revision C.01,

 ----------------------------------------------------------------------
 #t hf aug-cc-pvdz symm=none int=(grid=ultrafine) guess=(read,tcheck) s
 table=opt
 ----------------------------------------------------------------------
 -----
 title
 -----
 Symbolic Z-matrix:
 Charge =  0 Multiplicity = 2

 SCF Done:  E(UHF) =  -666.311353071     A.U. after   19 cycles
 Normal termination of Gaussian 16 at Tue Apr  8 22:51:40 2025.
 Gaussian 16:  ES64L-G16RevC.01  3-Jul-2019

 ----------------------------------------------------------------------
 #t hf aug-cc-pvdz iop(5/13=1,5/36=2,99/5=2) pseudo=read geom=check gue
 ss=(read,tcheck) scf=(maxcycle=1)
 ----------------------------------------------------------------------
 -----
 title
 -----
 Structure from the checkpoint file:  "BDE49_expt_1722_mol2.chk"
 Charge =  0 Multiplicity = 2

                         Standard orientation:
 ---------------------------------------------------------------------
 Center     Atomic      Atomic             Coordinates (Angstroms)
 Number     Number       Type             X           Y           Z
 ---------------------------------------------------------------------
      1          6           0        0.262780   -0.767782   -0.000002
      2          6           0       -1.034386   -0.093418   -0.000001
      3         17           0        1.776629    0.047508    0.000001
      4          1           0        0.299432   -1.846241   -0.000004
      5          7           0       -1.046720    1.270795    0.000000
      6          1           0       -0.205709    1.821618    0.000012
      7          1           0       -1.941558    1.731152    0.000009
      8          8           0       -2.049772   -0.780315   -0.000002
 ---------------------------------------------------------------------

 SCF Done:  E(UHF) =  -667.440866409     A.U. after    2 cycles

 The electronic state is 2-A.
 Alpha  occ. eigenvalues --  -99.92700 -21.04894 -15.78591 -11.51693 -11.45623
 Alpha  occ. eigenvalues --  -10.50102  -9.69807  -9.69208  -9.69207  -1.72586
 Alpha  occ. eigenvalues --   -1.39902  -1.33572  -1.06831  -0.83178  -0.73557
 Alpha  occ. eigenvalues --   -0.67900  -0.63041  -0.62875  -0.54447  -0.52918
 Alpha  occ. eigenvalues --   -0.50349  -0.38029  -0.33892  -0.31801
 Alpha virt. eigenvalues --    0.03240   0.04816   0.05606   0.07477   0.10544
 Alpha virt. eigenvalues --    0.11257   0.12270   0.13001   0.13166   0.14855
 Alpha virt. eigenvalues --    0.15680   0.16236   0.17113   0.17851   0.18386

  Beta  occ. eigenvalues --  -99.92657 -21.03839 -15.78627 -11.51851 -11.43698
  Beta  occ. eigenvalues --  -10.50057  -9.70084  -9.69181  -9.68734  -1.70807
  Beta  occ. eigenvalues --   -1.38480  -1.33287  -1.00942  -0.82108  -0.73373
  Beta  occ. eigenvalues --   -0.66936  -0.62360  -0.57470  -0.53249  -0.52731
  Beta  occ. eigenvalues --   -0.49758  -0.32584  -0.30578
  Beta virt. eigenvalues --    0.03294   0.04426   0.04970   0.05769   0.07840
  Beta virt. eigenvalues --    0.10755   0.11288   0.12470   0.13196   0.13701
  Beta virt. eigenvalues --    0.14998   0.16261   0.16373   0.17108   0.17973

 Mulliken charges and spin densities:
               1          2
     1  C   -2.664067   1.281310
     2  C    5.585287  -0.505121
     3  Cl  -0.211850  -0.011035
     4  H    1.624146  -0.030122
     5  N   -2.700903  -0.026482
     6  H    0.679424   0.001114
     7  H    0.792168  -0.000877
     8  O   -3.104204   0.291214
 Sum of Mulliken charges =  -0.00000   1.00000

 Dipole moment (field-independent basis, Debye):
    X=              0.1300    Y=              1.2155    Z=              0.0000  Tot=              1.2225
                          Isotropic Fermi Contact Couplings
        Atom                 a.u.       MegaHertz       Gauss      10(-4) cm-1
     1  C(13)              0.14118     158.71267      56.63263      52.94085
     2  C(13)             -0.04743     -53.32552     -19.02787     -17.78748
     3  Cl(35)             0.03821      16.75421       5.97832       5.58860
     4  H(1)              -0.01800     -80.47534     -28.71560     -26.84368
     5  N(14)             -0.00992      -3.20515      -1.14368      -1.06912
     6  H(1)               0.00021       0.95769       0.34173       0.31945
     7  H(1)              -0.00041      -1.84909      -0.65980      -0.61679
     8  O(17)              0.06085     -36.88567     -13.16173     -12.30374

 1\1\GINC-SE393\SP\UHF\Aug-CC-pVDZ\C2H3Cl1N1O1(2)\OHZDE\08-Apr-2025\0\\
 #t hf aug-cc-pvdz iop(5/13=1,5/36=2,99/5=2) pseudo=read geom=check gue
 ss=(read,tcheck) scf=(maxcycle=1)\\title\\0,2\C,0,0.26278,-0.767782,-0
 .000002\C,0,-1.034386,-0.093418,-0.000001\Cl,0,1.776629,0.047508,0.000
 001\H,0,0.299432,-1.846241,-0.000004\N,0,-1.04672,1.270795,0.\H,0,-0.2
 05709,1.821618,0.000012\H,0,-1.941558,1.731152,0.000009\O,0,-2.049772,
 -0.780315,-0.000002\\Version=ES64L-G16RevC.01\State=2-A\HF=-667.440866
 4\S2=0.793479\S2-1=0.\S2A=0.751079\RMSD=2.374e-01\Dipole=0.0511368,0.4

 Normal termination of Gaussian 16 at Tue Apr  8 22:51:43 2025.
