 Gaussian 16, Revision C.01,

 ----------------------------------------------------------------------
 #t hf aug-cc-pvdz symm=none int=(grid=ultrafine) guess=(read,tcheck) s
 table=(opt,rrhf)
 ----------------------------------------------------------------------
 -----
 title
 -----
 Symbolic Z-matrix:
 Charge =  0 Multiplicity = 1

 SCF Done:  E(RHF) =  -1076.66892984     A.U. after   17 cycles
 Normal termination of Gaussian 16 at Tue Apr  8 23:18:09 2025.
 Gaussian 16:  ES64L-G16RevC.01  3-Jul-2019

 ----------------------------------------------------------------------
 #t hf aug-cc-pvdz iop(5/13=1,5/36=2,99/5=2) pseudo=read geom=check gue
 ss=(read,tcheck) scf=(maxcycle=1)
 ----------------------------------------------------------------------
 -----
 title
 -----
 Structure from the checkpoint file:  "BDE49_expt_849_mol1.chk"
 Charge =  0 Multiplicity = 1

                         Standard orientation:
 ---------------------------------------------------------------------
 Center     Atomic      Atomic             Coordinates (Angstroms)
 Number     Number       Type             X           Y           Z
 ---------------------------------------------------------------------
      1          6           0       -0.757066   -0.983738   -0.330463
      2          6           0        0.628798   -1.095182   -0.317831
      3          6           0        1.412522    0.025314   -0.049049
      4          6           0        0.812433    1.262968    0.187664
      5          6           0       -0.570153    1.375293    0.157351
      6          6           0       -1.367124    0.249086   -0.082971
      7          1           0       -1.353736   -1.854113   -0.571511
      8          1           0        1.100491   -2.046088   -0.528786
      9          1           0        1.426517    2.133426    0.380351
     10          1           0       -1.052109    2.331209    0.317013
     11          6           0        2.911131   -0.106034    0.030136
     12          6           0       -2.850458    0.471894   -0.122284
     13          8           0       -3.336210    1.540291   -0.389019
     14         16           0       -3.981626   -0.890414    0.263688
     15          1           0       -3.085820   -1.779119    0.721062
     16          9           0        3.371485   -1.120415   -0.731175
     17          9           0        3.317559   -0.349376    1.297035
     18          9           0        3.537608    1.018832   -0.372561
 ---------------------------------------------------------------------

 SCF Done:  E(RHF) =  -1079.62521701     A.U. after    2 cycles

 The electronic state is 1-A.
 Alpha  occ. eigenvalues --  -75.72457 -29.31872 -29.31778 -29.31434 -21.08241
 Alpha  occ. eigenvalues --  -13.17116 -13.14863 -13.04802 -11.63194 -11.55613
 Alpha  occ. eigenvalues --  -11.53521 -11.48435 -11.48041 -11.47300 -11.45138
 Alpha  occ. eigenvalues --  -11.40858  -8.06460  -1.74569  -1.47056  -1.34757
 Alpha  occ. eigenvalues --   -1.18762  -1.13939  -1.12653  -0.95669  -0.94049
 Alpha  occ. eigenvalues --   -0.88832  -0.86021  -0.81242  -0.78808  -0.68324
 Alpha  occ. eigenvalues --   -0.66281  -0.62560  -0.61815  -0.57153  -0.55547
 Alpha  occ. eigenvalues --   -0.52036  -0.50609  -0.48653  -0.47970  -0.45533
 Alpha  occ. eigenvalues --   -0.44362  -0.44236  -0.39544  -0.37587  -0.36057
 Alpha  occ. eigenvalues --   -0.33754  -0.31214  -0.29338  -0.27278  -0.26343
 Alpha  occ. eigenvalues --   -0.25435  -0.22155
 Alpha virt. eigenvalues --    0.02498   0.04770   0.05884   0.06074   0.06637
 Alpha virt. eigenvalues --    0.07345   0.07936   0.08283   0.09212   0.09687
 Alpha virt. eigenvalues --    0.10518   0.11215   0.11903   0.12312   0.12592

 Mulliken charges:
               1
     1  C    0.665326
     2  C   -2.784541
     3  C    1.058095
     4  C   -2.578913
     5  C   -2.398118
     6  C    0.328382
     7  H    2.012022
     8  H    1.887590
     9  H    1.839024
    10  H    1.855905
    11  C   -0.780866
    12  C    1.497529
    13  O   -3.474099
    14  S   -0.854417
    15  H    1.017652
    16  F    0.308142
    17  F    0.155578
    18  F    0.245710
 Sum of Mulliken charges =  -0.00000

 Dipole moment (field-independent basis, Debye):
    X=              1.1720    Y=             -0.7302    Z=              0.2407  Tot=              1.4017

 Test job not archived.
 1\1\GINC-SE227\SP\RHF\Aug-CC-pVDZ\C8H5F3O1S1\OHZDE\08-Apr-2025\0\\#t h
 f aug-cc-pvdz iop(5/13=1,5/36=2,99/5=2) pseudo=read geom=check guess=(
 read,tcheck) scf=(maxcycle=1)\\title\\0,1\C,0,-0.757066,-0.983738,-0.3
 30463\C,0,0.628798,-1.095182,-0.317831\C,0,1.412522,0.025314,-0.049049
 \C,0,0.812433,1.262968,0.187664\C,0,-0.570153,1.375293,0.157351\C,0,-1
 .367124,0.249086,-0.082971\H,0,-1.353736,-1.854113,-0.571511\H,0,1.100
 491,-2.046088,-0.528786\H,0,1.426517,2.133426,0.380351\H,0,-1.052109,2
 .331209,0.317013\C,0,2.911131,-0.106034,0.030136\C,0,-2.850458,0.47189

 Normal termination of Gaussian 16 at Tue Apr  8 23:18:22 2025.
