 Gaussian 16, Revision C.01,

 ----------------------------------------------------------------------
 #t hf aug-cc-pvdz symm=none int=(grid=ultrafine) guess=(read,tcheck) s
 table=(opt,rrhf)
 ----------------------------------------------------------------------
 -----
 title
 -----
 Symbolic Z-matrix:
 Charge =  0 Multiplicity = 1

 SCF Done:  E(RHF) =  -474.408159170     A.U. after   14 cycles
 Normal termination of Gaussian 16 at Tue Apr  8 23:34:04 2025.
 Gaussian 16:  ES64L-G16RevC.01  3-Jul-2019

 ----------------------------------------------------------------------
 #t hf aug-cc-pvdz iop(5/13=1,5/36=2,99/5=2) pseudo=read geom=check gue
 ss=(read,tcheck) scf=(maxcycle=1)
 ----------------------------------------------------------------------
 -----
 title
 -----
 Structure from the checkpoint file:  "BDE49_nonexpt_1451_mol1.chk"
 Charge =  0 Multiplicity = 1

                         Standard orientation:
 ---------------------------------------------------------------------
 Center     Atomic      Atomic             Coordinates (Angstroms)
 Number     Number       Type             X           Y           Z
 ---------------------------------------------------------------------
      1          6           0       -1.363230   -1.036798    0.002495
      2          6           0       -0.472269    0.185886    0.014796
      3          1           0       -1.097877   -1.705524   -0.822468
      4          1           0       -2.413485   -0.751924   -0.102168
      5          1           0       -1.244429   -1.606690    0.929159
      6         15           0        1.361901   -0.123297   -0.119313
      7          7           0       -0.856359    1.396711    0.009903
      8          1           0       -1.880020    1.454127    0.001306
      9          1           0        1.449219   -1.135638    0.871585
     10          1           0        1.765581    0.923603    0.739216
 ---------------------------------------------------------------------

 SCF Done:  E(RHF) =  -475.239713329     A.U. after    2 cycles

 The electronic state is 1-A.
 Alpha  occ. eigenvalues -- -105.18238 -15.73967 -11.44553 -11.38938  -2.75462
 Alpha  occ. eigenvalues --   -1.49570  -1.45397  -1.43037  -1.32450  -1.08013
 Alpha  occ. eigenvalues --   -0.81807  -0.68664  -0.61830  -0.59452  -0.58356
 Alpha  occ. eigenvalues --   -0.42180  -0.41318  -0.25647  -0.22164  -0.02953
 Alpha virt. eigenvalues --    0.03410   0.05992   0.06181   0.06626   0.06892
 Alpha virt. eigenvalues --    0.08662   0.10001   0.11031   0.11709   0.13384
 Alpha virt. eigenvalues --    0.14388   0.14992   0.15584   0.16390   0.16929

 Mulliken charges:
               1
     1  C   -4.050333
     2  C    1.098629
     3  H    1.192910
     4  H    1.318272
     5  H    1.213189
     6  P    2.695294
     7  N   -3.077542
     8  H    0.702664
     9  H   -0.593799
    10  H   -0.499283
 Sum of Mulliken charges =  -0.00000

 Dipole moment (field-independent basis, Debye):
    X=              0.2206    Y=             -1.1360    Z=             -2.6136  Tot=              2.8583

 Test job not archived.
 1\1\GINC-SE345\SP\RHF\Aug-CC-pVDZ\C2H6N1P1\OHZDE\08-Apr-2025\0\\#t hf
 aug-cc-pvdz iop(5/13=1,5/36=2,99/5=2) pseudo=read geom=check guess=(re
 ad,tcheck) scf=(maxcycle=1)\\title\\0,1\C,0,-1.36323,-1.036798,0.00249
 5\C,0,-0.472269,0.185886,0.014796\H,0,-1.097877,-1.705524,-0.822468\H,
 0,-2.413485,-0.751924,-0.102168\H,0,-1.244429,-1.60669,0.929159\P,0,1.
 361901,-0.123297,-0.119313\N,0,-0.856359,1.396711,0.009903\H,0,-1.8800
 2,1.454127,0.001306\H,0,1.449219,-1.135638,0.871585\H,0,1.765581,0.923
 603,0.739216\\Version=ES64L-G16RevC.01\State=1-A\HF=-475.2397133\RMSD=

 Normal termination of Gaussian 16 at Tue Apr  8 23:34:06 2025.
