 Gaussian 16, Revision C.01,

 ----------------------------------------------------------------------
 #t hf aug-cc-pvdz symm=none int=(grid=ultrafine) guess=(read,tcheck) s
 table=(opt,rrhf)
 ----------------------------------------------------------------------
 -----
 title
 -----
 Symbolic Z-matrix:
 Charge =  0 Multiplicity = 1

 SCF Done:  E(RHF) =  -1242.44629494     A.U. after   14 cycles
 Normal termination of Gaussian 16 at Wed Apr  9 00:13:13 2025.
 Gaussian 16:  ES64L-G16RevC.01  3-Jul-2019

 ----------------------------------------------------------------------
 #t hf aug-cc-pvdz iop(5/13=1,5/36=2,99/5=2) pseudo=read geom=check gue
 ss=(read,tcheck) scf=(maxcycle=1)
 ----------------------------------------------------------------------
 -----
 title
 -----
 Structure from the checkpoint file:  "BDE49_nonexpt_2424_mol1.chk"
 Charge =  0 Multiplicity = 1

                         Standard orientation:
 ---------------------------------------------------------------------
 Center     Atomic      Atomic             Coordinates (Angstroms)
 Number     Number       Type             X           Y           Z
 ---------------------------------------------------------------------
      1         14           0       -2.652520    0.733845    0.162083
      2         14           0       -1.172939   -0.955921   -0.549332
      3         16           0        0.883050   -0.479303    0.210106
      4          1           0       -1.043802   -1.088877   -2.015048
      5          1           0       -1.424336   -2.273836    0.071030
      6          8           0        0.862666   -0.344873    1.652565
      7          8           0        0.958256    1.025110   -0.454811
      8          8           0        1.904372   -1.300638   -0.406777
      9          1           0       -4.033042    0.291672   -0.148134
     10          1           0       -2.358191    1.985875   -0.566077
     11          6           0        2.232931    1.706601   -0.362612
     12          1           0        2.097083    2.641238   -0.902568
     13          1           0        3.014967    1.108152   -0.832007
     14          1           0        2.479850    1.907782    0.681258
     15          1           0       -2.504838    0.929492    1.619192
 ---------------------------------------------------------------------

 SCF Done:  E(RHF) =  -1244.16328998     A.U. after    2 cycles

 The electronic state is 1-A.
 Alpha  occ. eigenvalues --  -76.26797 -76.24375 -75.89491 -21.09208 -21.05040
 Alpha  occ. eigenvalues --  -21.04989 -13.51599 -13.42815 -13.34167 -11.42771
 Alpha  occ. eigenvalues --   -8.24530  -5.60286  -5.57745  -2.22656  -2.22342
 Alpha  occ. eigenvalues --   -2.21607  -2.19893  -2.19844  -2.18815  -1.88377
 Alpha  occ. eigenvalues --   -1.72749  -1.65059  -1.05483  -0.91957  -0.82859
 Alpha  occ. eigenvalues --   -0.74431  -0.65765  -0.63586  -0.59763  -0.55749
 Alpha  occ. eigenvalues --   -0.51953  -0.50074  -0.49310  -0.48553  -0.48203
 Alpha  occ. eigenvalues --   -0.41845  -0.39435  -0.36545  -0.36312  -0.32978
 Alpha  occ. eigenvalues --   -0.32162
 Alpha virt. eigenvalues --    0.03267   0.03597   0.03922   0.05739   0.06456
 Alpha virt. eigenvalues --    0.06669   0.07197   0.07495   0.07723   0.08006
 Alpha virt. eigenvalues --    0.08769   0.09286   0.09693   0.10458   0.11199

 Mulliken charges:
               1
     1  Si   4.619120
     2  Si   3.961856
     3  S    5.336317
     4  H   -1.678703
     5  H   -1.749859
     6  O   -2.402660
     7  O   -2.479781
     8  O   -2.465435
     9  H   -1.556827
    10  H   -1.504041
    11  C   -2.778794
    12  H    1.352669
    13  H    1.406925
    14  H    1.379555
    15  H   -1.440343
 Sum of Mulliken charges =   0.00000

 Dipole moment (field-independent basis, Debye):
    X=             -1.5193    Y=              1.9113    Z=             -1.0530  Tot=              2.6590

 Test job not archived.
 1\1\GINC-SE082\SP\RHF\Aug-CC-pVDZ\C1H8O3S1Si2\OHZDE\09-Apr-2025\0\\#t
 hf aug-cc-pvdz iop(5/13=1,5/36=2,99/5=2) pseudo=read geom=check guess=
 (read,tcheck) scf=(maxcycle=1)\\title\\0,1\Si,0,-2.65252,0.733845,0.16
 2083\Si,0,-1.172939,-0.955921,-0.549332\S,0,0.88305,-0.479303,0.210106
 \H,0,-1.043802,-1.088877,-2.015048\H,0,-1.424336,-2.273836,0.07103\O,0
 ,0.862666,-0.344873,1.652565\O,0,0.958256,1.02511,-0.454811\O,0,1.9043
 72,-1.300638,-0.406777\H,0,-4.033042,0.291672,-0.148134\H,0,-2.358191,
 1.985875,-0.566077\C,0,2.232931,1.706601,-0.362612\H,0,2.097083,2.6412

 Normal termination of Gaussian 16 at Wed Apr  9 00:13:19 2025.
