 Gaussian 16, Revision C.01,

 ----------------------------------------------------------------------
 #t hf aug-cc-pvdz symm=none int=(grid=ultrafine) guess=(read,tcheck) s
 table=(opt,rrhf)
 ----------------------------------------------------------------------
 -----
 title
 -----
 Symbolic Z-matrix:
 Charge =  0 Multiplicity = 1

 SCF Done:  E(RHF) =  -1309.69150239     A.U. after   12 cycles
 Normal termination of Gaussian 16 at Tue Apr  8 23:05:52 2025.
 Gaussian 16:  ES64L-G16RevC.01  3-Jul-2019

 ----------------------------------------------------------------------
 #t hf aug-cc-pvdz iop(5/13=1,5/36=2,99/5=2) pseudo=read geom=check gue
 ss=(read,tcheck) scf=(maxcycle=1)
 ----------------------------------------------------------------------
 -----
 title
 -----
 Structure from the checkpoint file:  "BDE49_expt_381_mol1.chk"
 Charge =  0 Multiplicity = 1

                         Standard orientation:
 ---------------------------------------------------------------------
 Center     Atomic      Atomic             Coordinates (Angstroms)
 Number     Number       Type             X           Y           Z
 ---------------------------------------------------------------------
      1          6           0       -0.969329    1.274633    0.402687
      2         16           0        0.692096    1.650840   -0.251677
      3          6           0        1.588463    0.202282    0.402728
      4         16           0        1.083720   -1.424794   -0.251390
      5          1           0        1.533035    0.195306    1.493684
      6          1           0        2.630572    0.334954    0.113393
      7         16           0       -1.775820   -0.226053   -0.251253
      8          1           0       -1.605239    2.110795    0.113279
      9          1           0       -0.935456    1.230336    1.493650
     10          6           0       -0.619125   -1.476897    0.402658
     11          1           0       -0.597658   -1.425724    1.493635
     12          1           0       -1.025243   -2.445656    0.113030
 ---------------------------------------------------------------------

 SCF Done:  E(RHF) =  -1310.96513368     A.U. after    2 cycles

 The electronic state is 1-A.
 Alpha  occ. eigenvalues --  -75.69198 -75.69198 -75.68925 -13.14478 -13.14477
 Alpha  occ. eigenvalues --  -13.12280 -13.09309 -13.09308 -13.06175 -13.03171
 Alpha  occ. eigenvalues --  -13.03170 -13.00753 -11.43288 -11.43288 -11.42709
 Alpha  occ. eigenvalues --   -8.03391  -8.02999  -8.02999  -1.32284  -1.16945
 Alpha  occ. eigenvalues --   -1.16945  -0.94526  -0.94525  -0.82416  -0.66193
 Alpha  occ. eigenvalues --   -0.62542  -0.62541  -0.52490  -0.50145  -0.50144
 Alpha  occ. eigenvalues --   -0.49499  -0.36716  -0.36713  -0.25586  -0.19982
 Alpha  occ. eigenvalues --   -0.19980
 Alpha virt. eigenvalues --    0.02760   0.03497   0.03497   0.04886   0.07242
 Alpha virt. eigenvalues --    0.07242   0.07900   0.07900   0.09800   0.11538
 Alpha virt. eigenvalues --    0.11538   0.13159   0.14461   0.14883   0.16159

 Mulliken charges:
               1
     1  C   -4.439988
     2  S    1.228756
     3  C   -4.440054
     4  S    1.228775
     5  H    1.594541
     6  H    1.616666
     7  S    1.228723
     8  H    1.616670
     9  H    1.594592
    10  C   -4.439996
    11  H    1.594583
    12  H    1.616731
 Sum of Mulliken charges =   0.00000

 Dipole moment (field-independent basis, Debye):
    X=              0.0001    Y=              0.0001    Z=             -1.1818  Tot=              1.1818

 Test job not archived.
 1\1\GINC-SE334\SP\RHF\Aug-CC-pVDZ\C3H6S3\OHZDE\08-Apr-2025\0\\#t hf au
 g-cc-pvdz iop(5/13=1,5/36=2,99/5=2) pseudo=read geom=check guess=(read
 ,tcheck) scf=(maxcycle=1)\\title\\0,1\C,0,0.96622,-1.276991,0.402687\S
 ,0,-0.696117,-1.649149,-0.251677\C,0,-1.588951,-0.19841,0.402728\S,0,-
 1.080245,1.427431,-0.25139\H,0,-1.533506,-0.19157,1.493684\H,0,-2.6313
 8,-0.328542,0.113393\S,0,1.776366,0.221725,-0.251253\H,0,1.60009,-2.11
 4701,0.113279\H,0,0.932455,-1.232612,1.49365\C,0,0.622722,1.475384,0.4
 02658\H,0,0.601131,1.424263,1.493635\H,0,1.0312,2.44315,0.11303\\Versi

 Normal termination of Gaussian 16 at Tue Apr  8 23:05:57 2025.
