 Gaussian 16, Revision C.01,

 ----------------------------------------------------------------------
 #t hf aug-cc-pvdz symm=none int=(grid=ultrafine) guess=(read,tcheck) s
 table=opt
 ----------------------------------------------------------------------
 -----
 title
 -----
 Symbolic Z-matrix:
 Charge =  0 Multiplicity = 2

 SCF Done:  E(UHF) =  -234.761342428     A.U. after   16 cycles
 Normal termination of Gaussian 16 at Tue Apr  8 22:45:27 2025.
 Gaussian 16:  ES64L-G16RevC.01  3-Jul-2019

 ----------------------------------------------------------------------
 #t hf aug-cc-pvdz iop(5/13=1,5/36=2,99/5=2) pseudo=read geom=check gue
 ss=(read,tcheck) scf=(maxcycle=1)
 ----------------------------------------------------------------------
 -----
 title
 -----
 Structure from the checkpoint file:  "BDE49_expt_1467_mol2.chk"
 Charge =  0 Multiplicity = 2

                         Standard orientation:
 ---------------------------------------------------------------------
 Center     Atomic      Atomic             Coordinates (Angstroms)
 Number     Number       Type             X           Y           Z
 ---------------------------------------------------------------------
      1          6           0        2.591172    0.929879   -0.253264
      2          6           0        2.121916   -0.352497    0.342926
      3          1           0        2.386860    1.158200   -1.293828
      4          1           0        3.270975    1.583115    0.279784
      5          6           0        0.751665   -0.827197   -0.174376
      6          1           0        2.094962   -0.269411    1.436931
      7          1           0        2.860191   -1.147470    0.135007
      8          6           0       -0.412918    0.080096    0.237839
      9          1           0        0.565491   -1.844080    0.190785
     10          1           0        0.790056   -0.897815   -1.269076
     11          6           0       -1.771744   -0.387528   -0.294708
     12          1           0       -0.217336    1.101880   -0.109460
     13          1           0       -0.453635    0.135909    1.333807
     14          6           0       -2.931845    0.518448    0.127954
     15          1           0       -1.963353   -1.410803    0.051115
     16          1           0       -1.730744   -0.440774   -1.389530
     17          1           0       -3.021591    0.563269    1.217898
     18          1           0       -3.885426    0.159342   -0.268856
     19          1           0       -2.785930    1.541431   -0.232804
 ---------------------------------------------------------------------

 SCF Done:  E(UHF) =  -235.973886719     A.U. after    2 cycles

 The electronic state is 2-A.
 Alpha  occ. eigenvalues --  -11.41708 -11.41013 -11.39004 -11.36988 -11.35639
 Alpha  occ. eigenvalues --  -11.33627  -1.26630  -1.15328  -1.03264  -0.92494
 Alpha  occ. eigenvalues --   -0.84070  -0.80640  -0.65230  -0.61354  -0.60236
 Alpha  occ. eigenvalues --   -0.56753  -0.55825  -0.52745  -0.51091  -0.46809
 Alpha  occ. eigenvalues --   -0.46416  -0.44676  -0.43867  -0.40470  -0.30969
 Alpha virt. eigenvalues --    0.04259   0.05018   0.05340   0.05499   0.05851
 Alpha virt. eigenvalues --    0.06051   0.06417   0.06495   0.07087   0.08197
 Alpha virt. eigenvalues --    0.08914   0.09048   0.09821   0.11517   0.13947

  Beta  occ. eigenvalues --  -11.41697 -11.41000 -11.38605 -11.36415 -11.34767
  Beta  occ. eigenvalues --  -11.33474  -1.26016  -1.14007  -1.01287  -0.90023
  Beta  occ. eigenvalues --   -0.82867  -0.79177  -0.65018  -0.60561  -0.59241
  Beta  occ. eigenvalues --   -0.56339  -0.54651  -0.52344  -0.50627  -0.46356
  Beta  occ. eigenvalues --   -0.46166  -0.44531  -0.43418  -0.39763
  Beta virt. eigenvalues --    0.04311   0.05059   0.05310   0.05512   0.05868
  Beta virt. eigenvalues --    0.06061   0.06409   0.06470   0.07040   0.08208
  Beta virt. eigenvalues --    0.08463   0.08980   0.09319   0.11482   0.12541

 Mulliken charges and spin densities:
               1          2
     1  C   -2.921110   1.528651
     2  C   -3.461647  -0.402508
     3  H    1.459297  -0.079937
     4  H    1.427589  -0.072583
     5  C   -2.590239   0.021776
     6  H    1.457831  -0.001053
     7  H    1.274373   0.021594
     8  C   -2.325092   0.037233
     9  H    1.392919  -0.002301
    10  H    1.521799  -0.011237
    11  C   -2.883543  -0.007642
    12  H    1.744293  -0.034054
    13  H    1.568258   0.001253
    14  C   -4.259003   0.000177
    15  H    1.470751   0.000623
    16  H    1.437589   0.000187
    17  H    1.289694  -0.000340
    18  H    1.084991   0.000168
    19  H    1.311251  -0.000008
 Sum of Mulliken charges =  -0.00000   1.00000

 Dipole moment (field-independent basis, Debye):
    X=              0.0552    Y=             -0.2602    Z=              0.0223  Tot=              0.2670
                          Isotropic Fermi Contact Couplings
        Atom                 a.u.       MegaHertz       Gauss      10(-4) cm-1
     1  C(13)              0.12808     143.98966      51.37909      48.02978
     2  C(13)             -0.03688     -41.46055     -14.79416     -13.82975
     3  H(1)              -0.01796     -80.27975     -28.64581     -26.77844
     4  H(1)              -0.01830     -81.79534     -29.18661     -27.28399
     5  C(13)              0.01375      15.45845       5.51596       5.15638
     6  H(1)               0.00555      24.81083       8.85312       8.27600
     7  H(1)               0.02154      96.28661      34.35746      32.11775
     8  C(13)             -0.00046      -0.51422      -0.18349      -0.17152

 Normal termination of Gaussian 16 at Tue Apr  8 22:45:34 2025.
