 Gaussian 16, Revision C.01,

 ----------------------------------------------------------------------
 #t hf aug-cc-pvdz symm=none int=(grid=ultrafine) guess=(read,tcheck) s
 table=(opt,rrhf)
 ----------------------------------------------------------------------
 -----
 title
 -----
 Symbolic Z-matrix:
 Charge =  0 Multiplicity = 1

 SCF Done:  E(RHF) =  -706.618328712     A.U. after   14 cycles
 Normal termination of Gaussian 16 at Tue Apr  8 23:07:58 2025.
 Gaussian 16:  ES64L-G16RevC.01  3-Jul-2019

 ----------------------------------------------------------------------
 #t hf aug-cc-pvdz iop(5/13=1,5/36=2,99/5=2) pseudo=read geom=check gue
 ss=(read,tcheck) scf=(maxcycle=1)
 ----------------------------------------------------------------------
 -----
 title
 -----
 Structure from the checkpoint file:  "BDE49_expt_387_mol1.chk"
 Charge =  0 Multiplicity = 1

                         Standard orientation:
 ---------------------------------------------------------------------
 Center     Atomic      Atomic             Coordinates (Angstroms)
 Number     Number       Type             X           Y           Z
 ---------------------------------------------------------------------
      1          8           0        0.495130    1.125571    0.635591
      2          6           0        1.426314    1.402770   -0.404377
      3          6           0        2.508048    0.327913   -0.333681
      4          1           0        1.817330    2.403513   -0.212770
      5          1           0        0.940198    1.391987   -1.388063
      6         16           0        1.567170   -1.214233   -0.025239
      7          1           0        3.203794    0.515149    0.485082
      8          1           0        3.057325    0.233939   -1.271005
      9          6           0        0.102514   -0.235818    0.626591
     10          6           0       -1.158455   -0.492905   -0.195123
     11          1           0       -0.056604   -0.514088    1.670320
     12          6           0       -2.393383    0.211580    0.381333
     13          1           0       -1.328631   -1.575177   -0.236185
     14          1           0       -0.984888   -0.171788   -1.227817
     15          6           0       -3.651743   -0.011602   -0.461848
     16          1           0       -2.183121    1.282126    0.462765
     17          1           0       -2.569116   -0.146083    1.403157
     18          1           0       -3.518683    0.368329   -1.479539
     19          1           0       -4.515403    0.499131   -0.027796
     20          1           0       -3.897730   -1.075503   -0.536431
 ---------------------------------------------------------------------

 SCF Done:  E(RHF) =  -708.352001233     A.U. after    2 cycles

 The electronic state is 1-A.
 Alpha  occ. eigenvalues --  -75.67000 -21.05424 -13.13008 -13.10288 -13.02289
 Alpha  occ. eigenvalues --  -11.48023 -11.45362 -11.41552 -11.39332 -11.38130
 Alpha  occ. eigenvalues --  -11.34933  -8.01041  -1.77599  -1.23671  -1.19485
 Alpha  occ. eigenvalues --   -1.09835  -0.99838  -0.86802  -0.86301  -0.80847
 Alpha  occ. eigenvalues --   -0.69066  -0.65289  -0.63505  -0.60280  -0.56494
 Alpha  occ. eigenvalues --   -0.54789  -0.53942  -0.51429  -0.49224  -0.46697
 Alpha  occ. eigenvalues --   -0.46183  -0.41728  -0.39973  -0.33896  -0.29711
 Alpha  occ. eigenvalues --   -0.22328
 Alpha virt. eigenvalues --    0.03712   0.04487   0.05016   0.05239   0.05530
 Alpha virt. eigenvalues --    0.05956   0.06203   0.06426   0.07870   0.07986
 Alpha virt. eigenvalues --    0.08289   0.09179   0.09736   0.12050   0.13119

 Mulliken charges:
               1
     1  O   -3.192512
     2  C   -1.734664
     3  C   -3.612252
     4  H    1.312107
     5  H    1.663827
     6  S    0.916674
     7  H    1.484146
     8  H    1.371665
     9  C   -0.106361
    10  C   -2.961816
    11  H    1.761900
    12  C   -2.904525
    13  H    1.457271
    14  H    1.865323
    15  C   -3.953052
    16  H    1.555994
    17  H    1.391606
    18  H    1.306505
    19  H    1.089054
    20  H    1.289110
 Sum of Mulliken charges =   0.00000

 Dipole moment (field-independent basis, Debye):
    X=              0.2587    Y=             -0.1393    Z=             -0.1898  Tot=              0.3498

 Test job not archived.
 1\1\GINC-SE041\SP\RHF\Aug-CC-pVDZ\C6H12O1S1\OHZDE\08-Apr-2025\0\\#t hf
  aug-cc-pvdz iop(5/13=1,5/36=2,99/5=2) pseudo=read geom=check guess=(r
 ead,tcheck) scf=(maxcycle=1)\\title\\0,1\O,0,0.49513,1.125571,0.635591
 \C,0,1.426314,1.40277,-0.404377\C,0,2.508048,0.327913,-0.333681\H,0,1.
 81733,2.403513,-0.21277\H,0,0.940198,1.391987,-1.388063\S,0,1.56717,-1
 .214233,-0.025239\H,0,3.203794,0.515149,0.485082\H,0,3.057325,0.233939
 ,-1.271005\C,0,0.102514,-0.235818,0.626591\C,0,-1.158455,-0.492905,-0.
 195123\H,0,-0.056604,-0.514088,1.67032\C,0,-2.393383,0.21158,0.381333\

 Normal termination of Gaussian 16 at Tue Apr  8 23:08:09 2025.
