 Gaussian 16, Revision C.01,

 ----------------------------------------------------------------------
 #t hf aug-cc-pvdz symm=none int=(grid=ultrafine) guess=(read,tcheck) s
 table=(opt,rrhf)
 ----------------------------------------------------------------------
 -----
 title
 -----
 Symbolic Z-matrix:
 Charge =  0 Multiplicity = 1

 SCF Done:  E(RHF) =  -704.516260033     A.U. after   13 cycles
 Normal termination of Gaussian 16 at Tue Apr  8 22:48:05 2025.
 Gaussian 16:  ES64L-G16RevC.01  3-Jul-2019

 ----------------------------------------------------------------------
 #t hf aug-cc-pvdz iop(5/13=1,5/36=2,99/5=2) pseudo=read geom=check gue
 ss=(read,tcheck) scf=(maxcycle=1)
 ----------------------------------------------------------------------
 -----
 title
 -----
 Structure from the checkpoint file:  "BDE49_expt_1599_mol1.chk"
 Charge =  0 Multiplicity = 1

                         Standard orientation:
 ---------------------------------------------------------------------
 Center     Atomic      Atomic             Coordinates (Angstroms)
 Number     Number       Type             X           Y           Z
 ---------------------------------------------------------------------
      1         16           0       -0.648900   -0.200748    0.104380
      2          6           0        1.053377    0.128118   -0.492276
      3          6           0       -1.649568    1.122188   -0.595991
      4          8           0       -0.664948   -0.050372    1.549181
      5          8           0       -1.094272   -1.438480   -0.510975
      6          1           0       -1.359845    2.078799   -0.165472
      7          1           0       -2.675355    0.879562   -0.317013
      8          1           0       -1.547070    1.117737   -1.680642
      9          6           0        1.594718    1.443974    0.065737
     10          1           0        1.018319    2.308786   -0.269887
     11          1           0        2.625160    1.585607   -0.271320
     12          1           0        1.588601    1.427026    1.157114
     13          6           0        1.912067   -1.081393   -0.110601
     14          1           0        0.945733    0.176957   -1.580312
     15          1           0        2.916166   -0.955574   -0.523251
     16          1           0        1.486148   -2.005609   -0.501223
     17          1           0        1.994744   -1.167843    0.975058
 ---------------------------------------------------------------------

 SCF Done:  E(RHF) =  -706.235195299     A.U. after    2 cycles

 The electronic state is 1-A.
 Alpha  occ. eigenvalues --  -75.86891 -21.03251 -21.03172 -13.49301 -13.39529
 Alpha  occ. eigenvalues --  -13.33830 -11.45143 -11.42427 -11.40645 -11.38326
 Alpha  occ. eigenvalues --   -8.22072  -1.81714  -1.63791  -1.26471  -1.13382
 Alpha  occ. eigenvalues --   -1.02921  -0.95175  -0.81931  -0.67797  -0.65361
 Alpha  occ. eigenvalues --   -0.63000  -0.61021  -0.59267  -0.56490  -0.54410
 Alpha  occ. eigenvalues --   -0.50768  -0.49889  -0.48556  -0.42081  -0.38221
 Alpha  occ. eigenvalues --   -0.37271  -0.34146  -0.33619
 Alpha virt. eigenvalues --    0.02851   0.04103   0.04801   0.05117   0.05972
 Alpha virt. eigenvalues --    0.06500   0.06678   0.07397   0.08015   0.08888
 Alpha virt. eigenvalues --    0.11535   0.11907   0.12950   0.13340   0.13973

 Mulliken charges:
               1
     1  S    6.894746
     2  C   -3.130896
     3  C   -4.853591
     4  O   -2.650639
     5  O   -2.616203
     6  H    1.531489
     7  H    1.312171
     8  H    1.296010
     9  C   -3.723762
    10  H    1.320271
    11  H    1.197745
    12  H    1.379027
    13  C   -3.634148
    14  H    1.799682
    15  H    1.209360
    16  H    1.300670
    17  H    1.368068
 Sum of Mulliken charges =   0.00000

 Dipole moment (field-independent basis, Debye):
    X=              1.1491    Y=              1.6582    Z=             -1.2569  Tot=              2.3770

 Test job not archived.
 1\1\GINC-SE366\SP\RHF\Aug-CC-pVDZ\C4H10O2S1\OHZDE\08-Apr-2025\0\\#t hf
  aug-cc-pvdz iop(5/13=1,5/36=2,99/5=2) pseudo=read geom=check guess=(r
 ead,tcheck) scf=(maxcycle=1)\\title\\0,1\S,0,-0.6489,-0.200748,0.10438
 \C,0,1.053377,0.128118,-0.492276\C,0,-1.649568,1.122188,-0.595991\O,0,
 -0.664948,-0.050372,1.549181\O,0,-1.094272,-1.43848,-0.510975\H,0,-1.3
 59845,2.078799,-0.165472\H,0,-2.675355,0.879562,-0.317013\H,0,-1.54707
 ,1.117737,-1.680642\C,0,1.594718,1.443974,0.065737\H,0,1.018319,2.3087
 86,-0.269887\H,0,2.62516,1.585607,-0.27132\H,0,1.588601,1.427026,1.157

 Normal termination of Gaussian 16 at Tue Apr  8 22:48:11 2025.
