 Gaussian 16, Revision C.01,

 ----------------------------------------------------------------------
 #t hf aug-cc-pvdz symm=none int=(grid=ultrafine) guess=(read,tcheck) s
 table=opt
 ----------------------------------------------------------------------
 -----
 title
 -----
 Symbolic Z-matrix:
 Charge =  0 Multiplicity = 2

 SCF Done:  E(UHF) =  -574.946097967     A.U. after   17 cycles

 1\1\GINC-SE009\Stability\UHF\Aug-CC-pVDZ\C6H12P1\OHZDE\08-Apr-2025\0\\
 #t hf aug-cc-pvdz symm=none int=(grid=ultrafine) guess=(read,tcheck) s
 table=opt\\title\\0,2\C,0,0.662122,-0.013134,0.35097\C,0,-0.03368,1.26
 2766,-0.172385\C,0,-1.529202,1.28145,0.185531\C,0,-2.247244,0.016969,-
 0.304377\C,0,-1.562365,-1.252262,0.219714\C,0,-0.068579,-1.279098,-0.1
 38663\H,0,0.077873,1.310586,-1.263038\H,0,0.460594,2.151495,0.231342\H
 ,0,-1.9987,2.174877,-0.238993\H,0,-1.636706,1.359817,1.274996\H,0,-2.2
 43823,0.002021,-1.401966\H,0,-3.297585,0.035484,0.003375\H,0,-2.055837

 Normal termination of Gaussian 16 at Tue Apr  8 23:39:15 2025.
 Gaussian 16:  ES64L-G16RevC.01  3-Jul-2019

 ----------------------------------------------------------------------
 #t hf aug-cc-pvdz iop(5/13=1,5/36=2,99/5=2) pseudo=read geom=check gue
 ss=(read,tcheck) scf=(maxcycle=1)
 ----------------------------------------------------------------------
 -----
 title
 -----
 Structure from the checkpoint file:  "BDE49_nonexpt_1530_mol2.chk"
 Charge =  0 Multiplicity = 2

                         Standard orientation:
 ---------------------------------------------------------------------
 Center     Atomic      Atomic             Coordinates (Angstroms)
 Number     Number       Type             X           Y           Z
 ---------------------------------------------------------------------
      1          6           0        0.662122   -0.013134    0.350970
      2          6           0       -0.033680    1.262766   -0.172385
      3          6           0       -1.529202    1.281450    0.185531
      4          6           0       -2.247244    0.016969   -0.304377
      5          6           0       -1.562365   -1.252262    0.219714
      6          6           0       -0.068579   -1.279098   -0.138663
      7          1           0        0.077873    1.310586   -1.263038
      8          1           0        0.460594    2.151495    0.231342
      9          1           0       -1.998700    2.174877   -0.238993
     10          1           0       -1.636706    1.359817    1.274996
     11          1           0       -2.243823    0.002021   -1.401966
     12          1           0       -3.297585    0.035484    0.003375
     13          1           0       -2.055837   -2.143838   -0.180397
     14          1           0       -1.671996   -1.298574    1.310915
     15          1           0        0.039984   -1.355389   -1.228598
     16          1           0        0.403543   -2.172442    0.282516
     17         15           0        2.476578   -0.088073   -0.106238
     18          1           0        0.622835    0.006562    1.449724
     19          1           0        2.824836    1.150342    0.508947
 ---------------------------------------------------------------------

 SCF Done:  E(UHF) =  -576.321833042     A.U. after    2 cycles

 The electronic state is 2-A.
 Alpha  occ. eigenvalues -- -105.17483 -11.43634 -11.43368 -11.42117 -11.37489
 Alpha  occ. eigenvalues --  -11.37412 -11.34059  -2.74697  -1.48560  -1.45155
 Alpha  occ. eigenvalues --   -1.43753  -1.30244  -1.10348  -1.08775  -0.88548
 Alpha  occ. eigenvalues --   -0.86908  -0.78257  -0.69495  -0.64338  -0.61397
 Alpha  occ. eigenvalues --   -0.60978  -0.57563  -0.52793  -0.48706  -0.47547
 Alpha  occ. eigenvalues --   -0.47102  -0.44753  -0.42977  -0.39352  -0.20870
 Alpha  occ. eigenvalues --   -0.06517   0.01858
 Alpha virt. eigenvalues --    0.04530   0.05238   0.05503   0.05509   0.05706
 Alpha virt. eigenvalues --    0.06211   0.06452   0.07212   0.08129   0.08452
 Alpha virt. eigenvalues --    0.08763   0.08823   0.10842   0.12338   0.12641

  Beta  occ. eigenvalues -- -105.16858 -11.43604 -11.43427 -11.42115 -11.37501
  Beta  occ. eigenvalues --  -11.37407 -11.34059  -2.72788  -1.46799  -1.42323
  Beta  occ. eigenvalues --   -1.30107  -1.21302  -1.10283  -1.08657  -0.88465
  Beta  occ. eigenvalues --   -0.86698  -0.78066  -0.67216  -0.62911  -0.61309
  Beta  occ. eigenvalues --   -0.60963  -0.56889  -0.52762  -0.48623  -0.47306
  Beta  occ. eigenvalues --   -0.47075  -0.44599  -0.42711  -0.39319  -0.21641
  Beta  occ. eigenvalues --   -0.04407
  Beta virt. eigenvalues --    0.04535   0.05243   0.05458   0.05514   0.05560
  Beta virt. eigenvalues --    0.05780   0.06435   0.06680   0.07462   0.08380
  Beta virt. eigenvalues --    0.08745   0.08849   0.11050   0.11066   0.12499

 Mulliken charges and spin densities:
               1          2
     1  C   -0.310879  -0.890193
     2  C   -3.107339   0.058115
     3  C   -2.949617  -0.035245
     4  C   -2.848478  -0.022921
     5  C   -3.144898  -0.036611
     6  C   -2.828981  -0.037347
     7  H    0.996821   0.328042
     8  H    1.436682   0.067576
     9  H    1.290765  -0.015970
    10  H    1.315339   0.005300
    11  H    1.397495   0.002810
    12  H    1.257408  -0.006528
    13  H    1.300957   0.010161
    14  H    1.326763   0.004789
    15  H    1.300261   0.027494
    16  H    1.221754   0.073024
    17  P    2.402606   1.429555
    18  H    1.317811   0.215639
    19  H   -1.374472  -0.177691
 Sum of Mulliken charges =   0.00000   1.00000

 Dipole moment (field-independent basis, Debye):
    X=              0.8281    Y=             -1.6244    Z=             -0.9579  Tot=              2.0596
                          Isotropic Fermi Contact Couplings
        Atom                 a.u.       MegaHertz       Gauss      10(-4) cm-1
     1  C(13)             -0.00381      -4.28746      -1.52987      -1.43014
     2  C(13)              0.02332      26.21780       9.35516       8.74532
     3  C(13)              0.00158       1.77406       0.63303       0.59176
     4  C(13)              0.00112       1.25642       0.44832       0.41910
     5  C(13)              0.00063       0.71296       0.25440       0.23782
     6  C(13)             -0.00063      -0.70335      -0.25097      -0.23461
     7  H(1)              -0.00022      -0.98346      -0.35092      -0.32805
     8  H(1)              -0.00004      -0.19051      -0.06798      -0.06355

 Normal termination of Gaussian 16 at Tue Apr  8 23:39:24 2025.
