 Gaussian 16, Revision C.01,

 ----------------------------------------------------------------------
 #t hf aug-cc-pvdz symm=none int=(grid=ultrafine) guess=(read,tcheck) s
 table=(opt,rrhf)
 ----------------------------------------------------------------------
 -----
 title
 -----
 Symbolic Z-matrix:
 Charge =  0 Multiplicity = 1

 SCF Done:  E(RHF) =  -750.991433942     A.U. after   15 cycles
 Normal termination of Gaussian 16 at Wed Apr  9 00:49:35 2025.
 Gaussian 16:  ES64L-G16RevC.01  3-Jul-2019

 ----------------------------------------------------------------------
 #t hf aug-cc-pvdz iop(5/13=1,5/36=2,99/5=2) pseudo=read geom=check gue
 ss=(read,tcheck) scf=(maxcycle=1)
 ----------------------------------------------------------------------
 -----
 title
 -----
 Structure from the checkpoint file:  "BDE49_nonexpt_830_mol1.chk"
 Charge =  0 Multiplicity = 1

                         Standard orientation:
 ---------------------------------------------------------------------
 Center     Atomic      Atomic             Coordinates (Angstroms)
 Number     Number       Type             X           Y           Z
 ---------------------------------------------------------------------
      1          6           0       -1.925309    1.216375    0.204469
      2          6           0       -0.605930    0.823251    0.386056
      3          6           0       -2.910066    0.278767   -0.143761
      4          6           0       -2.522901   -1.059595   -0.308814
      5          6           0       -1.199691   -1.439405   -0.122410
      6          6           0       -0.203884   -0.515033    0.233289
      7          1           0       -0.939013   -2.484286   -0.260608
      8          1           0       -2.201234    2.259843    0.325284
      9          1           0        0.129645    1.577896    0.644553
     10          5           0        2.912130    0.325665   -0.150027
     11          8           0        2.726756    1.627002    0.239777
     12          8           0        3.944998   -0.083975   -0.945164
     13          7           0       -4.223382    0.678085   -0.383897
     14          1           0       -4.504663    1.535741    0.067644
     15          1           0       -4.919912   -0.046723   -0.293921
     16          1           0       -3.265703   -1.800361   -0.589607
     17          1           0        3.374382    2.260217   -0.093617
     18          1           0        4.556940    0.609172   -1.222370
     19         14           0        1.572203   -1.057433    0.514648
     20          1           0        1.822602   -1.287990    1.966415
     21          1           0        1.771794   -2.364734   -0.161304
 ---------------------------------------------------------------------

 SCF Done:  E(RHF) =  -753.229242174     A.U. after    2 cycles

 The electronic state is 1-A.
 Alpha  occ. eigenvalues --  -76.18432 -21.06961 -21.06798 -15.75687 -11.50237
 Alpha  occ. eigenvalues --  -11.43917 -11.42182 -11.39447 -11.39126 -11.34764
 Alpha  occ. eigenvalues --   -7.63816  -5.52167  -2.17175  -2.15773  -2.14300
 Alpha  occ. eigenvalues --   -1.80920  -1.66252  -1.40423  -1.25558  -1.08228
 Alpha  occ. eigenvalues --   -1.04325  -0.86330  -0.84667  -0.79440  -0.70921
 Alpha  occ. eigenvalues --   -0.67773  -0.67139  -0.66886  -0.62250  -0.56978
 Alpha  occ. eigenvalues --   -0.54255  -0.54187  -0.53456  -0.51859  -0.49002
 Alpha  occ. eigenvalues --   -0.45329  -0.43330  -0.42147  -0.39660  -0.37667
 Alpha  occ. eigenvalues --   -0.36969  -0.35456  -0.32349  -0.27147
 Alpha virt. eigenvalues --    0.02769   0.03898   0.04863   0.05242   0.05400
 Alpha virt. eigenvalues --    0.05907   0.07185   0.07581   0.08031   0.08460
 Alpha virt. eigenvalues --    0.08810   0.08966   0.09597   0.10451   0.11089

 Mulliken charges:
               1
     1  C   -2.550966
     2  C    0.383451
     3  C    2.623593
     4  C   -2.339043
     5  C   -2.864521
     6  C   -0.503792
     7  H    1.901805
     8  H    1.743523
     9  H    2.105324
    10  B    5.656412
    11  O   -4.260678
    12  O   -3.772382
    13  N   -4.039245
    14  H    0.634243
    15  H    0.642033
    16  H    1.780166
    17  H    1.232754
    18  H    1.303231
    19  Si   4.148526
    20  H   -2.107607
    21  H   -1.716828
 Sum of Mulliken charges =   0.00000

 Dipole moment (field-independent basis, Debye):
    X=             -1.1368    Y=              1.9684    Z=             -0.3291  Tot=              2.2967

 Test job not archived.
 1\1\GINC-SE054\SP\RHF\Aug-CC-pVDZ\C6H10B1N1O2Si1\OHZDE\09-Apr-2025\0\\
 #t hf aug-cc-pvdz iop(5/13=1,5/36=2,99/5=2) pseudo=read geom=check gue
 ss=(read,tcheck) scf=(maxcycle=1)\\title\\0,1\C,0,-1.925309,1.216375,0
 .204469\C,0,-0.60593,0.823251,0.386056\C,0,-2.910066,0.278767,-0.14376
 1\C,0,-2.522901,-1.059595,-0.308814\C,0,-1.199691,-1.439405,-0.12241\C
 ,0,-0.203884,-0.515033,0.233289\H,0,-0.939013,-2.484286,-0.260608\H,0,
 -2.201234,2.259843,0.325284\H,0,0.129645,1.577896,0.644553\B,0,2.91213
 ,0.325665,-0.150027\O,0,2.726756,1.627002,0.239777\O,0,3.944998,-0.083

 Normal termination of Gaussian 16 at Wed Apr  9 00:49:49 2025.
