 Gaussian 16, Revision C.01,

 ----------------------------------------------------------------------
 #t hf aug-cc-pvdz symm=none int=(grid=ultrafine) guess=(read,tcheck) s
 table=(opt,rrhf)
 ----------------------------------------------------------------------
 -----
 title
 -----
 Symbolic Z-matrix:
 Charge =  0 Multiplicity = 1

 SCF Done:  E(RHF) =  -748.015837886     A.U. after   15 cycles
 Normal termination of Gaussian 16 at Wed Apr  9 00:46:46 2025.
 Gaussian 16:  ES64L-G16RevC.01  3-Jul-2019

 ----------------------------------------------------------------------
 #t hf aug-cc-pvdz iop(5/13=1,5/36=2,99/5=2) pseudo=read geom=check gue
 ss=(read,tcheck) scf=(maxcycle=1)
 ----------------------------------------------------------------------
 -----
 title
 -----
 Structure from the checkpoint file:  "BDE49_nonexpt_797_mol1.chk"
 Charge =  0 Multiplicity = 1

                         Standard orientation:
 ---------------------------------------------------------------------
 Center     Atomic      Atomic             Coordinates (Angstroms)
 Number     Number       Type             X           Y           Z
 ---------------------------------------------------------------------
      1          6           0        0.577717   -1.564744   -1.552670
      2         14           0        0.125464   -0.625708    0.000005
      3          1           0        0.435640   -0.954760   -2.448048
      4          1           0       -0.064728   -2.445875   -1.644344
      5          1           0        1.618412   -1.894860   -1.518124
      6          6           0        0.577713   -1.564709    1.552701
      7          1           0        0.435641   -0.954702    2.448065
      8          1           0        1.618407   -1.894831    1.518162
      9          1           0       -0.064737   -2.445834    1.644398
     10          5           0       -1.701474    0.270596   -0.000009
     11          7           0        1.366194    0.828164   -0.000015
     12          8           0        0.938912    1.994472   -0.000035
     13          8           0        2.558835    0.559719    0.000039
     14          8           0       -2.790207   -0.549460   -0.000007
     15          8           0       -1.847795    1.616140   -0.000020
     16          1           0       -3.619247   -0.052634   -0.000014
     17          1           0       -0.982412    2.063039   -0.000015
 ---------------------------------------------------------------------

 SCF Done:  E(RHF) =  -750.143571607     A.U. after    2 cycles

 The electronic state is 1-A.
 Alpha  occ. eigenvalues --  -76.24599 -21.09959 -21.08932 -21.07381 -21.05837
 Alpha  occ. eigenvalues --  -15.95636 -11.37525 -11.37392  -7.65422  -5.58718
 Alpha  occ. eigenvalues --   -2.22632  -2.22331  -2.21962  -1.97169  -1.81844
 Alpha  occ. eigenvalues --   -1.68135  -1.66374  -1.10042  -1.03639  -0.97800
 Alpha  occ. eigenvalues --   -0.78022  -0.73734  -0.64713  -0.64316  -0.61764
 Alpha  occ. eigenvalues --   -0.60124  -0.59015  -0.57393  -0.57157  -0.56884
 Alpha  occ. eigenvalues --   -0.54495  -0.49948  -0.44008  -0.42616  -0.37305
 Alpha  occ. eigenvalues --   -0.35250  -0.32309  -0.31300  -0.30965
 Alpha virt. eigenvalues --    0.02752   0.03899   0.03902   0.05346   0.06328
 Alpha virt. eigenvalues --    0.06627   0.07326   0.07424   0.08576   0.08777
 Alpha virt. eigenvalues --    0.09105   0.09523   0.10034   0.10162   0.10322

 Mulliken charges:
               1
     1  C   -5.742312
     2  Si   5.202734
     3  H    1.155169
     4  H    1.185179
     5  H    1.185037
     6  C   -5.742330
     7  H    1.155160
     8  H    1.185043
     9  H    1.185181
    10  B    6.690350
    11  N    2.238159
    12  O   -2.121433
    13  O   -2.311728
    14  O   -3.984162
    15  O   -4.394471
    16  H    1.263068
    17  H    1.851355
 Sum of Mulliken charges =  -0.00000

 Dipole moment (field-independent basis, Debye):
    X=             -1.0253    Y=             -2.1836    Z=              0.0000  Tot=              2.4123

 Test job not archived.
 1\1\GINC-SE367\SP\RHF\Aug-CC-pVDZ\C2H8B1N1O4Si1\OHZDE\09-Apr-2025\0\\#
 t hf aug-cc-pvdz iop(5/13=1,5/36=2,99/5=2) pseudo=read geom=check gues
 s=(read,tcheck) scf=(maxcycle=1)\\title\\0,1\C,0,0.577718,-1.564744,-1
 .55267\Si,0,0.125464,-0.625708,0.000005\H,0,0.43564,-0.95476,-2.448048
 \H,0,-0.064727,-2.445875,-1.644344\H,0,1.618413,-1.894859,-1.518124\C,
 0,0.577714,-1.564709,1.552701\H,0,0.435641,-0.954702,2.448065\H,0,1.61
 8408,-1.89483,1.518162\H,0,-0.064736,-2.445834,1.644398\B,0,-1.701474,
 0.270596,-0.000009\N,0,1.366194,0.828164,-0.000015\O,0,0.938912,1.9944

 Normal termination of Gaussian 16 at Wed Apr  9 00:46:54 2025.
