 Gaussian 16, Revision C.01,

 ----------------------------------------------------------------------
 #t hf aug-cc-pvdz symm=none int=(grid=ultrafine) guess=(read,tcheck) s
 table=(opt,rrhf)
 ----------------------------------------------------------------------
 -----
 title
 -----
 Symbolic Z-matrix:
 Charge =  0 Multiplicity = 1

 SCF Done:  E(RHF) =  -519.029450900     A.U. after   14 cycles
 Normal termination of Gaussian 16 at Wed Apr  9 00:07:41 2025.
 Gaussian 16:  ES64L-G16RevC.01  3-Jul-2019

 ----------------------------------------------------------------------
 #t hf aug-cc-pvdz iop(5/13=1,5/36=2,99/5=2) pseudo=read geom=check gue
 ss=(read,tcheck) scf=(maxcycle=1)
 ----------------------------------------------------------------------
 -----
 title
 -----
 Structure from the checkpoint file:  "BDE49_nonexpt_2257_mol1.chk"
 Charge =  0 Multiplicity = 1

                         Standard orientation:
 ---------------------------------------------------------------------
 Center     Atomic      Atomic             Coordinates (Angstroms)
 Number     Number       Type             X           Y           Z
 ---------------------------------------------------------------------
      1         14           0       -0.370839    0.023437    0.359209
      2          8           0        0.899585   -0.827838   -0.371109
      3          8           0        2.141243   -0.125306   -0.027762
      4          1           0        2.619229   -0.844901    0.405640
      5          6           0       -0.411752    1.800593   -0.208259
      6          1           0        0.534489    2.297547    0.017985
      7          1           0       -1.212453    2.348330    0.299309
      8          1           0       -0.582859    1.867430   -1.286312
      9          6           0       -1.875407   -0.949904   -0.170555
     10          1           0       -1.993248   -0.931308   -1.257225
     11          1           0       -2.777654   -0.519958    0.275734
     12          1           0       -1.806159   -1.992907    0.148041
     13          1           0       -0.193272   -0.031332    1.831744
 ---------------------------------------------------------------------

 SCF Done:  E(RHF) =  -520.219393140     A.U. after    2 cycles

 The electronic state is 1-A.
 Alpha  occ. eigenvalues --  -76.21928 -21.12121 -21.07726 -11.34768 -11.34489
 Alpha  occ. eigenvalues --   -5.55989  -2.22187  -2.19611  -2.18246  -1.89538
 Alpha  occ. eigenvalues --   -1.39720  -1.05632  -1.01326  -0.68883  -0.62409
 Alpha  occ. eigenvalues --   -0.57335  -0.56803  -0.54951  -0.54454  -0.49950
 Alpha  occ. eigenvalues --   -0.47927  -0.42945  -0.40481  -0.34443  -0.29579
 Alpha virt. eigenvalues --    0.03449   0.05088   0.05475   0.06184   0.06610
 Alpha virt. eigenvalues --    0.07029   0.07224   0.07818   0.09338   0.09474
 Alpha virt. eigenvalues --    0.10133   0.13454   0.15350   0.15900   0.16572

 Mulliken charges:
               1
     1  Si   6.736798
     2  O   -1.547119
     3  O   -1.292882
     4  H    1.034655
     5  C   -5.204759
     6  H    1.218662
     7  H    1.244462
     8  H    1.282540
     9  C   -5.048351
    10  H    1.305415
    11  H    1.265826
    12  H    1.222780
    13  H   -2.218028
 Sum of Mulliken charges =   0.00000

 Dipole moment (field-independent basis, Debye):
    X=             -0.1502    Y=             -0.0192    Z=             -0.0055  Tot=              0.1515

 Test job not archived.
 1\1\GINC-SE361\SP\RHF\Aug-CC-pVDZ\C2H8O2Si1\OHZDE\09-Apr-2025\0\\#t hf
  aug-cc-pvdz iop(5/13=1,5/36=2,99/5=2) pseudo=read geom=check guess=(r
 ead,tcheck) scf=(maxcycle=1)\\title\\0,1\Si,0,-0.370839,0.023437,0.359
 209\O,0,0.899585,-0.827838,-0.371109\O,0,2.141243,-0.125307,-0.027762\
 H,0,2.619229,-0.844902,0.40564\C,0,-0.411751,1.800593,-0.208259\H,0,0.
 53449,2.297547,0.017985\H,0,-1.212452,2.34833,0.299309\H,0,-0.582858,1
 .86743,-1.286312\C,0,-1.875407,-0.949904,-0.170555\H,0,-1.993248,-0.93
 1308,-1.257225\H,0,-2.777654,-0.519957,0.275734\H,0,-1.806159,-1.99290

 Normal termination of Gaussian 16 at Wed Apr  9 00:07:44 2025.
