 Gaussian 16, Revision C.01,

 ----------------------------------------------------------------------
 #t hf aug-cc-pvdz symm=none int=(grid=ultrafine) guess=(read,tcheck) s
 table=(opt,rrhf)
 ----------------------------------------------------------------------
 -----
 title
 -----
 Symbolic Z-matrix:
 Charge =  0 Multiplicity = 1

 SCF Done:  E(RHF) =  -1193.24325463     A.U. after   12 cycles
 Normal termination of Gaussian 16 at Wed Apr  9 00:20:37 2025.
 Gaussian 16:  ES64L-G16RevC.01  3-Jul-2019

 ----------------------------------------------------------------------
 #t hf aug-cc-pvdz iop(5/13=1,5/36=2,99/5=2) pseudo=read geom=check gue
 ss=(read,tcheck) scf=(maxcycle=1)
 ----------------------------------------------------------------------
 -----
 title
 -----
 Structure from the checkpoint file:  "BDE49_nonexpt_2613_mol1.chk"
 Charge =  0 Multiplicity = 1

                         Standard orientation:
 ---------------------------------------------------------------------
 Center     Atomic      Atomic             Coordinates (Angstroms)
 Number     Number       Type             X           Y           Z
 ---------------------------------------------------------------------
      1         17           0        2.017998   -0.348691    0.000000
      2          9           0       -2.026097    0.697873   -0.000001
      3          9           0       -1.003040   -0.894778   -1.078692
      4          9           0       -1.003041   -0.894777    1.078693
      5          6           0       -0.952295   -0.110961    0.000000
      6         16           0        0.481089    1.026166    0.000000
 ---------------------------------------------------------------------

 SCF Done:  E(RHF) =  -1194.87879914     A.U. after    2 cycles

 The electronic state is 1-A.
 Alpha  occ. eigenvalues --  -99.93941 -75.78043 -29.34203 -29.33707 -29.33661
 Alpha  occ. eigenvalues --  -13.19715 -13.13519 -13.09916 -11.61691 -10.51083
 Alpha  occ. eigenvalues --   -9.70796  -9.70151  -9.70033  -8.12055  -1.46869
 Alpha  occ. eigenvalues --   -1.35180  -1.10295  -0.92502  -0.91653  -0.73569
 Alpha  occ. eigenvalues --   -0.58801  -0.58358  -0.54788  -0.50114  -0.46047
 Alpha  occ. eigenvalues --   -0.45752  -0.39843  -0.39313  -0.31799  -0.29377
 Alpha  occ. eigenvalues --   -0.28343  -0.24745  -0.23753
 Alpha virt. eigenvalues --    0.04433   0.06342   0.09292   0.11667   0.12101
 Alpha virt. eigenvalues --    0.12951   0.13799   0.14035   0.15038   0.16367
 Alpha virt. eigenvalues --    0.16636   0.20026   0.20988   0.22182   0.22940

 Mulliken charges:
               1
     1  Cl  -0.406559
     2  F    0.720438
     3  F    0.608845
     4  F    0.608845
     5  C   -1.730355
     6  S    0.198785
 Sum of Mulliken charges =  -0.00000

 Dipole moment (field-independent basis, Debye):
    X=             -4.3612    Y=              0.7639    Z=             -0.0000  Tot=              4.4276

 Test job not archived.
 1\1\GINC-SE366\SP\RHF\Aug-CC-pVDZ\C1Cl1F3S1\OHZDE\09-Apr-2025\0\\#t hf
  aug-cc-pvdz iop(5/13=1,5/36=2,99/5=2) pseudo=read geom=check guess=(r
 ead,tcheck) scf=(maxcycle=1)\\title\\0,1\Cl,0,2.017998,-0.348691,0.\F,
 0,-2.026097,0.697873,-0.000001\F,0,-1.00304,-0.894778,-1.078692\F,0,-1
 .003041,-0.894777,1.078693\C,0,-0.952295,-0.110961,0.\S,0,0.481089,1.0
 26166,0.\\Version=ES64L-G16RevC.01\State=1-A\HF=-1194.8787991\RMSD=4.9
 66e-02\Dipole=-1.7158329,0.3005221,-0.0000003\Quadrupole=0.2775963,1.8
 801666,-2.1577629,-0.2100702,0.000001,0.\PG=C01 [X(C1Cl1F3S1)]\\@

 Normal termination of Gaussian 16 at Wed Apr  9 00:20:39 2025.
