 Gaussian 16, Revision C.01,

 ----------------------------------------------------------------------
 #t hf aug-cc-pvdz symm=none int=(grid=ultrafine) guess=(read,tcheck) s
 table=(opt,rrhf)
 ----------------------------------------------------------------------
 -----
 title
 -----
 Symbolic Z-matrix:
 Charge =  0 Multiplicity = 1

 SCF Done:  E(RHF) =  -1331.19574848     A.U. after   14 cycles
 Normal termination of Gaussian 16 at Tue Apr  8 23:24:07 2025.
 Gaussian 16:  ES64L-G16RevC.01  3-Jul-2019

 ----------------------------------------------------------------------
 #t hf aug-cc-pvdz iop(5/13=1,5/36=2,99/5=2) pseudo=read geom=check gue
 ss=(read,tcheck) scf=(maxcycle=1)
 ----------------------------------------------------------------------
 -----
 title
 -----
 Structure from the checkpoint file:  "BDE49_nonexpt_1228_mol1.chk"
 Charge =  0 Multiplicity = 1

                         Standard orientation:
 ---------------------------------------------------------------------
 Center     Atomic      Atomic             Coordinates (Angstroms)
 Number     Number       Type             X           Y           Z
 ---------------------------------------------------------------------
      1         16           0        1.038881   -1.081620   -0.222317
      2          8           0       -0.325624   -0.325956   -0.901309
      3          6           0        2.062285    0.362682   -0.052463
      4         16           0       -1.496212    0.242057    0.083946
      5          9           0       -2.147325   -1.176388    0.465069
      6          8           0       -0.955052    0.766096    1.285785
      7          8           0       -2.407051    0.905951   -0.771450
      8          8           0        1.820341    1.486300   -0.288840
      9          9           0        3.245400   -0.090524    0.416624
 ---------------------------------------------------------------------

 SCF Done:  E(RHF) =  -1333.74382989     A.U. after    2 cycles

 The electronic state is 1-A.
 Alpha  occ. eigenvalues --  -76.01384 -75.82733 -29.35872 -29.35177 -21.18043
 Alpha  occ. eigenvalues --  -21.13754 -21.13069 -21.12806 -13.65801 -13.55386
 Alpha  occ. eigenvalues --  -13.48571 -13.28021 -13.23361 -13.16915 -11.60681
 Alpha  occ. eigenvalues --   -8.37055  -8.16496  -1.98053  -1.82640  -1.80170
 Alpha  occ. eigenvalues --   -1.73726  -1.25763  -1.12775  -1.02128  -0.81144
 Alpha  occ. eigenvalues --   -0.72083  -0.68613  -0.65398  -0.62401  -0.61357
 Alpha  occ. eigenvalues --   -0.54439  -0.53276  -0.52805  -0.47715  -0.46946
 Alpha  occ. eigenvalues --   -0.45237  -0.42874  -0.39519  -0.36772  -0.34752
 Alpha  occ. eigenvalues --   -0.34401  -0.33674  -0.31403  -0.30102
 Alpha virt. eigenvalues --    0.05253   0.07151   0.08563   0.09248   0.09825
 Alpha virt. eigenvalues --    0.10702   0.11271   0.12239   0.12821   0.13572
 Alpha virt. eigenvalues --    0.14324   0.17373   0.18231   0.19010   0.19743

 Mulliken charges:
               1
     1  S    1.530729
     2  O   -2.477226
     3  C    0.931165
     4  S    6.673339
     5  F    0.125272
     6  O   -2.552453
     7  O   -2.592245
     8  O   -2.534852
     9  F    0.896270
 Sum of Mulliken charges =  -0.00000

 Dipole moment (field-independent basis, Debye):
    X=              2.6388    Y=             -6.3862    Z=              1.8232  Tot=              7.1464

 Test job not archived.
 1\1\GINC-SE361\SP\RHF\Aug-CC-pVDZ\C1F2O4S2\OHZDE\08-Apr-2025\0\\#t hf
 aug-cc-pvdz iop(5/13=1,5/36=2,99/5=2) pseudo=read geom=check guess=(re
 ad,tcheck) scf=(maxcycle=1)\\title\\0,1\S,0,1.038881,-1.08162,-0.22231
 7\O,0,-0.325624,-0.325956,-0.901309\C,0,2.062285,0.362682,-0.052463\S,
 0,-1.496212,0.242057,0.083946\F,0,-2.147325,-1.176388,0.465069\O,0,-0.
 955052,0.766096,1.285785\O,0,-2.407051,0.905951,-0.77145\O,0,1.820341,
 1.4863,-0.28884\F,0,3.2454,-0.090524,0.416624\\Version=ES64L-G16RevC.0
 1\State=1-A\HF=-1333.7438299\RMSD=5.006e-02\Dipole=1.0381682,-2.512542

 Normal termination of Gaussian 16 at Tue Apr  8 23:24:12 2025.
