 Gaussian 16, Revision C.01,

 ----------------------------------------------------------------------
 #t hf aug-cc-pvdz symm=none int=(grid=ultrafine) guess=(read,tcheck) s
 table=(opt,rrhf)
 ----------------------------------------------------------------------
 -----
 title
 -----
 Symbolic Z-matrix:
 Charge =  0 Multiplicity = 1

 SCF Done:  E(RHF) =  -554.848474483     A.U. after   12 cycles

 1\1\GINC-SE368\Stability\RHF\Aug-CC-pVDZ\C4H10S1\OHZDE\08-Apr-2025\0\\
 #t hf aug-cc-pvdz symm=none int=(grid=ultrafine) guess=(read,tcheck) s
 table=(opt,rrhf)\\title\\0,1\C,0,-3.019064,-0.407732,-0.031372\C,0,-1.
 794186,0.509576,0.031146\H,0,-3.024261,-0.997656,-0.952873\H,0,-3.9481
 58,0.167425,0.000599\H,0,-3.03222,-1.107744,0.809623\C,0,-0.467592,-0.
 261352,-0.015463\H,0,-1.834241,1.110708,0.94738\H,0,-1.827882,1.221117
 ,-0.802549\C,0,0.750746,0.658316,0.055318\H,0,-0.414498,-0.856647,-0.9
 32915\H,0,-0.432074,-0.974461,0.81676\H,0,0.747416,1.25332,0.970992\H,

 Normal termination of Gaussian 16 at Tue Apr  8 23:15:02 2025.
 Gaussian 16:  ES64L-G16RevC.01  3-Jul-2019

 ----------------------------------------------------------------------
 #t hf aug-cc-pvdz iop(5/13=1,5/36=2,99/5=2) pseudo=read geom=check gue
 ss=(read,tcheck) scf=(maxcycle=1)
 ----------------------------------------------------------------------
 -----
 title
 -----
 Structure from the checkpoint file:  "BDE49_expt_830_mol1.chk"
 Charge =  0 Multiplicity = 1

                         Standard orientation:
 ---------------------------------------------------------------------
 Center     Atomic      Atomic             Coordinates (Angstroms)
 Number     Number       Type             X           Y           Z
 ---------------------------------------------------------------------
      1          6           0       -3.019064   -0.407732   -0.031372
      2          6           0       -1.794186    0.509576    0.031146
      3          1           0       -3.024261   -0.997656   -0.952873
      4          1           0       -3.948158    0.167425    0.000599
      5          1           0       -3.032220   -1.107744    0.809623
      6          6           0       -0.467592   -0.261352   -0.015463
      7          1           0       -1.834241    1.110708    0.947380
      8          1           0       -1.827882    1.221117   -0.802549
      9          6           0        0.750746    0.658316    0.055318
     10          1           0       -0.414498   -0.856647   -0.932915
     11          1           0       -0.432074   -0.974461    0.816760
     12          1           0        0.747416    1.253320    0.970992
     13          1           0        0.752839    1.358954   -0.784029
     14         16           0        2.370656   -0.202257   -0.084408
     15          1           0        2.263163   -0.931746    1.039772
 ---------------------------------------------------------------------

 SCF Done:  E(RHF) =  -555.905753414     A.U. after    2 cycles

 The electronic state is 1-A.
 Alpha  occ. eigenvalues --  -75.67986 -13.12127 -13.09277 -13.01494 -11.42855
 Alpha  occ. eigenvalues --  -11.41000 -11.38042 -11.35141  -8.01831  -1.26770
 Alpha  occ. eigenvalues --   -1.14213  -1.01914  -0.89297  -0.83323  -0.66346
 Alpha  occ. eigenvalues --   -0.59552  -0.59290  -0.54853  -0.51355  -0.49923
 Alpha  occ. eigenvalues --   -0.46933  -0.46307  -0.45750  -0.36162  -0.23200
 Alpha virt. eigenvalues --    0.03703   0.04716   0.04817   0.05664   0.05859
 Alpha virt. eigenvalues --    0.06097   0.06332   0.06550   0.08478   0.09931
 Alpha virt. eigenvalues --    0.10202   0.11444   0.13618   0.14113   0.14681

 Mulliken charges:
               1
     1  C   -3.693574
     2  C   -2.791555
     3  H    1.285987
     4  H    1.109857
     5  H    1.304488
     6  C   -2.381121
     7  H    1.412201
     8  H    1.425778
     9  C   -4.132014
    10  H    1.586062
    11  H    1.552917
    12  H    1.441279
    13  H    1.490223
    14  S   -0.573945
    15  H    0.963417
 Sum of Mulliken charges =   0.00000

 Dipole moment (field-independent basis, Debye):
    X=             -0.3808    Y=              0.6566    Z=             -0.7330  Tot=              1.0552

 Test job not archived.
 1\1\GINC-SE368\SP\RHF\Aug-CC-pVDZ\C4H10S1\OHZDE\08-Apr-2025\0\\#t hf a
 ug-cc-pvdz iop(5/13=1,5/36=2,99/5=2) pseudo=read geom=check guess=(rea
 d,tcheck) scf=(maxcycle=1)\\title\\0,1\C,0,-3.019064,-0.407732,-0.0313
 72\C,0,-1.794186,0.509576,0.031146\H,0,-3.024261,-0.997656,-0.952873\H
 ,0,-3.948158,0.167425,0.000599\H,0,-3.03222,-1.107744,0.809623\C,0,-0.
 467592,-0.261352,-0.015463\H,0,-1.834241,1.110708,0.94738\H,0,-1.82788
 2,1.221117,-0.802549\C,0,0.750746,0.658316,0.055318\H,0,-0.414498,-0.8
 56647,-0.932915\H,0,-0.432074,-0.974461,0.81676\H,0,0.747416,1.25332,0

 Normal termination of Gaussian 16 at Tue Apr  8 23:15:05 2025.
