 Gaussian 16, Revision C.01,

 ----------------------------------------------------------------------
 #t hf aug-cc-pvdz symm=none int=(grid=ultrafine) guess=(read,tcheck) s
 table=(opt,rrhf)
 ----------------------------------------------------------------------
 -----
 title
 -----
 Symbolic Z-matrix:
 Charge =  0 Multiplicity = 1

 SCF Done:  E(RHF) =  -1030.46044271     A.U. after   14 cycles

 1\1\GINC-SE162\Stability\RHF\Aug-CC-pVDZ\C6H14S2\OHZDE\09-Apr-2025\0\\
 #t hf aug-cc-pvdz symm=none int=(grid=ultrafine) guess=(read,tcheck) s
 table=(opt,rrhf)\\title\\0,1\C,0,-1.848534,0.330015,0.310653\S,0,-0.59
 9816,-0.128234,-0.996565\S,0,0.860367,-1.219857,0.002081\C,0,2.20185,0
 .003327,0.416042\C,0,-2.52058,-0.897425,0.916894\C,0,1.743502,1.09412,
 1.381048\H,0,-1.787358,-1.56725,1.369686\H,0,-3.070667,-1.455248,0.154
 223\H,0,1.299752,0.670428,2.284059\H,0,1.007587,1.746444,0.903665\C,0,
 -2.846261,1.268076,-0.374282\H,0,-2.357803,2.161548,-0.769741\H,0,-3.6

 Normal termination of Gaussian 16 at Wed Apr  9 00:27:47 2025.
 Gaussian 16:  ES64L-G16RevC.01  3-Jul-2019

 ----------------------------------------------------------------------
 #t hf aug-cc-pvdz iop(5/13=1,5/36=2,99/5=2) pseudo=read geom=check gue
 ss=(read,tcheck) scf=(maxcycle=1)
 ----------------------------------------------------------------------
 -----
 title
 -----
 Structure from the checkpoint file:  "BDE49_nonexpt_2736_mol1.chk"
 Charge =  0 Multiplicity = 1

                         Standard orientation:
 ---------------------------------------------------------------------
 Center     Atomic      Atomic             Coordinates (Angstroms)
 Number     Number       Type             X           Y           Z
 ---------------------------------------------------------------------
      1          6           0       -1.848534    0.330015    0.310653
      2         16           0       -0.599816   -0.128234   -0.996565
      3         16           0        0.860367   -1.219857    0.002081
      4          6           0        2.201850    0.003327    0.416042
      5          6           0       -2.520580   -0.897425    0.916894
      6          6           0        1.743502    1.094120    1.381048
      7          1           0       -1.787358   -1.567250    1.369686
      8          1           0       -3.070667   -1.455248    0.154223
      9          1           0        1.299752    0.670428    2.284059
     10          1           0        1.007587    1.746444    0.903665
     11          6           0       -2.846261    1.268076   -0.374282
     12          1           0       -2.357803    2.161548   -0.769741
     13          1           0       -3.606944    1.586061    0.344918
     14          1           0       -3.358715    0.764337   -1.199217
     15          6           0        2.872211    0.565649   -0.836022
     16          1           0        3.243755   -0.233316   -1.480023
     17          1           0        3.715515    1.206219   -0.557128
     18          1           0        2.167252    1.169925   -1.412621
     19          1           0        2.902469   -0.664474    0.932581
     20          1           0        2.594665    1.716683    1.675955
     21          1           0       -1.304701    0.877629    1.082529
     22          1           0       -3.226743   -0.592101    1.696861
 ---------------------------------------------------------------------

 SCF Done:  E(RHF) =  -1032.15907321     A.U. after    2 cycles

 The electronic state is 1-A.
 Alpha  occ. eigenvalues --  -75.69032 -75.68941 -13.15625 -13.12304 -13.10192
 Alpha  occ. eigenvalues --  -13.08830 -13.05941 -13.05614 -11.43608 -11.43200
 Alpha  occ. eigenvalues --  -11.38934 -11.38689 -11.36230 -11.36164  -8.02895
 Alpha  occ. eigenvalues --   -8.02823  -1.29843  -1.23706  -1.11233  -1.00940
 Alpha  occ. eigenvalues --   -1.00692  -0.97033  -0.83076  -0.79492  -0.63856
 Alpha  occ. eigenvalues --   -0.63323  -0.60393  -0.59347  -0.57041  -0.56458
 Alpha  occ. eigenvalues --   -0.54084  -0.54032  -0.48893  -0.48299  -0.47095
 Alpha  occ. eigenvalues --   -0.46954  -0.40624  -0.38816  -0.32986  -0.23385
 Alpha  occ. eigenvalues --   -0.23027
 Alpha virt. eigenvalues --    0.03430   0.03694   0.04592   0.05432   0.06030
 Alpha virt. eigenvalues --    0.06216   0.06326   0.06613   0.06936   0.07153
 Alpha virt. eigenvalues --    0.07811   0.08570   0.08863   0.09437   0.10785

 Mulliken charges:
               1
     1  C   -1.640054
     2  S   -0.238307
     3  S   -0.074356
     4  C   -1.139583
     5  C   -4.104537
     6  C   -4.527863
     7  H    1.410358
     8  H    1.397283
     9  H    1.405076
    10  H    1.724429
    11  C   -3.892551
    12  H    1.375334
    13  H    1.217490
    14  H    1.367286
    15  C   -4.240188
    16  H    1.364970
    17  H    1.217362
    18  H    1.450031
    19  H    1.711499
    20  H    1.098089
    21  H    1.906852
    22  H    1.211380
 Sum of Mulliken charges =   0.00000

 Dipole moment (field-independent basis, Debye):
    X=              0.0760    Y=             -0.1089    Z=             -0.0525  Tot=              0.1428

 Test job not archived.
 1\1\GINC-SE162\SP\RHF\Aug-CC-pVDZ\C6H14S2\OHZDE\09-Apr-2025\0\\#t hf a
 ug-cc-pvdz iop(5/13=1,5/36=2,99/5=2) pseudo=read geom=check guess=(rea
 d,tcheck) scf=(maxcycle=1)\\title\\0,1\C,0,-1.848534,0.330015,0.310653
 \S,0,-0.599816,-0.128234,-0.996565\S,0,0.860367,-1.219857,0.002081\C,0
 ,2.20185,0.003327,0.416042\C,0,-2.52058,-0.897425,0.916894\C,0,1.74350
 2,1.09412,1.381048\H,0,-1.787358,-1.56725,1.369686\H,0,-3.070667,-1.45
 5248,0.154223\H,0,1.299752,0.670428,2.284059\H,0,1.007587,1.746444,0.9
 03665\C,0,-2.846261,1.268076,-0.374282\H,0,-2.357803,2.161548,-0.76974

 Normal termination of Gaussian 16 at Wed Apr  9 00:27:58 2025.
