 Gaussian 16, Revision C.01,

 ----------------------------------------------------------------------
 #t hf aug-cc-pvdz symm=none int=(grid=ultrafine) guess=(read,tcheck) s
 table=(opt,rrhf)
 ----------------------------------------------------------------------
 -----
 title
 -----
 Symbolic Z-matrix:
 Charge =  0 Multiplicity = 1

 SCF Done:  E(RHF) =  -893.725246809     A.U. after   16 cycles
 Normal termination of Gaussian 16 at Wed Apr  9 00:40:02 2025.
 Gaussian 16:  ES64L-G16RevC.01  3-Jul-2019

 ----------------------------------------------------------------------
 #t hf aug-cc-pvdz iop(5/13=1,5/36=2,99/5=2) pseudo=read geom=check gue
 ss=(read,tcheck) scf=(maxcycle=1)
 ----------------------------------------------------------------------
 -----
 title
 -----
 Structure from the checkpoint file:  "BDE49_nonexpt_617_mol1.chk"
 Charge =  0 Multiplicity = 1

                         Standard orientation:
 ---------------------------------------------------------------------
 Center     Atomic      Atomic             Coordinates (Angstroms)
 Number     Number       Type             X           Y           Z
 ---------------------------------------------------------------------
      1          7           0       -0.088063    0.150196   -0.000010
      2          5           0        1.362957   -0.201143    0.000001
      3          7           0       -1.144474   -0.778400   -0.000012
      4         17           0       -0.574710    1.791332   -0.000013
      5          8           0       -0.799964   -1.962225    0.000027
      6          8           0        1.800620   -1.474250    0.000003
      7          8           0        2.200048    0.861522    0.000006
      8          8           0       -2.276155   -0.366004    0.000009
      9          1           0        3.121715    0.583693    0.000011
     10          1           0        1.064948   -2.105543   -0.000005
 ---------------------------------------------------------------------

 SCF Done:  E(RHF) =  -895.764897513     A.U. after    2 cycles

 The electronic state is 1-A.
 Alpha  occ. eigenvalues --  -99.95598 -21.13449 -21.11616 -21.08418 -21.07395
 Alpha  occ. eigenvalues --  -16.06256 -15.83200 -10.52747  -9.72927  -9.71825
 Alpha  occ. eigenvalues --   -9.71451  -7.71487  -2.05250  -1.85850  -1.73852
 Alpha  occ. eigenvalues --   -1.69318  -1.52415  -1.26963  -0.98547  -0.82378
 Alpha  occ. eigenvalues --   -0.75666  -0.75426  -0.71807  -0.66177  -0.62430
 Alpha  occ. eigenvalues --   -0.60826  -0.55807  -0.52854  -0.48968  -0.44558
 Alpha  occ. eigenvalues --   -0.41080  -0.39220  -0.38912  -0.35138  -0.34574
 Alpha virt. eigenvalues --    0.02781   0.03347   0.04858   0.05676   0.06378
 Alpha virt. eigenvalues --    0.08142   0.08494   0.11819   0.12912   0.13350
 Alpha virt. eigenvalues --    0.14508   0.15074   0.15988   0.17479   0.19333

 Mulliken charges:
               1
     1  N   -1.874414
     2  B    6.466614
     3  N    6.143359
     4  Cl   0.783945
     5  O   -3.005278
     6  O   -4.041727
     7  O   -4.059390
     8  O   -2.959081
     9  H    0.839411
    10  H    1.706560
 Sum of Mulliken charges =  -0.00000

 Dipole moment (field-independent basis, Debye):
    X=              1.1856    Y=             -0.6602    Z=              0.0000  Tot=              1.3570

 Test job not archived.
 1\1\GINC-SE162\SP\RHF\Aug-CC-pVDZ\B1Cl1H2N2O4\OHZDE\09-Apr-2025\0\\#t
 hf aug-cc-pvdz iop(5/13=1,5/36=2,99/5=2) pseudo=read geom=check guess=
 (read,tcheck) scf=(maxcycle=1)\\title\\0,1\N,0,-0.088063,0.150196,-0.0
 0001\B,0,1.362957,-0.201143,0.000001\N,0,-1.144474,-0.7784,-0.000012\C
 l,0,-0.57471,1.791332,-0.000013\O,0,-0.799964,-1.962225,0.000027\O,0,1
 .80062,-1.47425,0.000003\O,0,2.200048,0.861522,0.000006\O,0,-2.276155,
 -0.366004,0.000009\H,0,3.121715,0.583693,0.000011\H,0,1.064948,-2.1055
 43,-0.000005\\Version=ES64L-G16RevC.01\State=1-A\HF=-895.7648975\RMSD=

 Normal termination of Gaussian 16 at Wed Apr  9 00:40:06 2025.
