 Gaussian 16, Revision C.01,

 ----------------------------------------------------------------------
 #t hf aug-cc-pvdz symm=none int=(grid=ultrafine) guess=(read,tcheck) s
 table=(opt,rrhf)
 ----------------------------------------------------------------------
 -----
 title
 -----
 Symbolic Z-matrix:
 Charge =  0 Multiplicity = 1

 SCF Done:  E(RHF) =  -398.698098803     A.U. after   10 cycles
 Normal termination of Gaussian 16 at Tue Apr  8 23:14:45 2025.
 Gaussian 16:  ES64L-G16RevC.01  3-Jul-2019

 ----------------------------------------------------------------------
 #t hf aug-cc-pvdz iop(5/13=1,5/36=2,99/5=2) pseudo=read geom=check gue
 ss=(read,tcheck) scf=(maxcycle=1)
 ----------------------------------------------------------------------
 -----
 title
 -----
 Structure from the checkpoint file:  "BDE49_expt_824_mol1.chk"
 Charge =  0 Multiplicity = 1

                         Standard orientation:
 ---------------------------------------------------------------------
 Center     Atomic      Atomic             Coordinates (Angstroms)
 Number     Number       Type             X           Y           Z
 ---------------------------------------------------------------------
      1         16           0        0.000000   -0.000000    0.103135
      2          1           0        0.000000    0.971454   -0.825079
      3          1           0       -0.000000   -0.971454   -0.825079
 ---------------------------------------------------------------------

 SCF Done:  E(RHF) =  -398.933641910     A.U. after    2 cycles

 The electronic state is 1-A1.
 Alpha  occ. eigenvalues --  -75.70333 -13.14868 -13.08274 -13.01354  -8.04047
 Alpha  occ. eigenvalues --   -1.11478  -0.55051  -0.43647  -0.25851
 Alpha virt. eigenvalues --    0.02138   0.05888   0.10858   0.11555   0.13926
 Alpha virt. eigenvalues --    0.15246   0.23486   0.25150   0.27403   0.29115
 Alpha virt. eigenvalues --    0.30240   0.40864   0.45372   0.46207   0.51594

 Mulliken charges:
               1
     1  S   -1.936981
     2  H    0.968490
     3  H    0.968490
 Sum of Mulliken charges =  -0.00000

 Dipole moment (field-independent basis, Debye):
    X=             -0.0000    Y=             -0.0000    Z=              1.1396  Tot=              1.1396

 Test job not archived.
 1\1\GINC-SE334\SP\RHF\Aug-CC-pVDZ\H2S1\OHZDE\08-Apr-2025\0\\#t hf aug-
 cc-pvdz iop(5/13=1,5/36=2,99/5=2) pseudo=read geom=check guess=(read,t
 check) scf=(maxcycle=1)\\title\\0,1\S,0,0.,0.,0.103135\H,0,0.,0.971454
 ,-0.825079\H,0,0.,-0.971454,-0.825079\\Version=ES64L-G16RevC.01\State=
 1-A1\HF=-398.9336419\RMSD=1.627e-01\Dipole=0.,0.,0.4483427\Quadrupole=
 -2.4747566,1.7077917,0.7669649,0.,0.,0.\PG=C02V [C2(S1),SGV(H2)]\\@

 Normal termination of Gaussian 16 at Tue Apr  8 23:14:46 2025.
