 Gaussian 16, Revision C.01,

 ----------------------------------------------------------------------
 #t hf aug-cc-pvdz symm=none int=(grid=ultrafine) guess=(read,tcheck) s
 table=(opt,rrhf)
 ----------------------------------------------------------------------
 -----
 title
 -----
 Symbolic Z-matrix:
 Charge =  0 Multiplicity = 1

 SCF Done:  E(RHF) =  -540.880664901     A.U. after   12 cycles
 Normal termination of Gaussian 16 at Wed Apr  9 00:35:29 2025.
 Gaussian 16:  ES64L-G16RevC.01  3-Jul-2019

 ----------------------------------------------------------------------
 #t hf aug-cc-pvdz iop(5/13=1,5/36=2,99/5=2) pseudo=read geom=check gue
 ss=(read,tcheck) scf=(maxcycle=1)
 ----------------------------------------------------------------------
 -----
 title
 -----
 Structure from the checkpoint file:  "BDE49_nonexpt_442_mol1.chk"
 Charge =  0 Multiplicity = 1

                         Standard orientation:
 ---------------------------------------------------------------------
 Center     Atomic      Atomic             Coordinates (Angstroms)
 Number     Number       Type             X           Y           Z
 ---------------------------------------------------------------------
      1          6           0        0.407087   -1.600375    0.481087
      2          8           0        1.363809   -1.186995   -0.456550
      3          6           0        2.063429    0.000062   -0.173526
      4          8           0        1.363621    1.186981   -0.456678
      5          6           0        0.406995    1.600454    0.481017
      6          8           0       -0.911212    1.233557    0.140220
      7          5           0       -1.456768   -0.000041   -0.024898
      8          9           0       -2.742495   -0.000077   -0.389491
      9          8           0       -0.911093   -1.233609    0.140047
     10          1           0        2.924191    0.000089   -0.837728
     11          1           0        2.383987    0.000147    0.880399
     12          1           0        0.412817    2.689109    0.476624
     13          1           0        0.663164    1.229686    1.482957
     14          1           0        0.663103   -1.229432    1.483003
     15          1           0        0.412979   -2.689030    0.476867
 ---------------------------------------------------------------------

 SCF Done:  E(RHF) =  -543.087148782     A.U. after    2 cycles

 The electronic state is 1-A.
 Alpha  occ. eigenvalues --  -29.22684 -21.07977 -21.07934 -21.04662 -21.04628
 Alpha  occ. eigenvalues --  -11.47763 -11.47745 -11.46741  -7.69972  -1.90332
 Alpha  occ. eigenvalues --   -1.80478  -1.80077  -1.67101  -1.10015  -0.96675
 Alpha  occ. eigenvalues --   -0.94163  -0.84698  -0.75887  -0.69049  -0.66601
 Alpha  occ. eigenvalues --   -0.66088  -0.64776  -0.61970  -0.58794  -0.54400
 Alpha  occ. eigenvalues --   -0.48797  -0.46320  -0.42882  -0.41883  -0.37066
 Alpha  occ. eigenvalues --   -0.36616  -0.34042  -0.31821  -0.31143  -0.27496
 Alpha virt. eigenvalues --    0.03048   0.04259   0.04705   0.04715   0.05169
 Alpha virt. eigenvalues --    0.05778   0.06562   0.06939   0.07676   0.07836
 Alpha virt. eigenvalues --    0.10957   0.12687   0.13587   0.13949   0.14335

 Mulliken charges:
               1
     1  C    0.367397
     2  O   -2.893744
     3  C   -0.233614
     4  O   -2.893798
     5  C    0.367512
     6  O   -3.732701
     7  B    5.183884
     8  F   -1.433592
     9  O   -3.732682
    10  H    1.439749
    11  H    1.521595
    12  H    1.444845
    13  H    1.575165
    14  H    1.575174
    15  H    1.444811
 Sum of Mulliken charges =   0.00000

 Dipole moment (field-independent basis, Debye):
    X=              0.2635    Y=              0.0002    Z=              0.5483  Tot=              0.6083

 Test job not archived.
 1\1\GINC-SE016\SP\RHF\Aug-CC-pVDZ\C3H6B1F1O4\OHZDE\09-Apr-2025\0\\#t h
 f aug-cc-pvdz iop(5/13=1,5/36=2,99/5=2) pseudo=read geom=check guess=(
 read,tcheck) scf=(maxcycle=1)\\title\\0,1\C,0,0.407087,-1.600375,0.481
 087\O,0,1.363809,-1.186994,-0.45655\C,0,2.063429,0.000063,-0.173526\O,
 0,1.36362,1.186982,-0.456678\C,0,0.406994,1.600454,0.481017\O,0,-0.911
 213,1.233557,0.14022\B,0,-1.456768,-0.000041,-0.024898\F,0,-2.742495,-
 0.000078,-0.389491\O,0,-0.911093,-1.233609,0.140047\H,0,2.924191,0.000
 09,-0.837728\H,0,2.383987,0.000148,0.880399\H,0,0.412816,2.689109,0.47

 Normal termination of Gaussian 16 at Wed Apr  9 00:35:36 2025.
