 Gaussian 16, Revision C.01,

 ----------------------------------------------------------------------
 #t hf aug-cc-pvdz symm=none int=(grid=ultrafine) guess=(read,tcheck) s
 table=opt
 ----------------------------------------------------------------------
 -----
 title
 -----
 Symbolic Z-matrix:
 Charge =  0 Multiplicity = 2

 SCF Done:  E(UHF) =  -324.473151248     A.U. after   20 cycles
 Normal termination of Gaussian 16 at Tue Apr  8 23:05:49 2025.
 Gaussian 16:  ES64L-G16RevC.01  3-Jul-2019

 ----------------------------------------------------------------------
 #t hf aug-cc-pvdz iop(5/13=1,5/36=2,99/5=2) pseudo=read geom=check gue
 ss=(read,tcheck) scf=(maxcycle=1)
 ----------------------------------------------------------------------
 -----
 title
 -----
 Structure from the checkpoint file:  "BDE49_expt_356_mol2.chk"
 Charge =  0 Multiplicity = 2

                         Standard orientation:
 ---------------------------------------------------------------------
 Center     Atomic      Atomic             Coordinates (Angstroms)
 Number     Number       Type             X           Y           Z
 ---------------------------------------------------------------------
      1          7           0        1.186281   -0.120571   -0.000021
      2          6           0        1.488068    1.306340    0.000007
      3          1           0        2.079914    1.559149    0.887957
      4          1           0        0.557616    1.866288   -0.000022
      5          1           0        2.079987    1.559163   -0.887889
      6          6           0        2.341335   -1.000207   -0.000006
      7          1           0        2.961032   -0.821961   -0.886928
      8          1           0        2.023194   -2.042098   -0.000074
      9          1           0        2.960951   -0.822051    0.886994
     10          6           0       -1.310433    0.071312    0.000031
     11          8           0       -1.426742    1.311193   -0.000016
     12          6           0       -2.571329   -0.785804   -0.000002
     13          1           0       -2.374623   -1.860334    0.000003
     14          1           0       -3.171452   -0.536581   -0.879631
     15          1           0       -3.171492   -0.536580    0.879598
     16          6           0       -0.069853   -0.639810    0.000013
     17          1           0       -0.101888   -1.721531    0.000010
 ---------------------------------------------------------------------

 SCF Done:  E(UHF) =  -325.996028926     A.U. after    2 cycles

 The electronic state is 2-A.
 Alpha  occ. eigenvalues --  -21.02905 -15.76118 -11.47612 -11.41369 -11.40841
 Alpha  occ. eigenvalues --  -11.38673 -11.36827  -1.69024  -1.46273  -1.13814
 Alpha  occ. eigenvalues --   -1.05383  -1.03443  -0.87727  -0.74358  -0.67107
 Alpha  occ. eigenvalues --   -0.66459  -0.62099  -0.57983  -0.57625  -0.55619
 Alpha  occ. eigenvalues --   -0.55213  -0.51728  -0.50491  -0.48300  -0.45777
 Alpha  occ. eigenvalues --   -0.39698  -0.27555  -0.22195
 Alpha virt. eigenvalues --    0.03119   0.04834   0.05129   0.05613   0.06141
 Alpha virt. eigenvalues --    0.06814   0.07097   0.07465   0.07889   0.08691
 Alpha virt. eigenvalues --    0.11481   0.12065   0.12175   0.13500   0.13777

  Beta  occ. eigenvalues --  -21.01217 -15.74893 -11.47677 -11.41156 -11.40506
  Beta  occ. eigenvalues --  -11.38781 -11.36825  -1.65729  -1.43747  -1.11485
  Beta  occ. eigenvalues --   -1.05344  -1.02399  -0.85888  -0.73589  -0.66640
  Beta  occ. eigenvalues --   -0.63739  -0.61783  -0.57334  -0.57207  -0.55354
  Beta  occ. eigenvalues --   -0.54916  -0.51478  -0.50205  -0.44884  -0.42015
  Beta  occ. eigenvalues --   -0.32642  -0.26081
  Beta virt. eigenvalues --    0.03158   0.04851   0.05136   0.05416   0.06154
  Beta virt. eigenvalues --    0.06808   0.07119   0.07400   0.07925   0.08695
  Beta virt. eigenvalues --    0.09724   0.11513   0.12208   0.13520   0.13855

 Mulliken charges and spin densities:
               1          2
     1  N   -3.526654   0.346485
     2  C   -3.665609  -0.051470
     3  H    1.395674   0.013666
     4  H    1.527606  -0.004509
     5  H    1.395659   0.013666
     6  C   -3.645638  -0.042804
     7  H    1.419468   0.010094
     8  H    1.421081   0.000045
     9  H    1.419461   0.010093
    10  C    5.272673  -0.589581
    11  O   -3.652566   0.489890
    12  C   -4.407220   0.037678
    13  H    1.313720   0.001821
    14  H    1.233731  -0.001416
    15  H    1.233752  -0.001418
    16  C   -0.698230   0.742353
    17  H    1.963093   0.025406
 Sum of Mulliken charges =  -0.00000   1.00000

 Dipole moment (field-independent basis, Debye):
    X=              2.6572    Y=             -1.3317    Z=             -0.0001  Tot=              2.9722
                          Isotropic Fermi Contact Couplings
        Atom                 a.u.       MegaHertz       Gauss      10(-4) cm-1
     1  N(14)              0.09443      30.51033      10.88685      10.17715
     2  C(13)             -0.01191     -13.39411      -4.77935      -4.46779
     3  H(1)               0.00454      20.28411       7.23788       6.76605
     4  H(1)               0.00060       2.65959       0.94901       0.88714
     5  H(1)               0.00454      20.28051       7.23659       6.76485
     6  C(13)             -0.01158     -13.01573      -4.64434      -4.34158
     7  H(1)               0.00336      15.02927       5.36282       5.01322
     8  H(1)               0.00033       1.46382       0.52233       0.48828

 Normal termination of Gaussian 16 at Tue Apr  8 23:05:55 2025.
