 Gaussian 16, Revision C.01,

 ----------------------------------------------------------------------
 #t hf aug-cc-pvdz symm=none int=(grid=ultrafine) guess=(read,tcheck) s
 table=(opt,rrhf)
 ----------------------------------------------------------------------
 -----
 title
 -----
 Symbolic Z-matrix:
 Charge =  0 Multiplicity = 1

 SCF Done:  E(RHF) =  -669.726399798     A.U. after   13 cycles
 Normal termination of Gaussian 16 at Tue Apr  8 23:55:57 2025.
 Gaussian 16:  ES64L-G16RevC.01  3-Jul-2019

 ----------------------------------------------------------------------
 #t hf aug-cc-pvdz iop(5/13=1,5/36=2,99/5=2) pseudo=read geom=check gue
 ss=(read,tcheck) scf=(maxcycle=1)
 ----------------------------------------------------------------------
 -----
 title
 -----
 Structure from the checkpoint file:  "BDE49_nonexpt_1968_mol1.chk"
 Charge =  0 Multiplicity = 1

                         Standard orientation:
 ---------------------------------------------------------------------
 Center     Atomic      Atomic             Coordinates (Angstroms)
 Number     Number       Type             X           Y           Z
 ---------------------------------------------------------------------
      1         14           0        2.514895   -0.790356    0.185577
      2          6           0        1.575228    0.531167   -0.819244
      3          1           0        3.775149   -1.081926   -0.533989
      4          1           0        1.706649   -2.024539    0.281536
      5          1           0        2.816481   -0.276821    1.537393
      6          6           0        0.267857    0.898017   -0.193343
      7          8           0        0.064096    1.784993    0.577313
      8          8           0       -0.747772    0.049779   -0.655481
      9          6           0       -1.813171   -0.296332    0.178057
     10          8           0       -1.711855   -0.364616    1.363368
     11          6           0       -3.028949   -0.608262   -0.648013
     12          1           0       -2.772636   -1.298737   -1.453672
     13          1           0       -3.393862    0.313157   -1.109709
     14          1           0       -3.802346   -1.033603   -0.012028
     15          1           0        1.419216    0.134576   -1.824685
     16          1           0        2.201275    1.424086   -0.869260
 ---------------------------------------------------------------------

 SCF Done:  E(RHF) =  -671.522025412     A.U. after    2 cycles

 The electronic state is 1-A.
 Alpha  occ. eigenvalues --  -76.23272 -21.10889 -21.06969 -21.06728 -11.55093
 Alpha  occ. eigenvalues --  -11.54228 -11.40639 -11.39611  -5.56694  -2.20322
 Alpha  occ. eigenvalues --   -2.19064  -2.18956  -1.87625  -1.72680  -1.66054
 Alpha  occ. eigenvalues --   -1.14661  -1.10440  -0.87190  -0.77452  -0.71616
 Alpha  occ. eigenvalues --   -0.65514  -0.64704  -0.62570  -0.60566  -0.58837
 Alpha  occ. eigenvalues --   -0.53137  -0.52392  -0.49526  -0.47904  -0.47575
 Alpha  occ. eigenvalues --   -0.44856  -0.41216  -0.33467  -0.31644  -0.29145
 Alpha virt. eigenvalues --    0.03240   0.04218   0.04666   0.05152   0.05933
 Alpha virt. eigenvalues --    0.06463   0.06916   0.07475   0.09048   0.09642
 Alpha virt. eigenvalues --    0.09777   0.10497   0.11944   0.12698   0.13311

 Mulliken charges:
               1
     1  Si   5.912526
     2  C   -4.840219
     3  H   -1.651319
     4  H   -1.665993
     5  H   -1.719507
     6  C    5.846347
     7  O   -3.134287
     8  O   -3.332818
     9  C    5.323317
    10  O   -3.014939
    11  C   -4.443407
    12  H    1.311031
    13  H    1.300547
    14  H    1.234833
    15  H    1.543638
    16  H    1.330249
 Sum of Mulliken charges =   0.00000

 Dipole moment (field-independent basis, Debye):
    X=              0.0249    Y=             -0.5845    Z=             -1.8627  Tot=              1.9524

 Test job not archived.
 1\1\GINC-SE338\SP\RHF\Aug-CC-pVDZ\C4H8O3Si1\OHZDE\08-Apr-2025\0\\#t hf
  aug-cc-pvdz iop(5/13=1,5/36=2,99/5=2) pseudo=read geom=check guess=(r
 ead,tcheck) scf=(maxcycle=1)\\title\\0,1\Si,0,2.514895,-0.790356,0.185
 577\C,0,1.575228,0.531167,-0.819244\H,0,3.775149,-1.081926,-0.533989\H
 ,0,1.706649,-2.024539,0.281536\H,0,2.816481,-0.276821,1.537393\C,0,0.2
 67857,0.898017,-0.193343\O,0,0.064096,1.784993,0.577313\O,0,-0.747772,
 0.049779,-0.655481\C,0,-1.813171,-0.296332,0.178057\O,0,-1.711855,-0.3
 64616,1.363368\C,0,-3.028949,-0.608262,-0.648013\H,0,-2.772636,-1.2987

 Normal termination of Gaussian 16 at Tue Apr  8 23:56:02 2025.
