 Gaussian 16, Revision C.01,

 ----------------------------------------------------------------------
 #t hf aug-cc-pvdz symm=none int=(grid=ultrafine) guess=(read,tcheck) s
 table=(opt,rrhf)
 ----------------------------------------------------------------------
 -----
 title
 -----
 Symbolic Z-matrix:
 Charge =  0 Multiplicity = 1

 SCF Done:  E(RHF) =  -755.068987614     A.U. after   14 cycles
 Normal termination of Gaussian 16 at Tue Apr  8 23:22:02 2025.
 Gaussian 16:  ES64L-G16RevC.01  3-Jul-2019

 ----------------------------------------------------------------------
 #t hf aug-cc-pvdz iop(5/13=1,5/36=2,99/5=2) pseudo=read geom=check gue
 ss=(read,tcheck) scf=(maxcycle=1)
 ----------------------------------------------------------------------
 -----
 title
 -----
 Structure from the checkpoint file:  "BDE49_expt_808_mol1.chk"
 Charge =  0 Multiplicity = 1

                         Standard orientation:
 ---------------------------------------------------------------------
 Center     Atomic      Atomic             Coordinates (Angstroms)
 Number     Number       Type             X           Y           Z
 ---------------------------------------------------------------------
      1         14           0        0.237616    1.304496    0.328877
      2          1           0        0.496007    1.386963    1.790127
      3          6           0        1.707636    0.539834   -0.597263
      4          6           0       -0.018077    3.048505   -0.339043
      5          6           0       -1.351560    0.308908    0.125451
      6          1           0        0.868418    3.667784   -0.172066
      7          1           0       -0.866946    3.532699    0.151169
      8          1           0       -0.219097    3.035481   -1.414735
      9          6           0       -1.847521   -0.029652   -1.144812
     10          6           0       -3.035908   -0.740200   -1.293758
     11          6           0       -3.760475   -1.130404   -0.168514
     12          6           0       -3.290242   -0.805048    1.101232
     13          6           0       -2.099751   -0.093355    1.242875
     14          1           0       -1.747065    0.150776    2.240204
     15          1           0       -1.301370    0.263637   -2.037011
     16          1           0       -3.397349   -0.989844   -2.285571
     17          1           0       -4.685680   -1.684650   -0.281962
     18          1           0       -3.849293   -1.105364    1.980936
     19          6           0        2.476594   -0.686279   -0.029566
     20          1           0        2.426706    1.355229   -0.755229
     21          1           0        1.338029    0.288552   -1.601581
     22          6           0        3.191115   -0.310593    1.282305
     23          1           0        3.882415    0.524290    1.128411
     24          1           0        3.771717   -1.157477    1.661074
     25          1           0        2.481765   -0.018586    2.060377
     26          6           0        1.524052   -1.868790    0.224191
     27          1           0        0.779790   -1.634878    0.989975
     28          1           0        2.083527   -2.746686    0.562427
     29          1           0        0.983798   -2.145881   -0.685854
     30          6           0        3.537864   -1.116877   -1.062579
     31          1           0        4.236208   -0.300978   -1.273639
     32          1           0        3.070422   -1.410686   -2.007589
     33          1           0        4.119014   -1.969614   -0.696869
 ---------------------------------------------------------------------

 SCF Done:  E(RHF) =  -757.597296154     A.U. after    2 cycles

 The electronic state is 1-A.
 Alpha  occ. eigenvalues --  -76.19165 -11.51364 -11.42874 -11.42320 -11.41735
 Alpha  occ. eigenvalues --  -11.40465 -11.40284 -11.38350 -11.38170 -11.37941
 Alpha  occ. eigenvalues --  -11.35679 -11.34406 -11.33627  -5.53098  -2.18519
 Alpha  occ. eigenvalues --   -2.17199  -2.16794  -1.33210  -1.28043  -1.08716
 Alpha  occ. eigenvalues --   -1.08618  -1.03582  -0.99644  -0.99584  -0.98761
 Alpha  occ. eigenvalues --   -0.85725  -0.85035  -0.76887  -0.72548  -0.67898
 Alpha  occ. eigenvalues --   -0.62837  -0.61911  -0.61737  -0.59022  -0.57997
 Alpha  occ. eigenvalues --   -0.56604  -0.55719  -0.54898  -0.54810  -0.53446
 Alpha  occ. eigenvalues --   -0.51441  -0.50623  -0.50293  -0.49891  -0.45534
 Alpha  occ. eigenvalues --   -0.44432  -0.43543  -0.41618  -0.40552  -0.37773
 Alpha  occ. eigenvalues --   -0.36143  -0.32636  -0.32246
 Alpha virt. eigenvalues --    0.03553   0.04328   0.04954   0.05205   0.05354
 Alpha virt. eigenvalues --    0.05614   0.05961   0.05996   0.06170   0.06459
 Alpha virt. eigenvalues --    0.06587   0.06892   0.07827   0.08058   0.08252

 Mulliken charges:
               1
     1  Si   7.990091
     2  H   -2.670967
     3  C   -5.886806
     4  C   -5.833165
     5  C    0.289679
     6  H    1.161373
     7  H    1.104021
     8  H    1.416917
     9  C   -1.810032
    10  C   -1.913894
    11  C   -2.179981
    12  C   -1.419572
    13  C   -3.239098
    14  H    1.808542
    15  H    1.949472
    16  H    1.565119
    17  H    1.578782
    18  H    1.622044
    19  C    6.593227
    20  H    1.466573
    21  H    1.516276
    22  C   -5.491691
    23  H    1.200697
    24  H    1.178001
    25  H    1.427875
    26  C   -5.788193
    27  H    1.574191
    28  H    1.040712
    29  H    1.380502
    30  C   -5.285487
    31  H    1.175936
    32  H    1.229101
    33  H    1.249755
 Sum of Mulliken charges =   0.00000

 Dipole moment (field-independent basis, Debye):
    X=             -0.4015    Y=             -0.3502    Z=             -0.6313  Tot=              0.8261

 Test job not archived.
 1\1\GINC-SE128\SP\RHF\Aug-CC-pVDZ\C12H20Si1\OHZDE\08-Apr-2025\0\\#t hf
  aug-cc-pvdz iop(5/13=1,5/36=2,99/5=2) pseudo=read geom=check guess=(r
 ead,tcheck) scf=(maxcycle=1)\\title\\0,1\Si,0,0.237616,1.304496,0.3288
 77\H,0,0.496007,1.386963,1.790127\C,0,1.707636,0.539834,-0.597263\C,0,
 -0.018077,3.048505,-0.339043\C,0,-1.35156,0.308908,0.125451\H,0,0.8684
 18,3.667784,-0.172066\H,0,-0.866946,3.532699,0.151169\H,0,-0.219097,3.
 035481,-1.414735\C,0,-1.847521,-0.029652,-1.144812\C,0,-3.035908,-0.74
 02,-1.293758\C,0,-3.760475,-1.130404,-0.168514\C,0,-3.290242,-0.805048

 Normal termination of Gaussian 16 at Tue Apr  8 23:22:43 2025.
