 Gaussian 16, Revision C.01,

 ----------------------------------------------------------------------
 #t hf aug-cc-pvdz symm=none int=(grid=ultrafine) guess=(read,tcheck) s
 table=(opt,rrhf)
 ----------------------------------------------------------------------
 -----
 title
 -----
 Symbolic Z-matrix:
 Charge =  0 Multiplicity = 1

 SCF Done:  E(RHF) =  -671.698762180     A.U. after   13 cycles
 Normal termination of Gaussian 16 at Tue Apr  8 22:45:27 2025.
 Gaussian 16:  ES64L-G16RevC.01  3-Jul-2019

 ----------------------------------------------------------------------
 #t hf aug-cc-pvdz iop(5/13=1,5/36=2,99/5=2) pseudo=read geom=check gue
 ss=(read,tcheck) scf=(maxcycle=1)
 ----------------------------------------------------------------------
 -----
 title
 -----
 Structure from the checkpoint file:  "BDE49_expt_1529_mol1.chk"
 Charge =  0 Multiplicity = 1

                         Standard orientation:
 ---------------------------------------------------------------------
 Center     Atomic      Atomic             Coordinates (Angstroms)
 Number     Number       Type             X           Y           Z
 ---------------------------------------------------------------------
      1          6           0        0.000000    0.516406    0.000000
      2          9           0        1.315128    0.717604    0.000000
      3          8           0       -0.804687    1.368067    0.000000
      4         17           0       -0.317568   -1.205965    0.000000
 ---------------------------------------------------------------------

 SCF Done:  E(RHF) =  -672.729667403     A.U. after    2 cycles

 The electronic state is 1-A'.
 Alpha  occ. eigenvalues --  -99.94970 -29.35467 -21.13130 -11.61400 -10.52396
 Alpha  occ. eigenvalues --   -9.72143  -9.71322  -9.71257  -1.80884  -1.38997
 Alpha  occ. eigenvalues --   -1.07976  -0.79010  -0.66344  -0.65214  -0.55707
 Alpha  occ. eigenvalues --   -0.52078  -0.47075  -0.38548  -0.33884  -0.31749
 Alpha virt. eigenvalues --    0.05686   0.07534   0.09974   0.10063   0.12574
 Alpha virt. eigenvalues --    0.12975   0.14736   0.15050   0.17240   0.19336
 Alpha virt. eigenvalues --    0.23712   0.24394   0.26035   0.28313   0.29407

 Mulliken charges:
               1
     1  C    1.050130
     2  F    1.041117
     3  O   -2.066809
     4  Cl  -0.024438
 Sum of Mulliken charges =   0.00000

 Dipole moment (field-independent basis, Debye):
    X=              3.4261    Y=              1.4329    Z=              0.0000  Tot=              3.7137

 Test job not archived.
 1\1\GINC-SE424\SP\RHF\Aug-CC-pVDZ\C1Cl1F1O1\OHZDE\08-Apr-2025\0\\#t hf
  aug-cc-pvdz iop(5/13=1,5/36=2,99/5=2) pseudo=read geom=check guess=(r
 ead,tcheck) scf=(maxcycle=1)\\title\\0,1\C,0,0.,0.516406,0.\F,0,1.3151
 28,0.717604,0.\O,0,-0.804687,1.368067,0.\Cl,0,-0.317568,-1.205965,0.\\
 Version=ES64L-G16RevC.01\State=1-A'\HF=-672.7296674\RMSD=3.802e-02\Dip
 ole=1.3479359,0.5637553,0.\Quadrupole=1.3157381,-0.8143245,-0.5014136,
 2.2006729,0.,0.\PG=CS [SG(C1Cl1F1O1)]\\@

 Normal termination of Gaussian 16 at Tue Apr  8 22:45:29 2025.
