 Gaussian 16, Revision C.01,

 ----------------------------------------------------------------------
 #t hf aug-cc-pvdz symm=none int=(grid=ultrafine) guess=(read,tcheck) s
 table=(opt,rrhf)
 ----------------------------------------------------------------------
 -----
 title
 -----
 Symbolic Z-matrix:
 Charge =  0 Multiplicity = 1

 SCF Done:  E(RHF) =  -174.761317358     A.U. after   13 cycles
 Normal termination of Gaussian 16 at Tue Apr  8 22:58:34 2025.
 Gaussian 16:  ES64L-G16RevC.01  3-Jul-2019

 ----------------------------------------------------------------------
 #t hf aug-cc-pvdz iop(5/13=1,5/36=2,99/5=2) pseudo=read geom=check gue
 ss=(read,tcheck) scf=(maxcycle=1)
 ----------------------------------------------------------------------
 -----
 title
 -----
 Structure from the checkpoint file:  "BDE49_expt_1901_mol1.chk"
 Charge =  0 Multiplicity = 1

                         Standard orientation:
 ---------------------------------------------------------------------
 Center     Atomic      Atomic             Coordinates (Angstroms)
 Number     Number       Type             X           Y           Z
 ---------------------------------------------------------------------
      1          8           0        0.053346    0.709146    0.000000
      2          9           0        0.053346   -0.724763    0.000000
      3          1           0       -0.906885    0.849694    0.000000
 ---------------------------------------------------------------------

 SCF Done:  E(RHF) =  -175.395232853     A.U. after    2 cycles

 The electronic state is 1-A'.
 Alpha  occ. eigenvalues --  -29.30483 -21.18719  -1.77273  -0.72340  -0.60495
 Alpha  occ. eigenvalues --   -0.50063  -0.37157  -0.27183  -0.22488
 Alpha virt. eigenvalues --    0.04753   0.16045   0.17366   0.20307   0.21829
 Alpha virt. eigenvalues --    0.27627   0.30176   0.31539   0.32015   0.34647
 Alpha virt. eigenvalues --    0.40312   0.45740   0.59929   0.65198   0.68966

 Mulliken charges:
               1
     1  O   -1.037852
     2  F    0.167299
     3  H    0.870553
 Sum of Mulliken charges =  -0.00000

 Dipole moment (field-independent basis, Debye):
    X=             -0.8599    Y=             -0.4668    Z=              0.0000  Tot=              0.9784

 Test job not archived.
 1\1\GINC-SE086\SP\RHF\Aug-CC-pVDZ\F1H1O1\OHZDE\08-Apr-2025\0\\#t hf au
 g-cc-pvdz iop(5/13=1,5/36=2,99/5=2) pseudo=read geom=check guess=(read
 ,tcheck) scf=(maxcycle=1)\\title\\0,1\O,0,0.053346,0.709146,0.\F,0,0.0
 53346,-0.724763,0.\H,0,-0.906885,0.849694,0.\\Version=ES64L-G16RevC.01
 \State=1-A'\HF=-175.3952329\RMSD=3.754e-02\Dipole=-0.3383003,-0.183665
 1,0.\Quadrupole=0.9855722,-0.2794652,-0.706107,-0.8692404,0.,0.\PG=CS
 [SG(F1H1O1)]\\@

 Normal termination of Gaussian 16 at Tue Apr  8 22:58:36 2025.
