 Gaussian 16, Revision C.01,

 ----------------------------------------------------------------------
 #t hf aug-cc-pvdz symm=none int=(grid=ultrafine) guess=(read,tcheck) s
 table=(opt,rrhf)
 ----------------------------------------------------------------------
 -----
 title
 -----
 Symbolic Z-matrix:
 Charge =  0 Multiplicity = 1

 SCF Done:  E(RHF) =  -776.062288154     A.U. after   15 cycles
 Normal termination of Gaussian 16 at Tue Apr  8 22:59:01 2025.
 Gaussian 16:  ES64L-G16RevC.01  3-Jul-2019

 ----------------------------------------------------------------------
 #t hf aug-cc-pvdz iop(5/13=1,5/36=2,99/5=2) pseudo=read geom=check gue
 ss=(read,tcheck) scf=(maxcycle=1)
 ----------------------------------------------------------------------
 -----
 title
 -----
 Structure from the checkpoint file:  "BDE49_expt_1917_mol1.chk"
 Charge =  0 Multiplicity = 1

                         Standard orientation:
 ---------------------------------------------------------------------
 Center     Atomic      Atomic             Coordinates (Angstroms)
 Number     Number       Type             X           Y           Z
 ---------------------------------------------------------------------
      1          8           0       -0.535029   -0.048827   -0.943888
      2         16           0        0.784691   -0.211944    0.064478
      3          6           0        1.297229    1.487894    0.223671
      4          1           0        1.593844    1.847331   -0.759486
      5          1           0        2.137200    1.499676    0.917960
      6          1           0        0.455890    2.051873    0.621757
      7          8           0        1.703232   -0.942389   -0.759259
      8          8           0        0.348879   -0.693055    1.345414
      9          8           0       -1.584348    0.686165   -0.246395
     10          6           0       -2.578752   -0.260911    0.151704
     11          1           0       -3.359565    0.362227    0.593441
     12          1           0       -2.183538   -0.955687    0.893926
     13          1           0       -2.971618   -0.791364   -0.718473
 ---------------------------------------------------------------------

 SCF Done:  E(RHF) =  -777.970383120     A.U. after    2 cycles

 The electronic state is 1-A.
 Alpha  occ. eigenvalues --  -75.92443 -21.13553 -21.13274 -21.06938 -21.06816
 Alpha  occ. eigenvalues --  -13.55847 -13.45468 -13.37264 -11.43720 -11.42479
 Alpha  occ. eigenvalues --   -8.27618  -2.00556  -1.84084  -1.67464  -1.50258
 Alpha  occ. eigenvalues --   -1.15678  -0.99338  -0.89266  -0.68383  -0.65982
 Alpha  occ. eigenvalues --   -0.64720  -0.63435  -0.62786  -0.56647  -0.55473
 Alpha  occ. eigenvalues --   -0.51490  -0.43759  -0.43288  -0.40114  -0.39553
 Alpha  occ. eigenvalues --   -0.38210  -0.36936  -0.31641
 Alpha virt. eigenvalues --    0.02971   0.04182   0.05575   0.05595   0.06409
 Alpha virt. eigenvalues --    0.07019   0.09389   0.11676   0.12362   0.12558
 Alpha virt. eigenvalues --    0.13868   0.15061   0.15345   0.15367   0.16094

 Mulliken charges:
               1
     1  O   -1.498877
     2  S    7.223092
     3  C   -4.666675
     4  H    1.347311
     5  H    1.346811
     6  H    1.433984
     7  O   -2.546851
     8  O   -2.607098
     9  O   -1.500543
    10  C   -2.569589
    11  H    1.271740
    12  H    1.400030
    13  H    1.366666
 Sum of Mulliken charges =  -0.00000

 Dipole moment (field-independent basis, Debye):
    X=             -1.6262    Y=              1.8042    Z=              0.1919  Tot=              2.4365

 Test job not archived.
 1\1\GINC-SE457\SP\RHF\Aug-CC-pVDZ\C2H6O4S1\OHZDE\08-Apr-2025\0\\#t hf
 aug-cc-pvdz iop(5/13=1,5/36=2,99/5=2) pseudo=read geom=check guess=(re
 ad,tcheck) scf=(maxcycle=1)\\title\\0,1\O,0,-0.535029,-0.048827,-0.943
 888\S,0,0.784691,-0.211944,0.064478\C,0,1.297229,1.487894,0.223671\H,0
 ,1.593844,1.847331,-0.759486\H,0,2.1372,1.499676,0.91796\H,0,0.45589,2
 .051873,0.621757\O,0,1.703232,-0.942389,-0.759259\O,0,0.348879,-0.6930
 55,1.345414\O,0,-1.584348,0.686165,-0.246395\C,0,-2.578752,-0.260911,0
 .151704\H,0,-3.359565,0.362227,0.593441\H,0,-2.183538,-0.955687,0.8939

 Normal termination of Gaussian 16 at Tue Apr  8 22:59:05 2025.
