 Gaussian 16, Revision C.01,

 ----------------------------------------------------------------------
 #t hf aug-cc-pvdz symm=none int=(grid=ultrafine) guess=(read,tcheck) s
 table=opt
 ----------------------------------------------------------------------
 -----
 title
 -----
 Symbolic Z-matrix:
 Charge =  0 Multiplicity = 2

 SCF Done:  E(UHF) =  -407.748127682     A.U. after   14 cycles

 1\1\GINC-SE165\Stability\UHF\Aug-CC-pVDZ\C3H9Si1\OHZDE\08-Apr-2025\0\\
 #t hf aug-cc-pvdz symm=none int=(grid=ultrafine) guess=(read,tcheck) s
 table=opt\\title\\0,2\Si,0,-1.858476,-0.001436,0.000001\C,0,2.427697,0
 .035687,-0.000002\C,0,-0.069337,0.616912,-0.000006\C,0,0.992531,-0.504
 361,0.000004\H,0,0.070913,1.2613,0.875883\H,0,0.070912,1.261283,-0.875
 909\H,0,0.84608,-1.146296,-0.875527\H,0,0.846081,-1.146279,0.875549\H,
 0,2.616045,0.653417,0.883334\H,0,2.616044,0.653399,-0.88335\H,0,3.1572
 53,-0.779347,0.000006\H,0,-2.155007,-0.813415,-1.21152\H,0,-2.155007,-

 Normal termination of Gaussian 16 at Tue Apr  8 23:41:25 2025.
 Gaussian 16:  ES64L-G16RevC.01  3-Jul-2019

 ----------------------------------------------------------------------
 #t hf aug-cc-pvdz iop(5/13=1,5/36=2,99/5=2) pseudo=read geom=check gue
 ss=(read,tcheck) scf=(maxcycle=1)
 ----------------------------------------------------------------------
 -----
 title
 -----
 Structure from the checkpoint file:  "BDE49_nonexpt_1632_mol2.chk"
 Charge =  0 Multiplicity = 2

                         Standard orientation:
 ---------------------------------------------------------------------
 Center     Atomic      Atomic             Coordinates (Angstroms)
 Number     Number       Type             X           Y           Z
 ---------------------------------------------------------------------
      1         14           0       -1.858476   -0.001436    0.000001
      2          6           0        2.427697    0.035687   -0.000002
      3          6           0       -0.069337    0.616912   -0.000006
      4          6           0        0.992531   -0.504361    0.000004
      5          1           0        0.070913    1.261300    0.875883
      6          1           0        0.070912    1.261283   -0.875909
      7          1           0        0.846080   -1.146296   -0.875527
      8          1           0        0.846081   -1.146279    0.875549
      9          1           0        2.616045    0.653417    0.883334
     10          1           0        2.616044    0.653399   -0.883350
     11          1           0        3.157253   -0.779347    0.000006
     12          1           0       -2.155007   -0.813415   -1.211520
     13          1           0       -2.155007   -0.813385    1.211542
 ---------------------------------------------------------------------

 SCF Done:  E(UHF) =  -408.515050175     A.U. after    2 cycles

 The electronic state is 2-A.
 Alpha  occ. eigenvalues --  -76.21697 -11.41098 -11.37396 -11.34588  -5.55093
 Alpha  occ. eigenvalues --   -2.18846  -2.17093  -2.16499  -1.20722  -0.99872
 Alpha  occ. eigenvalues --   -0.84985  -0.73258  -0.63789  -0.57610  -0.54285
 Alpha  occ. eigenvalues --   -0.52118  -0.46969  -0.46628  -0.46044  -0.39664
 Alpha  occ. eigenvalues --   -0.26086
 Alpha virt. eigenvalues --    0.03852   0.04957   0.05613   0.05785   0.06280
 Alpha virt. eigenvalues --    0.06657   0.06848   0.06981   0.08760   0.09622
 Alpha virt. eigenvalues --    0.10193   0.10874   0.11585   0.13474   0.14774

  Beta  occ. eigenvalues --  -76.21152 -11.41024 -11.37365 -11.34535  -5.54239
  Beta  occ. eigenvalues --   -2.18099  -2.16451  -2.13069  -1.20422  -0.99489
  Beta  occ. eigenvalues --   -0.84596  -0.69244  -0.63706  -0.57399  -0.54188
  Beta  occ. eigenvalues --   -0.51521  -0.46800  -0.46235  -0.45508  -0.38610
  Beta virt. eigenvalues --    0.03580   0.04295   0.05277   0.05753   0.05876
  Beta virt. eigenvalues --    0.06411   0.06707   0.07015   0.08509   0.09231
  Beta virt. eigenvalues --    0.10274   0.10631   0.11059   0.11820   0.14102

 Mulliken charges and spin densities:
               1          2
     1  Si   3.898825   1.074035
     2  C   -3.752173   0.011899
     3  C   -3.676278   0.003630
     4  C   -2.845438  -0.009368
     5  H    1.439493  -0.011912
     6  H    1.439491  -0.011912
     7  H    1.513306  -0.017984
     8  H    1.513304  -0.017984
     9  H    1.251095   0.001471
    10  H    1.251096   0.001471
    11  H    1.146007  -0.001658
    12  H   -1.589363  -0.010844
    13  H   -1.589364  -0.010844
 Sum of Mulliken charges =   0.00000   1.00000

 Dipole moment (field-independent basis, Debye):
    X=              0.9542    Y=              0.4960    Z=             -0.0000  Tot=              1.0754
                          Isotropic Fermi Contact Couplings
        Atom                 a.u.       MegaHertz       Gauss      10(-4) cm-1
     1  Si(29)             0.44772    -397.89783    -141.97984    -132.72443
     2  C(13)              0.00510       5.73678       2.04702       1.91358
     3  C(13)              0.01427      16.03689       5.72236       5.34933
     4  C(13)              0.01985      22.31824       7.96370       7.44456
     5  H(1)               0.00034       1.53144       0.54646       0.51083
     6  H(1)               0.00034       1.53153       0.54649       0.51086
     7  H(1)              -0.00017      -0.77884      -0.27791      -0.25979
     8  H(1)              -0.00017      -0.77885      -0.27791      -0.25980

 Normal termination of Gaussian 16 at Tue Apr  8 23:41:29 2025.
