 Gaussian 16, Revision C.01,

 ----------------------------------------------------------------------
 #t hf aug-cc-pvdz symm=none int=(grid=ultrafine) guess=(read,tcheck) s
 table=opt
 ----------------------------------------------------------------------
 -----
 title
 -----
 Symbolic Z-matrix:
 Charge =  0 Multiplicity = 2

 SCF Done:  E(UHF) =  -800.907321273     A.U. after   22 cycles
 Normal termination of Gaussian 16 at Tue Apr  8 23:54:22 2025.
 Gaussian 16:  ES64L-G16RevC.01  3-Jul-2019

 ----------------------------------------------------------------------
 #t hf aug-cc-pvdz iop(5/13=1,5/36=2,99/5=2) pseudo=read geom=check gue
 ss=(read,tcheck) scf=(maxcycle=1)
 ----------------------------------------------------------------------
 -----
 title
 -----
 Structure from the checkpoint file:  "BDE49_nonexpt_1941_mol2.chk"
 Charge =  0 Multiplicity = 2

                         Standard orientation:
 ---------------------------------------------------------------------
 Center     Atomic      Atomic             Coordinates (Angstroms)
 Number     Number       Type             X           Y           Z
 ---------------------------------------------------------------------
      1         14           0       -1.648688   -0.431925   -0.088140
      2          6           0        0.024416    0.490398    0.004544
      3          1           0       -1.572029   -1.800039    0.475270
      4          1           0       -2.710351    0.395758    0.523621
      5          8           0        0.101356    1.691105    0.013913
      6         16           0        1.501962   -0.590804    0.007819
      7          1           0        2.375266    0.432861   -0.028603
 ---------------------------------------------------------------------

 SCF Done:  E(UHF) =  -801.734973732     A.U. after    2 cycles

 The electronic state is 2-A.
 Alpha  occ. eigenvalues --  -76.25851 -75.71289 -21.09095 -13.14732 -13.10990
 Alpha  occ. eigenvalues --  -13.02802 -11.48971  -8.05292  -5.59319  -2.22782
 Alpha  occ. eigenvalues --   -2.21612  -2.19923  -1.73840  -1.15962  -0.87617
 Alpha  occ. eigenvalues --   -0.71191  -0.56644  -0.55611  -0.51231  -0.49447
 Alpha  occ. eigenvalues --   -0.45612  -0.30610  -0.27209  -0.24797
 Alpha virt. eigenvalues --    0.03356   0.04872   0.05672   0.06304   0.06506
 Alpha virt. eigenvalues --    0.08613   0.09355   0.09552   0.12230   0.12602
 Alpha virt. eigenvalues --    0.13580   0.14756   0.15592   0.16135   0.17041

  Beta  occ. eigenvalues --  -76.25279 -75.71286 -21.08498 -13.14727 -13.10955
  Beta  occ. eigenvalues --  -13.02819 -11.49233  -8.05288  -5.58429  -2.22065
  Beta  occ. eigenvalues --   -2.20930  -2.16230  -1.72723  -1.15863  -0.85271
  Beta  occ. eigenvalues --   -0.69192  -0.56487  -0.55290  -0.50378  -0.48968
  Beta  occ. eigenvalues --   -0.45439  -0.26456  -0.25615
  Beta virt. eigenvalues --    0.02244   0.03539   0.05151   0.05895   0.06606
  Beta virt. eigenvalues --    0.07804   0.08924   0.09668   0.11168   0.12673
  Beta virt. eigenvalues --    0.13941   0.14224   0.15430   0.16171   0.16421

 Mulliken charges and spin densities:
               1          2
     1  Si   3.972077   1.032685
     2  C    0.599735  -0.183199
     3  H   -1.427275  -0.010197
     4  H   -1.404884  -0.009586
     5  O   -2.340694   0.165577
     6  S   -0.457171   0.003620
     7  H    1.058212   0.001101
 Sum of Mulliken charges =  -0.00000   1.00000

 Dipole moment (field-independent basis, Debye):
    X=             -0.1747    Y=             -1.5892    Z=             -0.1683  Tot=              1.6076
                          Isotropic Fermi Contact Couplings
        Atom                 a.u.       MegaHertz       Gauss      10(-4) cm-1
     1  Si(29)             0.45725    -406.36949    -145.00274    -135.55027
     2  C(13)             -0.00789      -8.86991      -3.16501      -2.95868
     3  H(1)               0.00143       6.38997       2.28010       2.13147
     4  H(1)               0.00162       7.21926       2.57601       2.40809
     5  O(17)              0.03312     -20.07956      -7.16489      -6.69782
     6  S(33)              0.00236       0.80968       0.28891       0.27008
     7  H(1)              -0.00006      -0.26880      -0.09591      -0.08966
 --------------------------------------------------------

 1\1\GINC-SE109\SP\UHF\Aug-CC-pVDZ\C1H3O1S1Si1(2)\OHZDE\08-Apr-2025\0\\
 #t hf aug-cc-pvdz iop(5/13=1,5/36=2,99/5=2) pseudo=read geom=check gue
 ss=(read,tcheck) scf=(maxcycle=1)\\title\\0,2\Si,0,-1.648688,-0.431925
 ,-0.08814\C,0,0.024416,0.490398,0.004544\H,0,-1.572029,-1.800039,0.475
 27\H,0,-2.710351,0.395758,0.523621\O,0,0.101356,1.691105,0.013913\S,0,
 1.501962,-0.590804,0.007819\H,0,2.375266,0.432861,-0.028603\\Version=E
 S64L-G16RevC.01\State=2-A\HF=-801.7349737\S2=0.774388\S2-1=0.\S2A=0.75
 0232\RMSD=1.038e-01\Dipole=-0.0687328,-0.625226,-0.0661948\Quadrupole=

 Normal termination of Gaussian 16 at Tue Apr  8 23:54:25 2025.
