 Gaussian 16, Revision C.01,

 ----------------------------------------------------------------------
 #t hf aug-cc-pvdz symm=none int=(grid=ultrafine) guess=(read,tcheck) s
 table=(opt,rrhf)
 ----------------------------------------------------------------------
 -----
 title
 -----
 Symbolic Z-matrix:
 Charge =  0 Multiplicity = 1

 SCF Done:  E(RHF) =  -270.056073114     A.U. after   12 cycles

 1\1\GINC-SE402\Stability\RHF\Aug-CC-pVDZ\C5H10O1\OHZDE\08-Apr-2025\0\\
 #t hf aug-cc-pvdz symm=none int=(grid=ultrafine) guess=(read,tcheck) s
 table=(opt,rrhf)\\title\\0,1\C,0,-1.09827,-0.890638,-0.429536\C,0,-1.4
 49968,0.599569,-0.225603\C,0,0.019395,-1.13726,0.59481\H,0,-0.70137,-1
 .047022,-1.43563\H,0,-1.957146,-1.553097,-0.30028\C,0,0.878317,0.13206
 2,0.486068\H,0,0.595536,-2.05,0.412785\H,0,-0.398669,-1.208684,1.60640
 6\C,0,-0.144333,1.267853,0.295365\H,0,-0.317681,1.788125,1.24052\H,0,0
 .267007,1.994126,-0.407306\H,0,-2.24573,0.697553,0.518887\H,0,-1.81539

 Normal termination of Gaussian 16 at Tue Apr  8 22:41:49 2025.
 Gaussian 16:  ES64L-G16RevC.01  3-Jul-2019

 ----------------------------------------------------------------------
 #t hf aug-cc-pvdz iop(5/13=1,5/36=2,99/5=2) pseudo=read geom=check gue
 ss=(read,tcheck) scf=(maxcycle=1)
 ----------------------------------------------------------------------
 -----
 title
 -----
 Structure from the checkpoint file:  "BDE49_expt_1343_mol1.chk"
 Charge =  0 Multiplicity = 1

                         Standard orientation:
 ---------------------------------------------------------------------
 Center     Atomic      Atomic             Coordinates (Angstroms)
 Number     Number       Type             X           Y           Z
 ---------------------------------------------------------------------
      1          6           0       -1.098270   -0.890638   -0.429536
      2          6           0       -1.449968    0.599569   -0.225603
      3          6           0        0.019395   -1.137260    0.594810
      4          1           0       -0.701370   -1.047022   -1.435630
      5          1           0       -1.957146   -1.553097   -0.300280
      6          6           0        0.878317    0.132062    0.486068
      7          1           0        0.595536   -2.050000    0.412785
      8          1           0       -0.398669   -1.208684    1.606406
      9          6           0       -0.144333    1.267853    0.295365
     10          1           0       -0.317681    1.788125    1.240520
     11          1           0        0.267007    1.994126   -0.407306
     12          1           0       -2.245730    0.697553    0.518887
     13          1           0       -1.815395    1.064746   -1.143198
     14          8           0        1.692226    0.104939   -0.695697
     15          1           0        1.511552    0.288453    1.368422
     16          1           0        2.293244   -0.643232   -0.621657
 ---------------------------------------------------------------------

 SCF Done:  E(RHF) =  -271.364891621     A.U. after    2 cycles

 The electronic state is 1-A.
 Alpha  occ. eigenvalues --  -21.05851 -11.47735 -11.42769 -11.38267 -11.37243
 Alpha  occ. eigenvalues --  -11.33559  -1.70521  -1.28456  -1.03971  -1.01326
 Alpha  occ. eigenvalues --   -0.82018  -0.79832  -0.68448  -0.65233  -0.61337
 Alpha  occ. eigenvalues --   -0.57405  -0.50567  -0.48561  -0.45940  -0.43966
 Alpha  occ. eigenvalues --   -0.43646  -0.42820  -0.38400  -0.30941
 Alpha virt. eigenvalues --    0.04116   0.05149   0.05457   0.05602   0.05682
 Alpha virt. eigenvalues --    0.05881   0.06526   0.07046   0.07238   0.08950
 Alpha virt. eigenvalues --    0.13137   0.13325   0.14213   0.14828   0.14969

 Mulliken charges:
               1
     1  C   -2.968672
     2  C   -2.667873
     3  C   -2.798835
     4  H    1.393327
     5  H    1.265220
     6  C    1.795925
     7  H    1.324355
     8  H    1.357533
     9  C   -3.305050
    10  H    1.277642
    11  H    1.454946
    12  H    1.372831
    13  H    1.319420
    14  O   -3.199546
    15  H    1.691062
    16  H    0.687717
 Sum of Mulliken charges =  -0.00000

 Dipole moment (field-independent basis, Debye):
    X=             -0.0338    Y=             -0.3970    Z=              0.4224  Tot=              0.5807

 Test job not archived.
 1\1\GINC-SE402\SP\RHF\Aug-CC-pVDZ\C5H10O1\OHZDE\08-Apr-2025\0\\#t hf a
 ug-cc-pvdz iop(5/13=1,5/36=2,99/5=2) pseudo=read geom=check guess=(rea
 d,tcheck) scf=(maxcycle=1)\\title\\0,1\C,0,-1.09827,-0.890638,-0.42953
 6\C,0,-1.449968,0.599569,-0.225603\C,0,0.019395,-1.13726,0.59481\H,0,-
 0.70137,-1.047022,-1.43563\H,0,-1.957146,-1.553097,-0.30028\C,0,0.8783
 17,0.132062,0.486068\H,0,0.595536,-2.05,0.412785\H,0,-0.398669,-1.2086
 84,1.606406\C,0,-0.144333,1.267853,0.295365\H,0,-0.317681,1.788125,1.2
 4052\H,0,0.267007,1.994126,-0.407306\H,0,-2.24573,0.697553,0.518887\H,

 Normal termination of Gaussian 16 at Tue Apr  8 22:41:53 2025.
