 Gaussian 16, Revision C.01,

 ----------------------------------------------------------------------
 #t hf aug-cc-pvdz symm=none int=(grid=ultrafine) guess=(read,tcheck) s
 table=(opt,rrhf)
 ----------------------------------------------------------------------
 -----
 title
 -----
 Symbolic Z-matrix:
 Charge =  0 Multiplicity = 1

 SCF Done:  E(RHF) =  -706.617621184     A.U. after   14 cycles
 Normal termination of Gaussian 16 at Tue Apr  8 23:08:02 2025.
 Gaussian 16:  ES64L-G16RevC.01  3-Jul-2019

 ----------------------------------------------------------------------
 #t hf aug-cc-pvdz iop(5/13=1,5/36=2,99/5=2) pseudo=read geom=check gue
 ss=(read,tcheck) scf=(maxcycle=1)
 ----------------------------------------------------------------------
 -----
 title
 -----
 Structure from the checkpoint file:  "BDE49_expt_388_mol1.chk"
 Charge =  0 Multiplicity = 1

                         Standard orientation:
 ---------------------------------------------------------------------
 Center     Atomic      Atomic             Coordinates (Angstroms)
 Number     Number       Type             X           Y           Z
 ---------------------------------------------------------------------
      1          8           0       -0.509135    1.293689   -0.503477
      2          6           0       -1.558623    1.252959    0.456886
      3          6           0       -2.347159   -0.027188    0.198620
      4          1           0       -2.157302    2.152017    0.300460
      5          1           0       -1.163072    1.259952    1.480277
      6         16           0       -1.048171   -1.277939   -0.123899
      7          1           0       -2.998317    0.073648   -0.670494
      8          1           0       -2.933031   -0.333595    1.065833
      9          6           0        0.193732    0.065623   -0.562088
     10          6           0        1.438703    0.033071    0.338430
     11          1           0        0.487665   -0.070291   -1.606066
     12          6           0        2.170107   -1.309150    0.215762
     13          6           0        2.368397    1.204835   -0.011296
     14          1           0        1.100185    0.149118    1.374547
     15          1           0        2.752873    1.107932   -1.032424
     16          1           0        3.226804    1.227514    0.665700
     17          1           0        1.844181    2.158646    0.061301
     18          1           0        2.492875   -1.485394   -0.816173
     19          1           0        1.537425   -2.145319    0.522705
     20          1           0        3.062581   -1.317617    0.846659
 ---------------------------------------------------------------------

 SCF Done:  E(RHF) =  -708.353983941     A.U. after    2 cycles

 The electronic state is 1-A.
 Alpha  occ. eigenvalues --  -75.66964 -21.05385 -13.13064 -13.10830 -13.02562
 Alpha  occ. eigenvalues --  -11.48472 -11.45428 -11.40982 -11.39291 -11.38217
 Alpha  occ. eigenvalues --  -11.35249  -8.01010  -1.77662  -1.24905  -1.19446
 Alpha  occ. eigenvalues --   -1.07236  -0.99903  -0.90214  -0.86181  -0.79711
 Alpha  occ. eigenvalues --   -0.68274  -0.65521  -0.61893  -0.61225  -0.56751
 Alpha  occ. eigenvalues --   -0.54875  -0.53280  -0.52799  -0.49597  -0.46858
 Alpha  occ. eigenvalues --   -0.44978  -0.42206  -0.40410  -0.33549  -0.29511
 Alpha  occ. eigenvalues --   -0.22475
 Alpha virt. eigenvalues --    0.03819   0.04503   0.05212   0.05424   0.05504
 Alpha virt. eigenvalues --    0.06013   0.06060   0.06473   0.07197   0.08144
 Alpha virt. eigenvalues --    0.08414   0.09045   0.10234   0.12242   0.13252

 Mulliken charges:
               1
     1  O   -3.403772
     2  C   -1.851197
     3  C   -3.762941
     4  H    1.331342
     5  H    1.656870
     6  S    0.967978
     7  H    1.477135
     8  H    1.398123
     9  C    0.586414
    10  C   -1.903275
    11  H    1.787556
    12  C   -4.005880
    13  C   -4.042404
    14  H    2.021211
    15  H    1.291444
    16  H    1.190261
    17  H    1.381853
    18  H    1.305423
    19  H    1.355512
    20  H    1.218347
 Sum of Mulliken charges =  -0.00000

 Dipole moment (field-independent basis, Debye):
    X=             -0.3433    Y=             -0.3524    Z=              0.3739  Tot=              0.6180

 Test job not archived.
 1\1\GINC-SE099\SP\RHF\Aug-CC-pVDZ\C6H12O1S1\OHZDE\08-Apr-2025\0\\#t hf
  aug-cc-pvdz iop(5/13=1,5/36=2,99/5=2) pseudo=read geom=check guess=(r
 ead,tcheck) scf=(maxcycle=1)\\title\\0,1\O,0,-0.509135,1.293689,-0.503
 477\C,0,-1.558623,1.252959,0.456886\C,0,-2.347159,-0.027188,0.19862\H,
 0,-2.157302,2.152017,0.30046\H,0,-1.163072,1.259952,1.480277\S,0,-1.04
 8171,-1.277939,-0.123899\H,0,-2.998317,0.073648,-0.670494\H,0,-2.93303
 1,-0.333595,1.065833\C,0,0.193732,0.065623,-0.562088\C,0,1.438703,0.03
 3071,0.33843\H,0,0.487665,-0.070291,-1.606066\C,0,2.170107,-1.30915,0.

 Normal termination of Gaussian 16 at Tue Apr  8 23:08:12 2025.
