 Gaussian 16, Revision C.01,

 ----------------------------------------------------------------------
 #t hf aug-cc-pvdz symm=none int=(grid=ultrafine) guess=(read,tcheck) s
 table=opt
 ----------------------------------------------------------------------
 -----
 title
 -----
 Symbolic Z-matrix:
 Charge =  0 Multiplicity = 2

 SCF Done:  E(UHF) =  -329.674262362     A.U. after   13 cycles

 1\1\GINC-SE070\Stability\UHF\Aug-CC-pVDZ\C1H5Si1\OHZDE\08-Apr-2025\0\\
 #t hf aug-cc-pvdz symm=none int=(grid=ultrafine) guess=(read,tcheck) s
 table=opt\\title\\0,2\Si,0,0.676508,0.,-0.100354\C,0,-1.204458,0.,0.02
 9217\H,0,1.266532,1.212994,0.525528\H,0,1.266532,-1.212994,0.525528\H,
 0,-1.630007,0.88483,-0.450305\H,0,-1.517407,-0.000001,1.079205\H,0,-1.
 630007,-0.884829,-0.450306\\Version=ES64L-G16RevC.01\HF=-329.6742624\S
 2=0.754064\S2-1=0.\S2A=0.750007\RMSD=6.290e-09\Dipole=-0.3181422,-0.00
 00001,0.0283826\Quadrupole=-0.1671389,0.157236,0.009903,0.0000004,0.10

 Normal termination of Gaussian 16 at Tue Apr  8 22:45:28 2025.
 Gaussian 16:  ES64L-G16RevC.01  3-Jul-2019

 ----------------------------------------------------------------------
 #t hf aug-cc-pvdz iop(5/13=1,5/36=2,99/5=2) pseudo=read geom=check gue
 ss=(read,tcheck) scf=(maxcycle=1)
 ----------------------------------------------------------------------
 -----
 title
 -----
 Structure from the checkpoint file:  "BDE49_expt_1537_mol2.chk"
 Charge =  0 Multiplicity = 2

                         Standard orientation:
 ---------------------------------------------------------------------
 Center     Atomic      Atomic             Coordinates (Angstroms)
 Number     Number       Type             X           Y           Z
 ---------------------------------------------------------------------
      1         14           0        0.676508    0.000000   -0.100354
      2          6           0       -1.204458    0.000000    0.029217
      3          1           0        1.266532    1.212994    0.525528
      4          1           0        1.266532   -1.212994    0.525528
      5          1           0       -1.630007    0.884830   -0.450305
      6          1           0       -1.517407   -0.000001    1.079205
      7          1           0       -1.630007   -0.884829   -0.450306
 ---------------------------------------------------------------------

 SCF Done:  E(UHF) =  -330.032610248     A.U. after    2 cycles

 The electronic state is 2-A.
 Alpha  occ. eigenvalues --  -76.22064 -11.35580  -5.55453  -2.18670  -2.17399
 Alpha  occ. eigenvalues --   -2.16389  -1.04373  -0.73097  -0.56473  -0.56368
 Alpha  occ. eigenvalues --   -0.46359  -0.42609  -0.26626
 Alpha virt. eigenvalues --    0.03243   0.05047   0.05912   0.06175   0.08214
 Alpha virt. eigenvalues --    0.08318   0.09016   0.09958   0.13792   0.15065
 Alpha virt. eigenvalues --    0.16656   0.16969   0.17009   0.18740   0.19444

  Beta  occ. eigenvalues --  -76.21519 -11.35544  -5.54598  -2.17993  -2.16759
  Beta  occ. eigenvalues --   -2.12859  -1.03716  -0.68700  -0.56308  -0.55501
  Beta  occ. eigenvalues --   -0.45673  -0.41852
  Beta virt. eigenvalues --    0.02998   0.04559   0.05407   0.06007   0.06849
  Beta virt. eigenvalues --    0.08362   0.08394   0.10250   0.11447   0.14875
  Beta virt. eigenvalues --    0.15605   0.17028   0.17260   0.17352   0.21140

 Mulliken charges and spin densities:
               1          2
     1  Si   3.861995   1.011201
     2  C   -4.794255   0.009542
     3  H   -1.436128  -0.008384
     4  H   -1.436128  -0.008384
     5  H    1.276909  -0.002636
     6  H    1.250699   0.001298
     7  H    1.276909  -0.002636
 Sum of Mulliken charges =  -0.00000   1.00000

 Dipole moment (field-independent basis, Debye):
    X=             -0.9059    Y=             -0.0000    Z=             -0.2374  Tot=              0.9364
                          Isotropic Fermi Contact Couplings
        Atom                 a.u.       MegaHertz       Gauss      10(-4) cm-1
     1  Si(29)             0.45201    -401.71434    -143.34167    -133.99748
     2  C(13)              0.01506      16.92605       6.03964       5.64592
     3  H(1)               0.00392      17.51754       6.25069       5.84322
     4  H(1)               0.00392      17.51755       6.25070       5.84322
     5  H(1)               0.00041       1.84630       0.65881       0.61586
     6  H(1)               0.00817      36.50053      13.02430      12.17527
     7  H(1)               0.00041       1.84633       0.65882       0.61587
 --------------------------------------------------------

 Normal termination of Gaussian 16 at Tue Apr  8 22:45:29 2025.
