 Gaussian 16, Revision C.01,

 ----------------------------------------------------------------------
 #t hf aug-cc-pvdz symm=none int=(grid=ultrafine) guess=(read,tcheck) s
 table=opt
 ----------------------------------------------------------------------
 -----
 title
 -----
 Symbolic Z-matrix:
 Charge =  0 Multiplicity = 2

 SCF Done:  E(UHF) =  -156.683789364     A.U. after   16 cycles
 Normal termination of Gaussian 16 at Tue Apr  8 22:35:51 2025.
 Gaussian 16:  ES64L-G16RevC.01  3-Jul-2019

 ----------------------------------------------------------------------
 #t hf aug-cc-pvdz iop(5/13=1,5/36=2,99/5=2) pseudo=read geom=check gue
 ss=(read,tcheck) scf=(maxcycle=1)
 ----------------------------------------------------------------------
 -----
 title
 -----
 Structure from the checkpoint file:  "BDE49_expt_1059_mol2.chk"
 Charge =  0 Multiplicity = 2

                         Standard orientation:
 ---------------------------------------------------------------------
 Center     Atomic      Atomic             Coordinates (Angstroms)
 Number     Number       Type             X           Y           Z
 ---------------------------------------------------------------------
      1          6           0        1.538954   -0.547170    0.153168
      2          6           0        0.644400    0.600499   -0.324080
      3          1           0        2.527822   -0.499670   -0.311041
      4          1           0        1.099551   -1.518641   -0.089334
      5          1           0        1.678484   -0.510123    1.238367
      6          6           0       -0.767926    0.574612    0.289362
      7          1           0        0.556260    0.569357   -1.416801
      8          1           0        1.118044    1.558332   -0.082945
      9          6           0       -1.597047   -0.589210   -0.132781
     10          1           0       -1.279867    1.512886    0.010339
     11          1           0       -0.694492    0.604939    1.384031
     12          1           0       -2.387147   -0.976659    0.498534
     13          1           0       -1.528935   -0.972810   -1.145165
 ---------------------------------------------------------------------

 SCF Done:  E(UHF) =  -157.487400387     A.U. after    2 cycles

 The electronic state is 2-A.
 Alpha  occ. eigenvalues --  -11.41069 -11.38784 -11.36483 -11.34179  -1.23299
 Alpha  occ. eigenvalues --   -1.06104  -0.91393  -0.81078  -0.63348  -0.61246
 Alpha  occ. eigenvalues --   -0.58348  -0.53250  -0.51103  -0.46133  -0.45575
 Alpha  occ. eigenvalues --   -0.43738  -0.31104
 Alpha virt. eigenvalues --    0.03994   0.05636   0.05840   0.06079   0.06218
 Alpha virt. eigenvalues --    0.06324   0.06556   0.07364   0.07820   0.12592
 Alpha virt. eigenvalues --    0.14325   0.14546   0.14852   0.15162   0.15839

  Beta  occ. eigenvalues --  -11.41037 -11.38294 -11.35414 -11.33750  -1.22041
  Beta  occ. eigenvalues --   -1.03485  -0.88196  -0.79120  -0.62826  -0.59733
  Beta  occ. eigenvalues --   -0.57574  -0.52551  -0.50404  -0.45395  -0.44656
  Beta  occ. eigenvalues --   -0.43266
  Beta virt. eigenvalues --    0.04015   0.05647   0.05847   0.06068   0.06233
  Beta virt. eigenvalues --    0.06343   0.06536   0.07291   0.07489   0.10847
  Beta virt. eigenvalues --    0.12909   0.14439   0.14685   0.14976   0.15587

 Mulliken charges and spin densities:
               1          2
     1  C   -3.597643   0.017634
     2  C   -3.035126   0.038871
     3  H    1.151903   0.001948
     4  H    1.407323  -0.029122
     5  H    1.276898   0.002082
     6  C   -2.851648  -0.400219
     7  H    1.429888  -0.009916
     8  H    1.324174  -0.003199
     9  C   -2.733618   1.516144
    10  H    1.358320   0.018844
    11  H    1.446664  -0.001130
    12  H    1.380852  -0.071984
    13  H    1.442013  -0.079952
 Sum of Mulliken charges =  -0.00000   1.00000

 Dipole moment (field-independent basis, Debye):
    X=              0.0170    Y=              0.2727    Z=             -0.0101  Tot=              0.2734
                          Isotropic Fermi Contact Couplings
        Atom                 a.u.       MegaHertz       Gauss      10(-4) cm-1
     1  C(13)             -0.00069      -0.77092      -0.27508      -0.25715
     2  C(13)              0.01459      16.39881       5.85150       5.47005
     3  H(1)              -0.00020      -0.90146      -0.32166      -0.30069
     4  H(1)               0.00023       1.03942       0.37089       0.34671
     5  H(1)               0.00003       0.13709       0.04892       0.04573
     6  C(13)             -0.03650     -41.03444     -14.64211     -13.68762
     7  H(1)              -0.00063      -2.83831      -1.01278      -0.94676
     8  H(1)              -0.00083      -3.71759      -1.32653      -1.24006

 Normal termination of Gaussian 16 at Tue Apr  8 22:35:54 2025.
