 Gaussian 16, Revision C.01,

 ----------------------------------------------------------------------
 #t hf aug-cc-pvdz symm=none int=(grid=ultrafine) guess=(read,tcheck) s
 table=(opt,rrhf)
 ----------------------------------------------------------------------
 -----
 title
 -----
 Symbolic Z-matrix:
 Charge =  0 Multiplicity = 1

 SCF Done:  E(RHF) =  -951.209096015     A.U. after   13 cycles
 Normal termination of Gaussian 16 at Tue Apr  8 23:06:07 2025.
 Gaussian 16:  ES64L-G16RevC.01  3-Jul-2019

 ----------------------------------------------------------------------
 #t hf aug-cc-pvdz iop(5/13=1,5/36=2,99/5=2) pseudo=read geom=check gue
 ss=(read,tcheck) scf=(maxcycle=1)
 ----------------------------------------------------------------------
 -----
 title
 -----
 Structure from the checkpoint file:  "BDE49_expt_380_mol1.chk"
 Charge =  0 Multiplicity = 1

                         Standard orientation:
 ---------------------------------------------------------------------
 Center     Atomic      Atomic             Coordinates (Angstroms)
 Number     Number       Type             X           Y           Z
 ---------------------------------------------------------------------
      1          6           0        0.065303   -1.114982    0.863143
      2         16           0        1.437161   -0.798573   -0.302023
      3          6           0        1.276721    1.007708   -0.155709
      4         16           0       -0.498091    1.448801    0.081712
      5          1           0        1.637388    1.456421   -1.080629
      6          1           0        1.857714    1.381465    0.687000
      7          6           0       -1.137434   -0.252798    0.462856
      8          6           0       -1.951715   -0.827989   -0.695487
      9          1           0       -1.318623   -0.996585   -1.568333
     10          1           0       -2.752792   -0.145263   -0.984433
     11          1           0       -2.407177   -1.780423   -0.401199
     12          1           0        0.391934   -0.884281    1.878936
     13          1           0       -0.172160   -2.179715    0.804874
     14          1           0       -1.778659   -0.126895    1.339943
 ---------------------------------------------------------------------

 SCF Done:  E(RHF) =  -952.468828819     A.U. after    2 cycles

 The electronic state is 1-A.
 Alpha  occ. eigenvalues --  -75.68315 -75.67609 -13.13016 -13.12394 -13.09925
 Alpha  occ. eigenvalues --  -13.08118 -13.04105 -13.02431 -11.45261 -11.41806
 Alpha  occ. eigenvalues --  -11.41160 -11.37085  -8.02405  -8.01574  -1.33726
 Alpha  occ. eigenvalues --   -1.14659  -1.09896  -0.99385  -0.86679  -0.81411
 Alpha  occ. eigenvalues --   -0.65714  -0.63884  -0.60850  -0.58203  -0.53092
 Alpha  occ. eigenvalues --   -0.49486  -0.46836  -0.43280  -0.40140  -0.32717
 Alpha  occ. eigenvalues --   -0.23051  -0.22304
 Alpha virt. eigenvalues --    0.03133   0.03829   0.04659   0.05600   0.06347
 Alpha virt. eigenvalues --    0.06741   0.07072   0.07658   0.08554   0.09704
 Alpha virt. eigenvalues --    0.11616   0.12566   0.13636   0.14247   0.14851

 Mulliken charges:
               1
     1  C   -3.657196
     2  S    1.123297
     3  C   -4.463655
     4  S    0.809946
     5  H    1.642673
     6  H    1.534367
     7  C   -1.321131
     8  C   -4.009263
     9  H    1.439851
    10  H    1.257701
    11  H    1.175319
    12  H    1.380608
    13  H    1.501376
    14  H    1.586105
 Sum of Mulliken charges =  -0.00000

 Dipole moment (field-independent basis, Debye):
    X=              0.1872    Y=             -0.2145    Z=             -0.1089  Tot=              0.3049

 Test job not archived.
 1\1\GINC-SE284\SP\RHF\Aug-CC-pVDZ\C4H8S2\OHZDE\08-Apr-2025\0\\#t hf au
 g-cc-pvdz iop(5/13=1,5/36=2,99/5=2) pseudo=read geom=check guess=(read
 ,tcheck) scf=(maxcycle=1)\\title\\0,1\C,0,0.065303,-1.114982,0.863143\
 S,0,1.437161,-0.798573,-0.302023\C,0,1.276721,1.007708,-0.155709\S,0,-
 0.498091,1.448801,0.081712\H,0,1.637388,1.456421,-1.080629\H,0,1.85771
 4,1.381465,0.687\C,0,-1.137434,-0.252798,0.462856\C,0,-1.951715,-0.827
 989,-0.695487\H,0,-1.318623,-0.996585,-1.568333\H,0,-2.752792,-0.14526
 3,-0.984433\H,0,-2.407177,-1.780423,-0.401199\H,0,0.391934,-0.884281,1

 Normal termination of Gaussian 16 at Tue Apr  8 23:06:11 2025.
