 Gaussian 16, Revision C.01,

 ----------------------------------------------------------------------
 #t hf aug-cc-pvdz symm=none int=(grid=ultrafine) guess=(read,tcheck) s
 table=(opt,rrhf)
 ----------------------------------------------------------------------
 -----
 title
 -----
 Symbolic Z-matrix:
 Charge =  0 Multiplicity = 1

 SCF Done:  E(RHF) =  -1445.97743548     A.U. after   11 cycles
 Normal termination of Gaussian 16 at Tue Apr  8 23:50:21 2025.
 Gaussian 16:  ES64L-G16RevC.01  3-Jul-2019

 ----------------------------------------------------------------------
 #t hf aug-cc-pvdz iop(5/13=1,5/36=2,99/5=2) pseudo=read geom=check gue
 ss=(read,tcheck) scf=(maxcycle=1)
 ----------------------------------------------------------------------
 -----
 title
 -----
 Structure from the checkpoint file:  "BDE49_nonexpt_1853_mol1.chk"
 Charge =  0 Multiplicity = 1

                         Standard orientation:
 ---------------------------------------------------------------------
 Center     Atomic      Atomic             Coordinates (Angstroms)
 Number     Number       Type             X           Y           Z
 ---------------------------------------------------------------------
      1          6           0       -1.431796   -0.000001   -0.396089
      2         14           0        0.280938    0.000000    0.450930
      3         17           0        1.298075    1.687466   -0.144604
      4         17           0        1.298078   -1.687464   -0.144605
      5          1           0        0.136477    0.000000    1.910194
      6          9           0       -2.121244   -1.110567    0.031064
      7          9           0       -2.121246    1.110563    0.031063
      8          1           0       -1.431021   -0.000002   -1.489273
 ---------------------------------------------------------------------

 SCF Done:  E(RHF) =  -1447.46650503     A.U. after    2 cycles

 The electronic state is 1-A.
 Alpha  occ. eigenvalues --  -99.91356 -99.91354 -76.32327 -29.29917 -29.29878
 Alpha  occ. eigenvalues --  -11.50609 -10.48832 -10.48788  -9.68689  -9.68666
 Alpha  occ. eigenvalues --   -9.68105  -9.68035  -9.68029  -9.67930  -5.66135
 Alpha  occ. eigenvalues --   -2.29088  -2.28482  -2.27646  -1.33825  -1.30609
 Alpha  occ. eigenvalues --   -1.27420  -0.82687  -0.80751  -0.75002  -0.64290
 Alpha  occ. eigenvalues --   -0.60897  -0.60356  -0.56392  -0.55675  -0.53614
 Alpha  occ. eigenvalues --   -0.52018  -0.45271  -0.39555  -0.32177  -0.31893
 Alpha  occ. eigenvalues --   -0.25437  -0.23772
 Alpha virt. eigenvalues --    0.04131   0.05124   0.05954   0.06139   0.08588
 Alpha virt. eigenvalues --    0.08755   0.11744   0.11860   0.12290   0.12406
 Alpha virt. eigenvalues --    0.13566   0.14491   0.14561   0.15211   0.15902

 Mulliken charges:
               1
     1  C   -2.383023
     2  Si   4.261390
     3  Cl  -0.786751
     4  Cl  -0.786750
     5  H   -2.016267
     6  F    0.181035
     7  F    0.181036
     8  H    1.349330
 Sum of Mulliken charges =  -0.00000

 Dipole moment (field-independent basis, Debye):
    X=             -3.2939    Y=              0.0000    Z=              1.0930  Tot=              3.4705

 Test job not archived.
 1\1\GINC-SE250\SP\RHF\Aug-CC-pVDZ\C1H2Cl2F2Si1\OHZDE\08-Apr-2025\0\\#t
  hf aug-cc-pvdz iop(5/13=1,5/36=2,99/5=2) pseudo=read geom=check guess
 =(read,tcheck) scf=(maxcycle=1)\\title\\0,1\C,0,1.431796,0.,-0.396089\
 Si,0,-0.280938,0.,0.45093\Cl,0,-1.298076,-1.687465,-0.144604\Cl,0,-1.2
 98077,1.687465,-0.144605\H,0,-0.136477,0.,1.910194\F,0,2.121245,1.1105
 65,0.031064\F,0,2.121245,-1.110565,0.031063\H,0,1.431021,0.000001,-1.4
 89273\\Version=ES64L-G16RevC.01\State=1-A\HF=-1447.466505\RMSD=6.334e-
 02\Dipole=1.2959042,-0.0000011,0.4300115\Quadrupole=2.2552802,-1.05518

 Normal termination of Gaussian 16 at Tue Apr  8 23:50:25 2025.
