 Gaussian 16, Revision C.01,

 ----------------------------------------------------------------------
 #t hf aug-cc-pvdz symm=none int=(grid=ultrafine) guess=(read,tcheck) s
 table=(opt,rrhf)
 ----------------------------------------------------------------------
 -----
 title
 -----
 Symbolic Z-matrix:
 Charge =  0 Multiplicity = 1

 SCF Done:  E(RHF) =  -1030.44711940     A.U. after   13 cycles

 1\1\GINC-SE060\Stability\RHF\Aug-CC-pVDZ\C6H14S2\OHZDE\08-Apr-2025\0\\
 #t hf aug-cc-pvdz symm=none int=(grid=ultrafine) guess=(read,tcheck) s
 table=(opt,rrhf)\\title\\0,1\C,0,1.970373,-1.192644,-0.337392\S,0,1.27
 0028,0.368092,-0.991309\C,0,0.26498,0.971246,0.432795\C,0,-0.203923,2.
 39134,0.112187\H,0,-0.789589,2.787162,0.944136\H,0,-0.824241,2.415827,
 -0.786285\H,0,0.655552,3.045182,-0.056923\S,0,-1.088921,-0.155248,0.96
 7543\H,0,0.910296,0.996658,1.312645\C,0,-2.194036,-0.175736,-0.497029\
 C,0,-3.220335,-1.298476,-0.356203\H,0,-1.569288,-0.324865,-1.379939\H,

 Normal termination of Gaussian 16 at Tue Apr  8 23:07:20 2025.
 Gaussian 16:  ES64L-G16RevC.01  3-Jul-2019

 ----------------------------------------------------------------------
 #t hf aug-cc-pvdz iop(5/13=1,5/36=2,99/5=2) pseudo=read geom=check gue
 ss=(read,tcheck) scf=(maxcycle=1)
 ----------------------------------------------------------------------
 -----
 title
 -----
 Structure from the checkpoint file:  "BDE49_expt_377_mol1.chk"
 Charge =  0 Multiplicity = 1

                         Standard orientation:
 ---------------------------------------------------------------------
 Center     Atomic      Atomic             Coordinates (Angstroms)
 Number     Number       Type             X           Y           Z
 ---------------------------------------------------------------------
      1          6           0        1.970373   -1.192644   -0.337392
      2         16           0        1.270028    0.368092   -0.991309
      3          6           0        0.264980    0.971246    0.432795
      4          6           0       -0.203923    2.391340    0.112187
      5          1           0       -0.789589    2.787162    0.944136
      6          1           0       -0.824241    2.415827   -0.786285
      7          1           0        0.655552    3.045182   -0.056923
      8         16           0       -1.088921   -0.155248    0.967543
      9          1           0        0.910296    0.996658    1.312645
     10          6           0       -2.194036   -0.175736   -0.497029
     11          6           0       -3.220335   -1.298476   -0.356203
     12          1           0       -1.569288   -0.324865   -1.379939
     13          1           0       -2.695735    0.790089   -0.581692
     14          1           0       -2.734196   -2.275140   -0.301244
     15          1           0       -3.891330   -1.300127   -1.219748
     16          1           0       -3.831663   -1.173306    0.541208
     17          6           0        3.092314   -1.018255    0.683311
     18          1           0        2.333904   -1.711326   -1.227816
     19          1           0        1.142854   -1.777933    0.069713
     20          1           0        3.914689   -0.431581    0.268515
     21          1           0        3.483719   -1.995602    0.984074
     22          1           0        2.741065   -0.515397    1.587611
 ---------------------------------------------------------------------

 SCF Done:  E(RHF) =  -1032.14459308     A.U. after    2 cycles

 The electronic state is 1-A.
 Alpha  occ. eigenvalues --  -75.67006 -75.66941 -13.14903 -13.11411 -13.09614
 Alpha  occ. eigenvalues --  -13.07498 -13.05209 -13.03464 -11.44090 -11.41627
 Alpha  occ. eigenvalues --  -11.41451 -11.37964 -11.36901 -11.36589  -8.01177
 Alpha  occ. eigenvalues --   -8.00848  -1.29995  -1.20529  -1.14367  -1.03208
 Alpha  occ. eigenvalues --   -1.02123  -0.89316  -0.86214  -0.79719  -0.63453
 Alpha  occ. eigenvalues --   -0.62966  -0.62633  -0.60435  -0.57305  -0.56810
 Alpha  occ. eigenvalues --   -0.52719  -0.51562  -0.51167  -0.50884  -0.49832
 Alpha  occ. eigenvalues --   -0.43682  -0.40946  -0.37975  -0.32915  -0.22619
 Alpha  occ. eigenvalues --   -0.20985
 Alpha virt. eigenvalues --    0.03575   0.03698   0.03895   0.05210   0.06219
 Alpha virt. eigenvalues --    0.06306   0.06558   0.06749   0.07467   0.07571
 Alpha virt. eigenvalues --    0.08039   0.08529   0.09034   0.09305   0.10542

 Mulliken charges:
               1
     1  C   -4.179614
     2  S    0.754951
     3  C   -1.863036
     4  C   -4.362635
     5  H    1.268392
     6  H    1.454706
     7  H    1.268885
     8  S    0.829949
     9  H    1.946560
    10  C   -3.958557
    11  C   -3.772015
    12  H    1.757554
    13  H    1.645709
    14  H    1.348017
    15  H    1.082918
    16  H    1.318248
    17  C   -3.796027
    18  H    1.496504
    19  H    1.786332
    20  H    1.390130
    21  H    1.185866
    22  H    1.397163
 Sum of Mulliken charges =  -0.00000

 Dipole moment (field-independent basis, Debye):
    X=             -0.1518    Y=             -0.2283    Z=             -0.1862  Tot=              0.3314

 Test job not archived.
 1\1\GINC-SE060\SP\RHF\Aug-CC-pVDZ\C6H14S2\OHZDE\08-Apr-2025\0\\#t hf a
 ug-cc-pvdz iop(5/13=1,5/36=2,99/5=2) pseudo=read geom=check guess=(rea
 d,tcheck) scf=(maxcycle=1)\\title\\0,1\C,0,1.970373,-1.192644,-0.33739
 2\S,0,1.270028,0.368092,-0.991309\C,0,0.26498,0.971246,0.432795\C,0,-0
 .203923,2.39134,0.112187\H,0,-0.789589,2.787162,0.944136\H,0,-0.824241
 ,2.415827,-0.786285\H,0,0.655552,3.045182,-0.056923\S,0,-1.088921,-0.1
 55248,0.967543\H,0,0.910296,0.996658,1.312645\C,0,-2.194036,-0.175736,
 -0.497029\C,0,-3.220335,-1.298476,-0.356203\H,0,-1.569288,-0.324865,-1

 Normal termination of Gaussian 16 at Tue Apr  8 23:07:32 2025.
