 Gaussian 16, Revision C.01,

 ----------------------------------------------------------------------
 #t hf aug-cc-pvdz symm=none int=(grid=ultrafine) guess=(read,tcheck) s
 table=(opt,rrhf)
 ----------------------------------------------------------------------
 -----
 title
 -----
 Symbolic Z-matrix:
 Charge =  0 Multiplicity = 1

 SCF Done:  E(RHF) =  -597.588315149     A.U. after   15 cycles
 Normal termination of Gaussian 16 at Wed Apr  9 00:45:49 2025.
 Gaussian 16:  ES64L-G16RevC.01  3-Jul-2019

 ----------------------------------------------------------------------
 #t hf aug-cc-pvdz iop(5/13=1,5/36=2,99/5=2) pseudo=read geom=check gue
 ss=(read,tcheck) scf=(maxcycle=1)
 ----------------------------------------------------------------------
 -----
 title
 -----
 Structure from the checkpoint file:  "BDE49_nonexpt_765_mol1.chk"
 Charge =  0 Multiplicity = 1

                         Standard orientation:
 ---------------------------------------------------------------------
 Center     Atomic      Atomic             Coordinates (Angstroms)
 Number     Number       Type             X           Y           Z
 ---------------------------------------------------------------------
      1          6           0       -2.865530   -0.030396    0.771257
      2          6           0       -2.193828    0.603944   -0.450270
      3          1           0       -2.449799   -1.018149    0.981870
      4          1           0       -3.938948   -0.151893    0.605575
      5          1           0       -2.736021    0.591496    1.662848
      6          6           0       -0.689876    0.840628   -0.269235
      7          1           0       -2.665175    1.566690   -0.671921
      8          1           0       -2.345695   -0.032607   -1.325820
      9          6           0        0.137208   -0.436189   -0.263414
     10          1           0       -0.480688    1.405666    0.646242
     11          1           0       -0.294709    1.452151   -1.090213
     12          8           0       -0.263387   -1.499428   -0.664526
     13          5           0        2.805276    1.135539   -0.126480
     14         15           0        1.864839   -0.339333    0.464283
     15          1           0        3.979529    1.041156   -0.281507
     16          1           0        2.258738    2.187559   -0.209608
     17          1           0        2.453050   -1.502262   -0.063127
 ---------------------------------------------------------------------

 SCF Done:  E(RHF) =  -598.989567338     A.U. after    2 cycles

 The electronic state is 1-A.
 Alpha  occ. eigenvalues -- -105.17292 -21.06538 -11.50365 -11.43000 -11.39572
 Alpha  occ. eigenvalues --  -11.35836  -7.63416  -2.75824  -1.72561  -1.54220
 Alpha  occ. eigenvalues --   -1.48154  -1.42120  -1.22552  -1.04701  -0.89710
 Alpha  occ. eigenvalues --   -0.85341  -0.73726  -0.68136  -0.63474  -0.60176
 Alpha  occ. eigenvalues --   -0.56953  -0.52665  -0.51144  -0.48177  -0.47819
 Alpha  occ. eigenvalues --   -0.47023  -0.43178  -0.39420  -0.22241  -0.11892
 Alpha  occ. eigenvalues --   -0.05898
 Alpha virt. eigenvalues --    0.03576   0.03598   0.04174   0.05313   0.05746
 Alpha virt. eigenvalues --    0.05921   0.06772   0.06897   0.08247   0.08627
 Alpha virt. eigenvalues --    0.09126   0.09481   0.10668   0.11342   0.11921

 Mulliken charges:
               1
     1  C   -3.636001
     2  C   -3.266734
     3  H    1.338350
     4  H    1.167118
     5  H    1.297966
     6  C   -3.300282
     7  H    1.247687
     8  H    1.465462
     9  C    1.603533
    10  H    1.745764
    11  H    1.691910
    12  O   -2.879050
    13  B    4.943998
    14  P    2.470603
    15  H   -2.935224
    16  H   -2.357012
    17  H   -0.598088
 Sum of Mulliken charges =  -0.00000

 Dipole moment (field-independent basis, Debye):
    X=             -3.5418    Y=             -4.4835    Z=              5.6697  Tot=              8.0493

 Test job not archived.
 1\1\GINC-SE284\SP\RHF\Aug-CC-pVDZ\C4H10B1O1P1\OHZDE\09-Apr-2025\0\\#t
 hf aug-cc-pvdz iop(5/13=1,5/36=2,99/5=2) pseudo=read geom=check guess=
 (read,tcheck) scf=(maxcycle=1)\\title\\0,1\C,0,2.86553,0.030396,0.7712
 57\C,0,2.193828,-0.603944,-0.45027\H,0,2.449799,1.018149,0.98187\H,0,3
 .938948,0.151893,0.605575\H,0,2.736021,-0.591496,1.662848\C,0,0.689876
 ,-0.840628,-0.269235\H,0,2.665175,-1.56669,-0.671921\H,0,2.345695,0.03
 2607,-1.32582\C,0,-0.137208,0.436189,-0.263414\H,0,0.480688,-1.405666,
 0.646242\H,0,0.294709,-1.452151,-1.090213\O,0,0.263387,1.499428,-0.664

 Normal termination of Gaussian 16 at Wed Apr  9 00:45:58 2025.
