 Gaussian 16, Revision C.01,

 ----------------------------------------------------------------------
 #t hf aug-cc-pvdz symm=none int=(grid=ultrafine) guess=(read,tcheck) s
 table=(opt,rrhf)
 ----------------------------------------------------------------------
 -----
 title
 -----
 Symbolic Z-matrix:
 Charge =  0 Multiplicity = 1

 SCF Done:  E(RHF) =  -1236.83734890     A.U. after   16 cycles
 Normal termination of Gaussian 16 at Tue Apr  8 23:02:40 2025.
 Gaussian 16:  ES64L-G16RevC.01  3-Jul-2019

 ----------------------------------------------------------------------
 #t hf aug-cc-pvdz iop(5/13=1,5/36=2,99/5=2) pseudo=read geom=check gue
 ss=(read,tcheck) scf=(maxcycle=1)
 ----------------------------------------------------------------------
 -----
 title
 -----
 Structure from the checkpoint file:  "BDE49_expt_1983_mol1.chk"
 Charge =  0 Multiplicity = 1

                         Standard orientation:
 ---------------------------------------------------------------------
 Center     Atomic      Atomic             Coordinates (Angstroms)
 Number     Number       Type             X           Y           Z
 ---------------------------------------------------------------------
      1          6           0        3.240385   -0.000000    0.259803
      2          6           0        2.558846    1.210867    0.141517
      3          6           0        1.187394    1.220748   -0.092569
      4          6           0        2.558846   -1.210867    0.141516
      5          6           0        1.187393   -1.220748   -0.092570
      6          6           0        0.525207    0.000000   -0.203739
      7          1           0        4.308764   -0.000000    0.442026
      8          1           0        3.094185    2.148717    0.227815
      9          1           0        0.639512    2.147921   -0.195964
     10          1           0        3.094184   -2.148717    0.227813
     11          1           0        0.639512   -2.147921   -0.195965
     12         16           0       -1.223875    0.000000   -0.531977
     13         17           0       -1.996958   -0.000001    1.452036
     14          8           0       -1.612143   -1.259609   -1.100154
     15          8           0       -1.612143    1.259610   -1.100152
 ---------------------------------------------------------------------

 SCF Done:  E(RHF) =  -1239.06929656     A.U. after    2 cycles

 The electronic state is 1-A.
 Alpha  occ. eigenvalues --  -99.91104 -75.94218 -21.08611 -21.08579 -13.57775
 Alpha  occ. eigenvalues --  -13.45393 -13.38703 -11.55652 -11.47517 -11.47484
 Alpha  occ. eigenvalues --  -11.45413 -11.44312 -11.40572 -10.48312  -9.68225
 Alpha  occ. eigenvalues --   -9.67488  -9.67389  -8.29160  -1.86842  -1.68591
 Alpha  occ. eigenvalues --   -1.38714  -1.31543  -1.16078  -1.13353  -0.99805
 Alpha  occ. eigenvalues --   -0.90770  -0.86509  -0.75661  -0.69773  -0.65827
 Alpha  occ. eigenvalues --   -0.62931  -0.62390  -0.62016  -0.56987  -0.55787
 Alpha  occ. eigenvalues --   -0.53613  -0.49946  -0.49412  -0.45689  -0.45307
 Alpha  occ. eigenvalues --   -0.41628  -0.40028  -0.38757  -0.37419  -0.36536
 Alpha virt. eigenvalues --    0.02309   0.04531   0.04620   0.05518   0.05939
 Alpha virt. eigenvalues --    0.06310   0.08047   0.09165   0.09511   0.10488
 Alpha virt. eigenvalues --    0.10716   0.12417   0.12573   0.12843   0.13155

 Mulliken charges:
               1
     1  C   -2.679136
     2  C   -0.332839
     3  C   -3.686041
     4  C   -0.332875
     5  C   -3.686072
     6  C    2.453897
     7  H    1.545450
     8  H    1.493470
     9  H    1.831790
    10  H    1.493469
    11  H    1.831789
    12  S    5.855738
    13  Cl  -0.263627
    14  O   -2.762506
    15  O   -2.762506
 Sum of Mulliken charges =   0.00000

 Dipole moment (field-independent basis, Debye):
    X=              4.5474    Y=             -0.0000    Z=             -0.7290  Tot=              4.6054

 Test job not archived.
 1\1\GINC-SE455\SP\RHF\Aug-CC-pVDZ\C6H5Cl1O2S1\OHZDE\08-Apr-2025\0\\#t
 hf aug-cc-pvdz iop(5/13=1,5/36=2,99/5=2) pseudo=read geom=check guess=
 (read,tcheck) scf=(maxcycle=1)\\title\\0,1\C,0,3.240385,0.,0.259803\C,
 0,2.558846,1.210867,0.141517\C,0,1.187394,1.220748,-0.092569\C,0,2.558
 846,-1.210867,0.141516\C,0,1.187393,-1.220748,-0.09257\C,0,0.525207,0.
 ,-0.203739\H,0,4.308764,0.,0.442026\H,0,3.094185,2.148717,0.227815\H,0
 ,0.639512,2.147921,-0.195964\H,0,3.094184,-2.148717,0.227813\H,0,0.639
 512,-2.147921,-0.195965\S,0,-1.223875,0.,-0.531977\Cl,0,-1.996958,-0.0

 Normal termination of Gaussian 16 at Tue Apr  8 23:02:47 2025.
