 Gaussian 16, Revision C.01,

 ----------------------------------------------------------------------
 #t hf aug-cc-pvdz symm=none int=(grid=ultrafine) guess=(read,tcheck) s
 table=(opt,rrhf)
 ----------------------------------------------------------------------
 -----
 title
 -----
 Symbolic Z-matrix:
 Charge =  0 Multiplicity = 1

 SCF Done:  E(RHF) =  -822.527419409     A.U. after   15 cycles
 Normal termination of Gaussian 16 at Tue Apr  8 23:28:26 2025.
 Gaussian 16:  ES64L-G16RevC.01  3-Jul-2019

 ----------------------------------------------------------------------
 #t hf aug-cc-pvdz iop(5/13=1,5/36=2,99/5=2) pseudo=read geom=check gue
 ss=(read,tcheck) scf=(maxcycle=1)
 ----------------------------------------------------------------------
 -----
 title
 -----
 Structure from the checkpoint file:  "BDE49_nonexpt_1225_mol1.chk"
 Charge =  0 Multiplicity = 1

                         Standard orientation:
 ---------------------------------------------------------------------
 Center     Atomic      Atomic             Coordinates (Angstroms)
 Number     Number       Type             X           Y           Z
 ---------------------------------------------------------------------
      1         16           0        0.177551   -0.722143   -0.650269
      2          8           0       -1.063709    0.429070   -0.598158
      3          6           0       -2.330596    0.097071    0.067281
      4          6           0       -3.138902    1.383254   -0.113298
      5          1           0       -4.133406    1.274743    0.327488
      6          1           0       -3.249438    1.613749   -1.174761
      7          1           0       -2.632208    2.221902    0.369025
      8          6           0       -2.999114   -1.077607   -0.650966
      9          1           0       -3.981144   -1.284259   -0.216690
     10          1           0       -2.392723   -1.982015   -0.564370
     11          1           0       -3.130415   -0.847690   -1.710872
     12          6           0       -2.108272   -0.209572    1.549440
     13          1           0       -1.476665   -1.092160    1.673034
     14          1           0       -3.064120   -0.408690    2.041430
     15          1           0       -1.635628    0.637858    2.051939
     16          6           0        1.343881   -0.067314    0.624889
     17          6           0        2.516419   -1.017635    0.634009
     18          6           0        3.569281   -0.493610    0.003952
     19          6           0        3.298000    0.904789   -0.497944
     20          6           0        1.978862    1.280604    0.220508
     21          1           0        3.187619    0.904369   -1.588834
     22          1           0        4.110250    1.600243   -0.265944
     23          1           0        2.207643    1.842517    1.132024
     24          1           0        1.302932    1.885016   -0.384560
     25          1           0        0.803971   -0.024824    1.571637
     26          1           0        2.462536   -2.013982    1.055208
     27          1           0        4.512308   -1.004934   -0.153398
 ---------------------------------------------------------------------

 SCF Done:  E(RHF) =  -824.861954941     A.U. after    2 cycles

 The electronic state is 1-A.
 Alpha  occ. eigenvalues --  -75.70261 -21.04480 -13.20648 -13.13380 -13.08959
 Alpha  occ. eigenvalues --  -11.45762 -11.45415 -11.44982 -11.40439 -11.39625
 Alpha  occ. eigenvalues --  -11.38989 -11.38784 -11.35435 -11.34938  -8.03911
 Alpha  occ. eigenvalues --   -1.73893  -1.34437  -1.21772  -1.09235  -1.03682
 Alpha  occ. eigenvalues --   -1.01200  -1.00936  -0.95757  -0.81982  -0.76854
 Alpha  occ. eigenvalues --   -0.75884  -0.70225  -0.64008  -0.62358  -0.61515
 Alpha  occ. eigenvalues --   -0.61335  -0.55557  -0.55119  -0.52835  -0.51471
 Alpha  occ. eigenvalues --   -0.51225  -0.49337  -0.47854  -0.46843  -0.46234
 Alpha  occ. eigenvalues --   -0.45650  -0.44057  -0.42224  -0.36682  -0.33762
 Alpha  occ. eigenvalues --   -0.27821  -0.21521
 Alpha virt. eigenvalues --    0.03905   0.04494   0.05111   0.05159   0.05675
 Alpha virt. eigenvalues --    0.05705   0.06083   0.06189   0.06330   0.06503
 Alpha virt. eigenvalues --    0.06906   0.07612   0.08281   0.09648   0.09879

 Mulliken charges:
               1
     1  S    0.799867
     2  O   -3.453208
     3  C    4.229599
     4  C   -4.183816
     5  H    1.163202
     6  H    1.305794
     7  H    1.296364
     8  C   -4.400679
     9  H    1.189016
    10  H    1.413567
    11  H    1.313508
    12  C   -4.829452
    13  H    1.695710
    14  H    1.057221
    15  H    1.463420
    16  C   -1.128466
    17  C   -1.492561
    18  C   -0.071908
    19  C   -3.701859
    20  C   -3.729715
    21  H    1.337635
    22  H    1.242167
    23  H    1.338325
    24  H    1.599202
    25  H    1.584803
    26  H    1.520901
    27  H    1.441363
 Sum of Mulliken charges =  -0.00000

 Dipole moment (field-independent basis, Debye):
    X=              0.0814    Y=             -0.1467    Z=             -0.1008  Tot=              0.1958

 Test job not archived.
 1\1\GINC-SE333\SP\RHF\Aug-CC-pVDZ\C9H16O1S1\OHZDE\08-Apr-2025\0\\#t hf
  aug-cc-pvdz iop(5/13=1,5/36=2,99/5=2) pseudo=read geom=check guess=(r
 ead,tcheck) scf=(maxcycle=1)\\title\\0,1\S,0,0.177551,-0.722143,-0.650
 269\O,0,-1.063709,0.42907,-0.598158\C,0,-2.330596,0.097071,0.067281\C,
 0,-3.138902,1.383254,-0.113298\H,0,-4.133406,1.274743,0.327488\H,0,-3.
 249438,1.613749,-1.174761\H,0,-2.632208,2.221902,0.369025\C,0,-2.99911
 4,-1.077607,-0.650966\H,0,-3.981144,-1.284259,-0.21669\H,0,-2.392723,-
 1.982015,-0.56437\H,0,-3.130415,-0.84769,-1.710872\C,0,-2.108272,-0.20

 Normal termination of Gaussian 16 at Tue Apr  8 23:28:47 2025.
