 Gaussian 16, Revision C.01,

 ----------------------------------------------------------------------
 #t hf aug-cc-pvdz symm=none int=(grid=ultrafine) guess=(read,tcheck) s
 table=(opt,rrhf)
 ----------------------------------------------------------------------
 -----
 title
 -----
 Symbolic Z-matrix:
 Charge =  0 Multiplicity = 1

 SCF Done:  E(RHF) =  -473.477144189     A.U. after   10 cycles
 Normal termination of Gaussian 16 at Tue Apr  8 22:45:29 2025.
 Gaussian 16:  ES64L-G16RevC.01  3-Jul-2019

 ----------------------------------------------------------------------
 #t hf aug-cc-pvdz iop(5/13=1,5/36=2,99/5=2) pseudo=read geom=check gue
 ss=(read,tcheck) scf=(maxcycle=1)
 ----------------------------------------------------------------------
 -----
 title
 -----
 Structure from the checkpoint file:  "BDE49_expt_1508_mol1.chk"
 Charge =  0 Multiplicity = 1

                         Standard orientation:
 ---------------------------------------------------------------------
 Center     Atomic      Atomic             Coordinates (Angstroms)
 Number     Number       Type             X           Y           Z
 ---------------------------------------------------------------------
      1          6           0        0.000000    0.000000    0.661059
      2          9           0        0.000000    1.103888    1.386829
      3          6           0        0.000000    0.000000   -0.661059
      4          9           0       -0.000000   -1.103888    1.386829
      5          9           0        0.000000    1.103888   -1.386829
      6          9           0       -0.000000   -1.103888   -1.386829
 ---------------------------------------------------------------------

 SCF Done:  E(RHF) =  -475.155008461     A.U. after    2 cycles

 The electronic state is 1-AG.
 Alpha  occ. eigenvalues --  -29.34559 -29.34504 -29.34491 -29.34446 -11.59786
 Alpha  occ. eigenvalues --  -11.52743  -1.41980  -1.18649  -0.93410  -0.85337
 Alpha  occ. eigenvalues --   -0.78152  -0.68615  -0.49770  -0.48995  -0.47707
 Alpha  occ. eigenvalues --   -0.44309  -0.41270  -0.39772  -0.34910  -0.34113
 Alpha  occ. eigenvalues --   -0.32663  -0.30405  -0.24914  -0.17621
 Alpha virt. eigenvalues --    0.09675   0.09977   0.10949   0.11054   0.13457
 Alpha virt. eigenvalues --    0.13856   0.13890   0.18143   0.21344   0.22500
 Alpha virt. eigenvalues --    0.24161   0.24304   0.25214   0.29251   0.31738

 Mulliken charges:
               1
     1  C   -1.619285
     2  F    0.809642
     3  C   -1.619285
     4  F    0.809642
     5  F    0.809642
     6  F    0.809642
 Sum of Mulliken charges =   0.00000

 Dipole moment (field-independent basis, Debye):
    X=             -0.0000    Y=              0.0000    Z=             -0.0000  Tot=              0.0000

 Test job not archived.
 1\1\GINC-SE186\SP\RHF\Aug-CC-pVDZ\C2F4\OHZDE\08-Apr-2025\0\\#t hf aug-
 cc-pvdz iop(5/13=1,5/36=2,99/5=2) pseudo=read geom=check guess=(read,t
 check) scf=(maxcycle=1)\\title\\0,1\C,0,0.,0.,0.661059\F,0,0.,1.103888
 ,1.386829\C,0,0.,0.,-0.661059\F,0,0.,-1.103888,1.386829\F,0,0.,1.10388
 8,-1.386829\F,0,0.,-1.103888,-1.386829\\Version=ES64L-G16RevC.01\State
 =1-AG\HF=-475.1550085\RMSD=5.472e-01\Dipole=0.,0.,0.\Quadrupole=-3.039
 2138,1.3872202,1.6519936,0.,0.,0.\PG=D02H [C2"(C1.C1),SG(F4)]\\@

 Normal termination of Gaussian 16 at Tue Apr  8 22:45:31 2025.
