 Gaussian 16, Revision C.01,

 ----------------------------------------------------------------------
 #t hf aug-cc-pvdz symm=none int=(grid=ultrafine) guess=(read,tcheck) s
 table=(opt,rrhf)
 ----------------------------------------------------------------------
 -----
 title
 -----
 Symbolic Z-matrix:
 Charge =  0 Multiplicity = 1

 SCF Done:  E(RHF) =  -1825.95372711     A.U. after   15 cycles
 Normal termination of Gaussian 16 at Tue Apr  8 23:25:06 2025.
 Gaussian 16:  ES64L-G16RevC.01  3-Jul-2019

 ----------------------------------------------------------------------
 #t hf aug-cc-pvdz iop(5/13=1,5/36=2,99/5=2) pseudo=read geom=check gue
 ss=(read,tcheck) scf=(maxcycle=1)
 ----------------------------------------------------------------------
 -----
 title
 -----
 Structure from the checkpoint file:  "BDE49_nonexpt_1242_mol1.chk"
 Charge =  0 Multiplicity = 1

                         Standard orientation:
 ---------------------------------------------------------------------
 Center     Atomic      Atomic             Coordinates (Angstroms)
 Number     Number       Type             X           Y           Z
 ---------------------------------------------------------------------
      1         17           0        3.083400    0.000006   -0.230641
      2         15           0        1.205094    0.000012    0.668760
      3          6           0       -0.000001   -1.270942    0.000044
      4          8           0        0.000029   -2.459850    0.000015
      5          6           0       -0.000005    1.270942    0.000007
      6         15           0       -1.205080   -0.000012   -0.668749
      7          8           0       -0.000024    2.459850    0.000019
      8         17           0       -3.083412   -0.000006    0.230598
 ---------------------------------------------------------------------

 SCF Done:  E(RHF) =  -1827.70724509     A.U. after    2 cycles

 The electronic state is 1-A.
 Alpha  occ. eigenvalues -- -105.27426-105.26347 -99.93803 -99.93792 -21.12986
 Alpha  occ. eigenvalues --  -21.12976 -11.53905 -11.53864 -10.50999 -10.50986
 Alpha  occ. eigenvalues --   -9.70825  -9.70814  -9.70157  -9.70142  -9.70140
 Alpha  occ. eigenvalues --   -9.70094  -2.86815  -2.85425  -1.77828  -1.77422
 Alpha  occ. eigenvalues --   -1.63333  -1.57300  -1.55343  -1.53035  -1.52316
 Alpha  occ. eigenvalues --   -1.50681  -1.27810  -1.26794  -0.97160  -0.77855
 Alpha  occ. eigenvalues --   -0.73381  -0.63305  -0.57102  -0.56907  -0.56902
 Alpha  occ. eigenvalues --   -0.56739  -0.53509  -0.53070  -0.51963  -0.50395
 Alpha  occ. eigenvalues --   -0.47455  -0.45293  -0.32389  -0.10904  -0.07897
 Alpha  occ. eigenvalues --   -0.07372
 Alpha virt. eigenvalues --    0.05591   0.06629   0.07218   0.07824   0.07861
 Alpha virt. eigenvalues --    0.07907   0.09297   0.10398   0.12217   0.12422
 Alpha virt. eigenvalues --    0.12738   0.13349   0.13350   0.13989   0.14848

 Mulliken charges:
               1
     1  Cl  -1.277760
     2  P    5.445618
     3  C   -1.253575
     4  O   -2.914252
     5  C   -1.253575
     6  P    5.445547
     7  O   -2.914252
     8  Cl  -1.277751
 Sum of Mulliken charges =  -0.00000

 Dipole moment (field-independent basis, Debye):
    X=              0.0001    Y=              0.0000    Z=             -0.0003  Tot=              0.0003

 Test job not archived.
 1\1\GINC-SE364\SP\RHF\Aug-CC-pVDZ\C2Cl2O2P2\OHZDE\08-Apr-2025\0\\#t hf
  aug-cc-pvdz iop(5/13=1,5/36=2,99/5=2) pseudo=read geom=check guess=(r
 ead,tcheck) scf=(maxcycle=1)\\title\\0,1\Cl,0,3.0834,-0.000006,0.23064
 1\P,0,1.205094,-0.000012,-0.66876\C,0,-0.000001,1.270942,-0.000044\O,0
 ,0.000029,2.45985,-0.000015\C,0,-0.000005,-1.270942,-0.000007\P,0,-1.2
 0508,0.000012,0.668749\O,0,-0.000024,-2.45985,-0.000019\Cl,0,-3.083412
 ,0.000006,-0.230598\\Version=ES64L-G16RevC.01\State=1-A\HF=-1827.70724
 51\RMSD=1.604e-01\Dipole=0.0000554,0.,0.0001164\Quadrupole=-4.5841687,

 Normal termination of Gaussian 16 at Tue Apr  8 23:25:10 2025.
