 Gaussian 16, Revision C.01,

 ----------------------------------------------------------------------
 #t hf aug-cc-pvdz symm=none int=(grid=ultrafine) guess=(read,tcheck) s
 table=(opt,rrhf)
 ----------------------------------------------------------------------
 -----
 title
 -----
 Symbolic Z-matrix:
 Charge =  0 Multiplicity = 1

 SCF Done:  E(RHF) =  -792.889172915     A.U. after   13 cycles
 Normal termination of Gaussian 16 at Tue Apr  8 23:37:52 2025.
 Gaussian 16:  ES64L-G16RevC.01  3-Jul-2019

 ----------------------------------------------------------------------
 #t hf aug-cc-pvdz iop(5/13=1,5/36=2,99/5=2) pseudo=read geom=check gue
 ss=(read,tcheck) scf=(maxcycle=1)
 ----------------------------------------------------------------------
 -----
 title
 -----
 Structure from the checkpoint file:  "BDE49_nonexpt_1532_mol1.chk"
 Charge =  0 Multiplicity = 1

                         Standard orientation:
 ---------------------------------------------------------------------
 Center     Atomic      Atomic             Coordinates (Angstroms)
 Number     Number       Type             X           Y           Z
 ---------------------------------------------------------------------
      1         15           0        0.670016   -0.000002    0.516618
      2          7           0       -0.859653    0.000003   -0.499679
      3          9           0        1.318661   -1.212889   -0.286539
      4          9           0        1.318665    1.212892   -0.286529
      5          9           0       -1.542698   -1.105089    0.050343
      6          9           0       -1.542703    1.105088    0.050334
 ---------------------------------------------------------------------

 SCF Done:  E(RHF) =  -794.657743361     A.U. after    2 cycles

 The electronic state is 1-A.
 Alpha  occ. eigenvalues -- -105.36028 -29.33577 -29.33570 -29.32389 -29.32363
 Alpha  occ. eigenvalues --  -15.90711  -2.96158  -1.71125  -1.69183  -1.65848
 Alpha  occ. eigenvalues --   -1.41681  -0.94314  -0.85103  -0.68232  -0.60126
 Alpha  occ. eigenvalues --   -0.58124  -0.47817  -0.44618  -0.42995  -0.42923
 Alpha  occ. eigenvalues --   -0.38924  -0.38867  -0.34746  -0.31240  -0.30362
 Alpha  occ. eigenvalues --   -0.23631  -0.22429  -0.19027  -0.02773
 Alpha virt. eigenvalues --    0.08468   0.09969   0.10671   0.13984   0.16791
 Alpha virt. eigenvalues --    0.18702   0.19013   0.21324   0.21529   0.23695
 Alpha virt. eigenvalues --    0.23943   0.25613   0.28509   0.28858   0.30208

 Mulliken charges:
               1
     1  P    0.818929
     2  N   -0.269759
     3  F   -0.189936
     4  F   -0.189937
     5  F   -0.084650
     6  F   -0.084647
 Sum of Mulliken charges =   0.00000

 Dipole moment (field-independent basis, Debye):
    X=              0.9602    Y=             -0.0000    Z=             -3.5332  Tot=              3.6614

 Test job not archived.
 1\1\GINC-SE102\SP\RHF\Aug-CC-pVDZ\F4N1P1\OHZDE\08-Apr-2025\0\\#t hf au
 g-cc-pvdz iop(5/13=1,5/36=2,99/5=2) pseudo=read geom=check guess=(read
 ,tcheck) scf=(maxcycle=1)\\title\\0,1\P,0,0.670016,-0.000002,0.516618\
 N,0,-0.859653,0.000003,-0.499679\F,0,1.318661,-1.212889,-0.286539\F,0,
 1.318665,1.212892,-0.286529\F,0,-1.542698,-1.105089,0.050343\F,0,-1.54
 2703,1.105088,0.050334\\Version=ES64L-G16RevC.01\State=1-A\HF=-794.657
 7434\RMSD=5.492e-02\Dipole=0.3777598,-0.000007,-1.3900732\Quadrupole=4
 .8567196,5.115169,-9.9718886,0.0000228,-4.3177007,0.0000236\PG=C01 [X(

 Normal termination of Gaussian 16 at Tue Apr  8 23:37:54 2025.
