 Gaussian 16, Revision C.01,

 ----------------------------------------------------------------------
 #t hf aug-cc-pvdz symm=none int=(grid=ultrafine) guess=(read,tcheck) s
 table=(opt,rrhf)
 ----------------------------------------------------------------------
 -----
 title
 -----
 Symbolic Z-matrix:
 Charge =  0 Multiplicity = 1

 SCF Done:  E(RHF) =  -805.971918823     A.U. after   11 cycles
 Normal termination of Gaussian 16 at Wed Apr  9 00:14:50 2025.
 Gaussian 16:  ES64L-G16RevC.01  3-Jul-2019

 ----------------------------------------------------------------------
 #t hf aug-cc-pvdz iop(5/13=1,5/36=2,99/5=2) pseudo=read geom=check gue
 ss=(read,tcheck) scf=(maxcycle=1)
 ----------------------------------------------------------------------
 -----
 title
 -----
 Structure from the checkpoint file:  "BDE49_nonexpt_2473_mol1.chk"
 Charge =  0 Multiplicity = 1

                         Standard orientation:
 ---------------------------------------------------------------------
 Center     Atomic      Atomic             Coordinates (Angstroms)
 Number     Number       Type             X           Y           Z
 ---------------------------------------------------------------------
      1         16           0        1.836454    0.020701    0.000000
      2         14           0       -0.349882    0.005147    0.000000
      3          6           0       -0.992472   -0.861742   -1.538013
      4          1           0       -0.627508   -0.374331   -2.445607
      5          1           0       -2.087562   -0.847164   -1.558712
      6          1           0       -0.673579   -1.907694   -1.567991
      7          6           0       -0.828818    1.820146   -0.000001
      8          1           0       -1.918666    1.923738   -0.000001
      9          1           0       -0.443827    2.334013   -0.884905
     10          1           0       -0.443827    2.334014    0.884902
     11          6           0       -0.992472   -0.861740    1.538014
     12          1           0       -0.673579   -1.907692    1.567993
     13          1           0       -2.087562   -0.847162    1.558713
     14          1           0       -0.627508   -0.374328    2.445607
     15          1           0        1.981273   -1.316652    0.000001
 ---------------------------------------------------------------------

 SCF Done:  E(RHF) =  -806.996756076     A.U. after    2 cycles

 The electronic state is 1-A.
 Alpha  occ. eigenvalues --  -76.21654 -75.66993 -13.13928 -13.06658 -13.03224
 Alpha  occ. eigenvalues --  -11.34964 -11.34916 -11.34843  -8.00937  -5.55606
 Alpha  occ. eigenvalues --   -2.19121  -2.18985  -2.17536  -1.11547  -1.05392
 Alpha  occ. eigenvalues --   -1.01339  -1.01216  -0.65164  -0.57655  -0.56893
 Alpha  occ. eigenvalues --   -0.56830  -0.55357  -0.55028  -0.53753  -0.48643
 Alpha  occ. eigenvalues --   -0.40434  -0.39776  -0.32276  -0.25918
 Alpha virt. eigenvalues --    0.02168   0.04760   0.05331   0.05649   0.06289
 Alpha virt. eigenvalues --    0.06581   0.06682   0.07425   0.07490   0.08524
 Alpha virt. eigenvalues --    0.09525   0.09640   0.10381   0.11676   0.13647

 Mulliken charges:
               1
     1  S   -3.034372
     2  Si   8.326156
     3  C   -5.683796
     4  H    1.213172
     5  H    1.208484
     6  H    1.173222
     7  C   -5.635153
     8  H    1.207756
     9  H    1.160373
    10  H    1.160373
    11  C   -5.683796
    12  H    1.173222
    13  H    1.208484
    14  H    1.213172
    15  H    0.992703
 Sum of Mulliken charges =  -0.00000

 Dipole moment (field-independent basis, Debye):
    X=             -0.1243    Y=              0.9969    Z=             -0.0000  Tot=              1.0046

 Test job not archived.
 1\1\GINC-SE332\SP\RHF\Aug-CC-pVDZ\C3H10S1Si1\OHZDE\09-Apr-2025\0\\#t h
 f aug-cc-pvdz iop(5/13=1,5/36=2,99/5=2) pseudo=read geom=check guess=(
 read,tcheck) scf=(maxcycle=1)\\title\\0,1\S,0,1.836454,0.020701,0.\Si,
 0,-0.349882,0.005147,0.\C,0,-0.992472,-0.861742,-1.538013\H,0,-0.62750
 8,-0.374331,-2.445607\H,0,-2.087562,-0.847163,-1.558712\H,0,-0.67358,-
 1.907694,-1.567991\C,0,-0.828818,1.820146,-0.000001\H,0,-1.918666,1.92
 3739,-0.000001\H,0,-0.443826,2.334013,-0.884905\H,0,-0.443826,2.334014
 ,0.884902\C,0,-0.992472,-0.86174,1.538014\H,0,-0.67358,-1.907692,1.567

 Normal termination of Gaussian 16 at Wed Apr  9 00:14:54 2025.
