 Gaussian 16, Revision C.01,

 ----------------------------------------------------------------------
 #t hf aug-cc-pvdz symm=none int=(grid=ultrafine) guess=(read,tcheck) s
 table=(opt,rrhf)
 ----------------------------------------------------------------------
 -----
 title
 -----
 Symbolic Z-matrix:
 Charge =  0 Multiplicity = 1

 SCF Done:  E(RHF) =  -443.032026995     A.U. after   13 cycles
 Normal termination of Gaussian 16 at Tue Apr  8 23:50:19 2025.
 Gaussian 16:  ES64L-G16RevC.01  3-Jul-2019

 ----------------------------------------------------------------------
 #t hf aug-cc-pvdz iop(5/13=1,5/36=2,99/5=2) pseudo=read geom=check gue
 ss=(read,tcheck) scf=(maxcycle=1)
 ----------------------------------------------------------------------
 -----
 title
 -----
 Structure from the checkpoint file:  "BDE49_nonexpt_1867_mol1.chk"
 Charge =  0 Multiplicity = 1

                         Standard orientation:
 ---------------------------------------------------------------------
 Center     Atomic      Atomic             Coordinates (Angstroms)
 Number     Number       Type             X           Y           Z
 ---------------------------------------------------------------------
      1         14           0        1.489557   -0.234194    0.015595
      2          6           0       -0.084246    0.814404   -0.208506
      3          6           0       -1.294638    0.149039    0.380426
      4          1           0        1.367995   -1.495285   -0.745870
      5          1           0        1.685726   -0.542561    1.451027
      6          1           0        2.650324    0.540944   -0.476571
      7          8           0       -2.091794   -0.503693   -0.245790
      8          1           0       -1.407532    0.275139    1.480689
      9          1           0       -0.238779    0.974295   -1.278811
     10          1           0        0.096119    1.775065    0.286014
 ---------------------------------------------------------------------

 SCF Done:  E(RHF) =  -443.880956939     A.U. after    2 cycles

 The electronic state is 1-A.
 Alpha  occ. eigenvalues --  -76.23209 -21.06236 -11.48828 -11.38382  -5.56663
 Alpha  occ. eigenvalues --   -2.20201  -2.18948  -2.18836  -1.70876  -1.12098
 Alpha  occ. eigenvalues --   -0.83081  -0.76379  -0.65127  -0.57823  -0.52348
 Alpha  occ. eigenvalues --   -0.49401  -0.48025  -0.47719  -0.38772  -0.29599
 Alpha virt. eigenvalues --    0.03603   0.04481   0.05464   0.05531   0.06733
 Alpha virt. eigenvalues --    0.07451   0.08556   0.09101   0.09777   0.12133
 Alpha virt. eigenvalues --    0.13010   0.13753   0.14110   0.14721   0.15461

 Mulliken charges:
               1
     1  Si   5.985470
     2  C   -4.108281
     3  C    1.652338
     4  H   -1.664735
     5  H   -1.689584
     6  H   -1.633919
     7  O   -2.678721
     8  H    1.437935
     9  H    1.290620
    10  H    1.408878
 Sum of Mulliken charges =   0.00000

 Dipole moment (field-independent basis, Debye):
    X=              0.8207    Y=              1.0533    Z=              0.2501  Tot=              1.3585

 Test job not archived.
 1\1\GINC-SE345\SP\RHF\Aug-CC-pVDZ\C2H6O1Si1\OHZDE\08-Apr-2025\0\\#t hf
  aug-cc-pvdz iop(5/13=1,5/36=2,99/5=2) pseudo=read geom=check guess=(r
 ead,tcheck) scf=(maxcycle=1)\\title\\0,1\Si,0,1.489557,-0.234194,0.015
 595\C,0,-0.084246,0.814404,-0.208506\C,0,-1.294638,0.149039,0.380426\H
 ,0,1.367995,-1.495285,-0.74587\H,0,1.685726,-0.542561,1.451027\H,0,2.6
 50324,0.540944,-0.476571\O,0,-2.091794,-0.503693,-0.24579\H,0,-1.40753
 2,0.275139,1.480689\H,0,-0.238779,0.974295,-1.278811\H,0,0.096119,1.77
 5065,0.286014\\Version=ES64L-G16RevC.01\State=1-A\HF=-443.8809569\RMSD

 Normal termination of Gaussian 16 at Tue Apr  8 23:50:21 2025.
