 Gaussian 16, Revision C.01,

 ----------------------------------------------------------------------
 #t hf aug-cc-pvdz symm=none int=(grid=ultrafine) guess=(read,tcheck) s
 table=opt
 ----------------------------------------------------------------------
 -----
 title
 -----
 Symbolic Z-matrix:
 Charge =  0 Multiplicity = 2

 SCF Done:  E(UHF) =  -276.349595664     A.U. after   15 cycles
 Normal termination of Gaussian 16 at Tue Apr  8 22:39:40 2025.
 Gaussian 16:  ES64L-G16RevC.01  3-Jul-2019

 ----------------------------------------------------------------------
 #t hf aug-cc-pvdz iop(5/13=1,5/36=2,99/5=2) pseudo=read geom=check gue
 ss=(read,tcheck) scf=(maxcycle=1)
 ----------------------------------------------------------------------
 -----
 title
 -----
 Structure from the checkpoint file:  "BDE49_expt_124_mol2.chk"
 Charge =  0 Multiplicity = 2

                         Standard orientation:
 ---------------------------------------------------------------------
 Center     Atomic      Atomic             Coordinates (Angstroms)
 Number     Number       Type             X           Y           Z
 ---------------------------------------------------------------------
      1          6           0       -0.308300    0.053788   -0.000000
      2          9           0        0.057901    0.737072    1.096915
      3          6           0        0.057901   -1.388923    0.000000
      4          9           0        0.057901    0.737072   -1.096915
      5          1           0        1.150612   -1.506543    0.000000
      6          1           0       -0.345218   -1.874974   -0.888790
      7          1           0       -0.345218   -1.874974    0.888790
 ---------------------------------------------------------------------

 SCF Done:  E(UHF) =  -277.386670843     A.U. after    2 cycles

 The electronic state is 2-A'.
 Alpha  occ. eigenvalues --  -29.29893 -29.29845 -11.51651 -11.39971  -1.32297
 Alpha  occ. eigenvalues --   -1.02520  -0.81645  -0.68071  -0.65731  -0.56948
 Alpha  occ. eigenvalues --   -0.53055  -0.44930  -0.39237  -0.31094  -0.30555
 Alpha  occ. eigenvalues --   -0.23051  -0.18172
 Alpha virt. eigenvalues --    0.04090   0.06124   0.06194   0.09396   0.11435
 Alpha virt. eigenvalues --    0.12385   0.13197   0.15078   0.16998   0.17267
 Alpha virt. eigenvalues --    0.23634   0.24496   0.24606   0.27176   0.27556

  Beta  occ. eigenvalues --  -29.29521 -29.29473 -11.49044 -11.39876  -1.26917
  Beta  occ. eigenvalues --   -1.00807  -0.80159  -0.64041  -0.60324  -0.56745
  Beta  occ. eigenvalues --   -0.44319  -0.43020  -0.38363  -0.30745  -0.28718
  Beta  occ. eigenvalues --   -0.22915
  Beta virt. eigenvalues --    0.03704   0.06077   0.06126   0.09495   0.11083
  Beta virt. eigenvalues --    0.11590   0.13273   0.14125   0.16747   0.17320
  Beta virt. eigenvalues --    0.19426   0.24052   0.24774   0.25566   0.27686

 Mulliken charges and spin densities:
               1          2
     1  C   -1.247950   0.987161
     2  F    0.507352   0.106802
     3  C   -3.497643  -0.225978
     4  F    0.507352   0.106802
     5  H    1.178331   0.057239
     6  H    1.276279  -0.016013
     7  H    1.276279  -0.016013
 Sum of Mulliken charges =  -0.00000   1.00000

 Dipole moment (field-independent basis, Debye):
    X=              0.9202    Y=              1.0849    Z=             -0.0000  Tot=              1.4226
                          Isotropic Fermi Contact Couplings
        Atom                 a.u.       MegaHertz       Gauss      10(-4) cm-1
     1  C(13)              0.20108     226.04814      80.65960      75.40154
     2  F(19)              0.03743     157.50441      56.20149      52.53782
     3  C(13)              0.02558      28.76227      10.26309       9.59406
     4  F(19)              0.03743     157.50441      56.20149      52.53782
     5  H(1)               0.01277      57.08038      20.36770      19.03997
     6  H(1)               0.00205       9.15519       3.26680       3.05384
     7  H(1)               0.00205       9.15519       3.26680       3.05384
 --------------------------------------------------------

 Normal termination of Gaussian 16 at Tue Apr  8 22:39:43 2025.
