 Gaussian 16, Revision C.01,

 ----------------------------------------------------------------------
 #t hf aug-cc-pvdz symm=none int=(grid=ultrafine) guess=(read,tcheck) s
 table=(opt,rrhf)
 ----------------------------------------------------------------------
 -----
 title
 -----
 Symbolic Z-matrix:
 Charge =  0 Multiplicity = 1

 SCF Done:  E(RHF) =  -1187.91709565     A.U. after   17 cycles
 Normal termination of Gaussian 16 at Tue Apr  8 23:46:06 2025.
 Gaussian 16:  ES64L-G16RevC.01  3-Jul-2019

 ----------------------------------------------------------------------
 #t hf aug-cc-pvdz iop(5/13=1,5/36=2,99/5=2) pseudo=read geom=check gue
 ss=(read,tcheck) scf=(maxcycle=1)
 ----------------------------------------------------------------------
 -----
 title
 -----
 Structure from the checkpoint file:  "BDE49_nonexpt_1605_mol1.chk"
 Charge =  0 Multiplicity = 1

                         Standard orientation:
 ---------------------------------------------------------------------
 Center     Atomic      Atomic             Coordinates (Angstroms)
 Number     Number       Type             X           Y           Z
 ---------------------------------------------------------------------
      1          6           0       -3.124504   -0.079880   -0.000921
      2          6           0       -2.246607   -1.156754   -0.033662
      3          6           0       -0.881344   -0.901648   -0.040866
      4          6           0       -2.688497    1.240385    0.024692
      5          6           0       -1.323073    1.486238    0.015919
      6          6           0       -0.418178    0.418590   -0.017138
      7          1           0       -2.638816   -2.163596   -0.051942
      8          1           0       -0.173355   -1.718252   -0.065883
      9          1           0       -3.413465    2.041406    0.050805
     10          1           0       -0.941687    2.498747    0.035570
     11          6           0        1.032252    0.739530   -0.024869
     12          8           0        1.818485   -0.365220   -0.068718
     13         15           0        3.472726   -0.318843    0.125425
     14          8           0        3.856725   -0.432423    1.525945
     15          8           0        1.477757    1.866575   -0.004893
     16          7           0       -4.585831   -0.349923    0.007198
     17          8           0       -4.941107   -1.518705   -0.016329
     18          8           0       -5.334680    0.614969    0.036466
     19          8           0        3.897311   -1.513997   -0.819907
     20          1           0        4.275811   -2.246279   -0.318885
     21          8           0        3.909522    0.930030   -0.726181
     22          1           0        3.329033    1.691478   -0.531423
 ---------------------------------------------------------------------

 SCF Done:  E(RHF) =  -1191.72191451     A.U. after    2 cycles

 The electronic state is 1-A.
 Alpha  occ. eigenvalues -- -105.35896 -21.14546 -21.13766 -21.13039 -21.11366
 Alpha  occ. eigenvalues --  -21.11245 -21.10189 -21.04834 -16.01898 -11.60252
 Alpha  occ. eigenvalues --  -11.57611 -11.50683 -11.49871 -11.49350 -11.46900
 Alpha  occ. eigenvalues --  -11.42957  -2.98882  -2.04610  -2.01694  -1.96164
 Alpha  occ. eigenvalues --   -1.95679  -1.80887  -1.73336  -1.71002  -1.48736
 Alpha  occ. eigenvalues --   -1.42474  -1.40220  -1.27394  -1.21586  -1.15285
 Alpha  occ. eigenvalues --   -1.05446  -0.93151  -0.89928  -0.82730  -0.76900
 Alpha  occ. eigenvalues --   -0.73706  -0.69457  -0.68798  -0.68135  -0.66312
 Alpha  occ. eigenvalues --   -0.63987  -0.63321  -0.61973  -0.59959  -0.59015
 Alpha  occ. eigenvalues --   -0.55820  -0.54294  -0.53532  -0.49617  -0.46855
 Alpha  occ. eigenvalues --   -0.45029  -0.42070  -0.38426  -0.37964  -0.37488
 Alpha  occ. eigenvalues --   -0.36665  -0.36522  -0.35182  -0.33017  -0.32954
 Alpha  occ. eigenvalues --   -0.32182  -0.29406  -0.18249
 Alpha virt. eigenvalues --    0.02463   0.03932   0.04593   0.05667   0.06209
 Alpha virt. eigenvalues --    0.06697   0.07069   0.07403   0.08553   0.09586
 Alpha virt. eigenvalues --    0.10044   0.10205   0.10677   0.11346   0.11716

 Mulliken charges:
               1
     1  C    1.086261
     2  C   -2.861001
     3  C    0.664104
     4  C   -2.651999
     5  C   -0.434999
     6  C    0.766164
     7  H    1.865767
     8  H    2.005560
     9  H    1.840569
    10  H    1.843517
    11  C    5.275966
    12  O   -5.372002
    13  P    8.549316
    14  O   -2.835848
    15  O   -3.622369
    16  N    3.333527
    17  O   -3.001679
    18  O   -2.999549
    19  O   -2.741061
    20  H    0.944290
    21  O   -2.985778
    22  H    1.331245
 Sum of Mulliken charges =   0.00000

 Dipole moment (field-independent basis, Debye):
    X=              0.5814    Y=             -0.3972    Z=             -2.4713  Tot=              2.5696

 Test job not archived.
 1\1\GINC-SE220\SP\RHF\Aug-CC-pVDZ\C7H6N1O7P1\OHZDE\08-Apr-2025\0\\#t h
 f aug-cc-pvdz iop(5/13=1,5/36=2,99/5=2) pseudo=read geom=check guess=(
 read,tcheck) scf=(maxcycle=1)\\title\\0,1\C,0,-3.124504,-0.07988,-0.00
 0921\C,0,-2.246607,-1.156754,-0.033662\C,0,-0.881344,-0.901648,-0.0408
 66\C,0,-2.688497,1.240385,0.024692\C,0,-1.323073,1.486238,0.015919\C,0
 ,-0.418178,0.41859,-0.017138\H,0,-2.638816,-2.163596,-0.051942\H,0,-0.
 173355,-1.718252,-0.065883\H,0,-3.413465,2.041406,0.050805\H,0,-0.9416
 87,2.498747,0.03557\C,0,1.032252,0.73953,-0.024869\O,0,1.818485,-0.365

 Normal termination of Gaussian 16 at Tue Apr  8 23:46:28 2025.
