 Gaussian 16, Revision C.01,

 ----------------------------------------------------------------------
 #t hf aug-cc-pvdz symm=none int=(grid=ultrafine) guess=(read,tcheck) s
 table=(opt,rrhf)
 ----------------------------------------------------------------------
 -----
 title
 -----
 Symbolic Z-matrix:
 Charge =  0 Multiplicity = 1

 SCF Done:  E(RHF) =  -248.190407023     A.U. after   12 cycles
 Normal termination of Gaussian 16 at Tue Apr  8 22:41:38 2025.
 Gaussian 16:  ES64L-G16RevC.01  3-Jul-2019

 ----------------------------------------------------------------------
 #t hf aug-cc-pvdz iop(5/13=1,5/36=2,99/5=2) pseudo=read geom=check gue
 ss=(read,tcheck) scf=(maxcycle=1)
 ----------------------------------------------------------------------
 -----
 title
 -----
 Structure from the checkpoint file:  "BDE49_expt_1347_mol1.chk"
 Charge =  0 Multiplicity = 1

                         Standard orientation:
 ---------------------------------------------------------------------
 Center     Atomic      Atomic             Coordinates (Angstroms)
 Number     Number       Type             X           Y           Z
 ---------------------------------------------------------------------
      1          7           0        0.087285    1.413923   -0.431336
      2          6           0        1.079472   -0.886357   -0.583343
      3          6           0       -1.414979   -0.490587   -0.304544
      4          6           0       -0.008252    0.027469    0.012714
      5          1           0        1.001746   -0.930833   -1.673595
      6          1           0        0.998485   -1.911452   -0.203743
      7          1           0        2.067620   -0.501109   -0.319556
      8          1           0        0.992868    1.787236   -0.160974
      9          1           0        0.023149    1.461513   -1.443005
     10          1           0       -1.602985   -0.502040   -1.382664
     11          1           0       -2.145920    0.161096    0.174295
     12          1           0       -1.545329   -1.510688    0.068552
     13          8           0        0.179298    0.115842    1.429580
     14          1           0        0.227535   -0.781068    1.774436
 ---------------------------------------------------------------------

 SCF Done:  E(RHF) =  -249.376218093     A.U. after    2 cycles

 The electronic state is 1-A.
 Alpha  occ. eigenvalues --  -21.06022 -15.72397 -11.45986 -11.39414 -11.35588
 Alpha  occ. eigenvalues --   -1.72050  -1.31710  -1.10568  -1.01920  -0.81345
 Alpha  occ. eigenvalues --   -0.67490  -0.63742  -0.60737  -0.57528  -0.54865
 Alpha  occ. eigenvalues --   -0.52836  -0.48948  -0.47212  -0.39724  -0.35275
 Alpha  occ. eigenvalues --   -0.31019
 Alpha virt. eigenvalues --    0.03503   0.05493   0.05674   0.05809   0.05889
 Alpha virt. eigenvalues --    0.06233   0.06888   0.07119   0.08170   0.12375
 Alpha virt. eigenvalues --    0.13969   0.14751   0.15153   0.15705   0.16277

 Mulliken charges:
               1
     1  N   -3.436378
     2  C   -3.910951
     3  C   -3.929731
     4  C    6.099665
     5  H    1.191038
     6  H    1.200029
     7  H    1.184811
     8  H    0.458481
     9  H    0.569098
    10  H    1.214103
    11  H    1.219987
    12  H    1.138274
    13  O   -3.779236
    14  H    0.780810
 Sum of Mulliken charges =   0.00000

 Dipole moment (field-independent basis, Debye):
    X=              0.7014    Y=             -0.7950    Z=             -0.7984  Tot=              1.3272

 Test job not archived.
 1\1\GINC-SE361\SP\RHF\Aug-CC-pVDZ\C3H9N1O1\OHZDE\08-Apr-2025\0\\#t hf
 aug-cc-pvdz iop(5/13=1,5/36=2,99/5=2) pseudo=read geom=check guess=(re
 ad,tcheck) scf=(maxcycle=1)\\title\\0,1\N,0,0.087282,1.413923,-0.43133
 6\C,0,1.079474,-0.886354,-0.583343\C,0,-1.414978,-0.49059,-0.304544\C,
 0,-0.008252,0.027469,0.012714\H,0,1.001748,-0.930831,-1.673595\H,0,0.9
 98489,-1.91145,-0.203743\H,0,2.067621,-0.501104,-0.319556\H,0,0.992864
 ,1.787238,-0.160974\H,0,0.023145,1.461513,-1.443005\H,0,-1.602984,-0.5
 02044,-1.382664\H,0,-2.14592,0.161091,0.174295\H,0,-1.545325,-1.510692

 Normal termination of Gaussian 16 at Tue Apr  8 22:41:41 2025.
