 Gaussian 16, Revision C.01,

 ----------------------------------------------------------------------
 #t hf aug-cc-pvdz symm=none int=(grid=ultrafine) guess=(read,tcheck) s
 table=(opt,rrhf)
 ----------------------------------------------------------------------
 -----
 title
 -----
 Symbolic Z-matrix:
 Charge =  0 Multiplicity = 1

 SCF Done:  E(RHF) =  -183.566042574     A.U. after   13 cycles
 Normal termination of Gaussian 16 at Wed Apr  9 00:42:26 2025.
 Gaussian 16:  ES64L-G16RevC.01  3-Jul-2019

 ----------------------------------------------------------------------
 #t hf aug-cc-pvdz iop(5/13=1,5/36=2,99/5=2) pseudo=read geom=check gue
 ss=(read,tcheck) scf=(maxcycle=1)
 ----------------------------------------------------------------------
 -----
 title
 -----
 Structure from the checkpoint file:  "BDE49_nonexpt_69_mol1.chk"
 Charge =  0 Multiplicity = 1

                         Standard orientation:
 ---------------------------------------------------------------------
 Center     Atomic      Atomic             Coordinates (Angstroms)
 Number     Number       Type             X           Y           Z
 ---------------------------------------------------------------------
      1          5           0       -1.753799   -0.855153    0.000168
      2          5           0       -1.281127    0.710199   -0.000175
      3          6           0        0.237289    1.177430    0.000090
      4          7           0        1.272592    0.424107    0.000104
      5          6           0        1.159464   -1.005479   -0.000176
      6          1           0        1.669101   -1.405950   -0.881685
      7          1           0        0.118616   -1.402271   -0.000415
      8          1           0        1.668818   -1.406274    0.881350
      9          1           0        0.465163    2.247578    0.000275
     10          1           0       -2.086633    1.596192   -0.000263
     11          1           0       -1.975005   -1.452122    1.014752
     12          1           0       -1.974094   -1.452838   -1.014191
 ---------------------------------------------------------------------

 SCF Done:  E(RHF) =  -184.444953594     A.U. after    2 cycles

 The electronic state is 1-A.
 Alpha  occ. eigenvalues --  -15.75352 -11.40334 -11.38636  -7.60328  -7.59490
 Alpha  occ. eigenvalues --   -1.39169  -1.04871  -0.96618  -0.80440  -0.70648
 Alpha  occ. eigenvalues --   -0.65289  -0.60290  -0.53669  -0.50766  -0.48578
 Alpha  occ. eigenvalues --   -0.40624  -0.39851  -0.34427
 Alpha virt. eigenvalues --    0.02571   0.02637   0.02829   0.03622   0.05897
 Alpha virt. eigenvalues --    0.07256   0.07846   0.07955   0.08472   0.09398
 Alpha virt. eigenvalues --    0.09608   0.10601   0.11174   0.12154   0.12653

 Mulliken charges:
               1
     1  B    3.629771
     2  B    5.118316
     3  C   -1.020716
     4  N   -2.666082
     5  C   -3.360410
     6  H    1.359803
     7  H    1.758761
     8  H    1.359874
     9  H    1.683633
    10  H   -3.296887
    11  H   -2.284759
    12  H   -2.281304
 Sum of Mulliken charges =  -0.00000

 Dipole moment (field-independent basis, Debye):
    X=              0.2555    Y=             -0.4130    Z=             -0.0004  Tot=              0.4857

 Test job not archived.
 1\1\GINC-SE150\SP\RHF\Aug-CC-pVDZ\C2H7B2N1\OHZDE\09-Apr-2025\0\\#t hf
 aug-cc-pvdz iop(5/13=1,5/36=2,99/5=2) pseudo=read geom=check guess=(re
 ad,tcheck) scf=(maxcycle=1)\\title\\0,1\B,0,-1.753799,-0.855153,0.0001
 68\B,0,-1.281127,0.710199,-0.000175\C,0,0.237289,1.17743,0.00009\N,0,1
 .272592,0.424107,0.000104\C,0,1.159464,-1.005479,-0.000176\H,0,1.66910
 1,-1.40595,-0.881685\H,0,0.118616,-1.402271,-0.000415\H,0,1.668818,-1.
 406274,0.88135\H,0,0.465163,2.247578,0.000275\H,0,-2.086633,1.596192,-
 0.000263\H,0,-1.975005,-1.452122,1.014752\H,0,-1.974094,-1.452838,-1.0

 Normal termination of Gaussian 16 at Wed Apr  9 00:42:30 2025.
