 Gaussian 16, Revision C.01,

 ----------------------------------------------------------------------
 #t hf aug-cc-pvdz symm=none int=(grid=ultrafine) guess=(read,tcheck) s
 table=opt
 ----------------------------------------------------------------------
 -----
 title
 -----
 Symbolic Z-matrix:
 Charge =  0 Multiplicity = 2

 SCF Done:  E(UHF) =  -779.923656217     A.U. after   22 cycles
 Normal termination of Gaussian 16 at Tue Apr  8 23:58:23 2025.
 Gaussian 16:  ES64L-G16RevC.01  3-Jul-2019

 ----------------------------------------------------------------------
 #t hf aug-cc-pvdz iop(5/13=1,5/36=2,99/5=2) pseudo=read geom=check gue
 ss=(read,tcheck) scf=(maxcycle=1)
 ----------------------------------------------------------------------
 -----
 title
 -----
 Structure from the checkpoint file:  "BDE49_nonexpt_2047_mol2.chk"
 Charge =  0 Multiplicity = 2

                         Standard orientation:
 ---------------------------------------------------------------------
 Center     Atomic      Atomic             Coordinates (Angstroms)
 Number     Number       Type             X           Y           Z
 ---------------------------------------------------------------------
      1         14           0       -1.545618   -0.539268   -0.101280
      2          6           0        1.397026   -0.112224   -0.006364
      3          7           0        2.330535   -0.797614   -0.028921
      4         16           0        0.065220    0.942015    0.034572
      5          1           0       -2.747267    0.296052    0.148033
      6          1           0       -1.353505   -1.561901    0.957363
 ---------------------------------------------------------------------

 SCF Done:  E(UHF) =  -780.674442399     A.U. after    2 cycles

 The electronic state is 2-A.
 Alpha  occ. eigenvalues --  -76.29228 -75.74659 -15.77354 -13.21118 -13.14298
 Alpha  occ. eigenvalues --  -13.07437 -11.44931  -8.08902  -5.62395  -2.24130
 Alpha  occ. eigenvalues --   -2.23850  -2.22960  -1.33068  -1.17437  -0.80114
 Alpha  occ. eigenvalues --   -0.65832  -0.53483  -0.51525  -0.50491  -0.49307
 Alpha  occ. eigenvalues --   -0.39601  -0.33045  -0.26291
 Alpha virt. eigenvalues --    0.02874   0.03184   0.05503   0.06063   0.08529
 Alpha virt. eigenvalues --    0.09406   0.09987   0.11411   0.11792   0.12279
 Alpha virt. eigenvalues --    0.13461   0.13957   0.14588   0.16202   0.16596

  Beta  occ. eigenvalues --  -76.28652 -75.74570 -15.77322 -13.21059 -13.14135
  Beta  occ. eigenvalues --  -13.07047 -11.44955  -8.08800  -5.61466  -2.23524
  Beta  occ. eigenvalues --   -2.23155  -2.19440  -1.32947  -1.16866  -0.75926
  Beta  occ. eigenvalues --   -0.65049  -0.52768  -0.51144  -0.50188  -0.48655
  Beta  occ. eigenvalues --   -0.36298  -0.30276
  Beta virt. eigenvalues --    0.01240   0.03284   0.03637   0.05704   0.07098
  Beta virt. eigenvalues --    0.09190   0.09535   0.10519   0.12027   0.12241
  Beta virt. eigenvalues --    0.12908   0.13981   0.14788   0.14891   0.16542

 Mulliken charges and spin densities:
               1          2
     1  Si   4.199722   0.850380
     2  C    0.724441  -0.004303
     3  N   -1.860401   0.012000
     4  S   -0.139672   0.063646
     5  H   -1.454194   0.025904
     6  H   -1.469895   0.052373
 Sum of Mulliken charges =   0.00000   1.00000

 Dipole moment (field-independent basis, Debye):
    X=             -3.3367    Y=              2.6439    Z=             -0.2793  Tot=              4.2664
                          Isotropic Fermi Contact Couplings
        Atom                 a.u.       MegaHertz       Gauss      10(-4) cm-1
     1  Si(29)             0.54854    -487.50030    -173.95223    -162.61260
     2  C(13)             -0.00040      -0.45322      -0.16172      -0.15118
     3  N(14)              0.00186       0.60189       0.21477       0.20077
     4  S(33)              0.05337      18.33028       6.54070       6.11432
     5  H(1)               0.00805      35.99834      12.84510      12.00775
     6  H(1)               0.01611      72.00712      25.69393      24.01899
 --------------------------------------------------------
       Center         ----  Spin Dipole Couplings  ----

 1\1\GINC-SE252\SP\UHF\Aug-CC-pVDZ\C1H2N1S1Si1(2)\OHZDE\08-Apr-2025\0\\
 #t hf aug-cc-pvdz iop(5/13=1,5/36=2,99/5=2) pseudo=read geom=check gue
 ss=(read,tcheck) scf=(maxcycle=1)\\title\\0,2\Si,0,-1.545618,-0.539268
 ,-0.10128\C,0,1.397026,-0.112224,-0.006364\N,0,2.330535,-0.797613,-0.0
 28921\S,0,0.06522,0.942015,0.034572\H,0,-2.747267,0.296051,0.148033\H,
 0,-1.353505,-1.561901,0.957363\\Version=ES64L-G16RevC.01\State=2-A\HF=
 -780.6744424\S2=0.75671\S2-1=0.\S2A=0.750021\RMSD=1.361e-01\Dipole=-1.
 3127685,1.0402088,-0.1098926\Quadrupole=-2.6717791,2.9164851,-0.244706

 Normal termination of Gaussian 16 at Tue Apr  8 23:58:25 2025.
