 Gaussian 16, Revision C.01,

 ----------------------------------------------------------------------
 #t hf aug-cc-pvdz symm=none int=(grid=ultrafine) guess=(read,tcheck) s
 table=(opt,rrhf)
 ----------------------------------------------------------------------
 -----
 title
 -----
 Symbolic Z-matrix:
 Charge =  0 Multiplicity = 1

 SCF Done:  E(RHF) =  -760.522947105     A.U. after   18 cycles
 Normal termination of Gaussian 16 at Tue Apr  8 23:34:12 2025.
 Gaussian 16:  ES64L-G16RevC.01  3-Jul-2019

 ----------------------------------------------------------------------
 #t hf aug-cc-pvdz iop(5/13=1,5/36=2,99/5=2) pseudo=read geom=check gue
 ss=(read,tcheck) scf=(maxcycle=1)
 ----------------------------------------------------------------------
 -----
 title
 -----
 Structure from the checkpoint file:  "BDE49_nonexpt_1392_mol1.chk"
 Charge =  0 Multiplicity = 1

                         Standard orientation:
 ---------------------------------------------------------------------
 Center     Atomic      Atomic             Coordinates (Angstroms)
 Number     Number       Type             X           Y           Z
 ---------------------------------------------------------------------
      1          6           0        1.634096   -1.403164    0.037931
      2          6           0        2.913516   -0.861189    0.110907
      3          6           0        3.086633    0.522696    0.082947
      4          6           0        1.976803    1.350235   -0.003272
      5          6           0        0.674547    0.821648   -0.053308
      6          6           0        0.505228   -0.581379   -0.030988
      7         15           0       -1.146638   -1.346265   -0.253414
      8          6           0       -2.308812    0.090225    0.064294
      9          1           0        4.081540    0.950114    0.125603
     10          1           0        3.773857   -1.517295    0.177529
     11          1           0        2.105761    2.427361   -0.025049
     12          8           0       -3.484917   -0.137106    0.273063
     13          6           0       -0.451019    1.747443   -0.092045
     14          6           0       -1.766093    1.448172   -0.044019
     15          1           0       -0.178416    2.798888   -0.131788
     16          1           0       -2.508788    2.239919   -0.021527
     17          1           0        1.511932   -2.481622    0.033544
     18          1           0       -1.296375   -1.934668    1.023714
 ---------------------------------------------------------------------

 SCF Done:  E(RHF) =  -762.635771540     A.U. after    2 cycles

 The electronic state is 1-A.
 Alpha  occ. eigenvalues -- -105.19174 -21.05518 -11.53269 -11.50077 -11.47880
 Alpha  occ. eigenvalues --  -11.46004 -11.44941 -11.43709 -11.43065 -11.41933
 Alpha  occ. eigenvalues --  -11.38747  -2.77304  -1.71115  -1.53566  -1.49627
 Alpha  occ. eigenvalues --   -1.45557  -1.36528  -1.21464  -1.10975  -1.08514
 Alpha  occ. eigenvalues --   -0.94779  -0.88362  -0.83807  -0.80403  -0.70170
 Alpha  occ. eigenvalues --   -0.68600  -0.65746  -0.62244  -0.56953  -0.56270
 Alpha  occ. eigenvalues --   -0.54146  -0.52245  -0.50716  -0.49565  -0.46360
 Alpha  occ. eigenvalues --   -0.40573  -0.39331  -0.35974  -0.30527  -0.25133
 Alpha  occ. eigenvalues --   -0.17280  -0.03153
 Alpha virt. eigenvalues --    0.02918   0.04551   0.04780   0.05842   0.06103
 Alpha virt. eigenvalues --    0.06375   0.07280   0.07839   0.08547   0.09165
 Alpha virt. eigenvalues --    0.09707   0.10549   0.11608   0.12063   0.12511

 Mulliken charges:
               1
     1  C   -3.654093
     2  C   -2.235631
     3  C   -3.078057
     4  C   -2.189658
     5  C    2.562837
     6  C    3.082817
     7  P    2.639017
     8  C   -0.188773
     9  H    1.464128
    10  H    1.493368
    11  H    1.699867
    12  O   -3.374871
    13  C   -0.102341
    14  C   -2.704765
    15  H    1.548184
    16  H    1.514024
    17  H    1.857057
    18  H   -0.333110
 Sum of Mulliken charges =  -0.00000

 Dipole moment (field-independent basis, Debye):
    X=              1.9467    Y=             -2.1580    Z=             -2.6591  Tot=              3.9392

 Test job not archived.
 1\1\GINC-SE087\SP\RHF\Aug-CC-pVDZ\C9H7O1P1\OHZDE\08-Apr-2025\0\\#t hf
 aug-cc-pvdz iop(5/13=1,5/36=2,99/5=2) pseudo=read geom=check guess=(re
 ad,tcheck) scf=(maxcycle=1)\\title\\0,1\C,0,1.634096,-1.403164,0.03793
 1\C,0,2.913516,-0.861189,0.110907\C,0,3.086633,0.522696,0.082947\C,0,1
 .976803,1.350235,-0.003272\C,0,0.674547,0.821648,-0.053308\C,0,0.50522
 8,-0.581379,-0.030988\P,0,-1.146638,-1.346265,-0.253414\C,0,-2.308812,
 0.090225,0.064294\H,0,4.08154,0.950114,0.125603\H,0,3.773857,-1.517295
 ,0.177529\H,0,2.105761,2.427361,-0.025049\O,0,-3.484917,-0.137106,0.27

 Normal termination of Gaussian 16 at Tue Apr  8 23:34:24 2025.
