 Gaussian 16, Revision C.01,

 ----------------------------------------------------------------------
 #t hf aug-cc-pvdz symm=none int=(grid=ultrafine) guess=(read,tcheck) s
 table=(opt,rrhf)
 ----------------------------------------------------------------------
 -----
 title
 -----
 Symbolic Z-matrix:
 Charge =  0 Multiplicity = 1

 SCF Done:  E(RHF) =  -441.917786231     A.U. after   14 cycles
 Normal termination of Gaussian 16 at Wed Apr  9 00:40:25 2025.
 Gaussian 16:  ES64L-G16RevC.01  3-Jul-2019

 ----------------------------------------------------------------------
 #t hf aug-cc-pvdz iop(5/13=1,5/36=2,99/5=2) pseudo=read geom=check gue
 ss=(read,tcheck) scf=(maxcycle=1)
 ----------------------------------------------------------------------
 -----
 title
 -----
 Structure from the checkpoint file:  "BDE49_nonexpt_621_mol1.chk"
 Charge =  0 Multiplicity = 1

                         Standard orientation:
 ---------------------------------------------------------------------
 Center     Atomic      Atomic             Coordinates (Angstroms)
 Number     Number       Type             X           Y           Z
 ---------------------------------------------------------------------
      1          8           0       -0.562559    0.555845    0.463654
      2          5           0       -1.735714   -0.055363    0.008361
      3          8           0       -1.795408   -1.337428   -0.435447
      4          8           0       -2.824489    0.754743    0.048593
      5          8           0        0.517459   -0.405299    0.422851
      6          6           0        1.689254    0.182576   -0.022310
      7          6           0        1.814798    1.444120   -0.418838
      8          6           0        2.769812   -0.855382    0.041590
      9          1           0        3.713020   -0.428318   -0.297404
     10          1           0        2.528212   -1.714716   -0.591265
     11          1           0        2.894261   -1.220518    1.064808
     12          1           0        0.981666    2.129230   -0.416578
     13          1           0        2.783260    1.799290   -0.741512
     14          1           0       -3.612272    0.305089   -0.269671
     15          1           0       -0.932782   -1.764016   -0.390032
 ---------------------------------------------------------------------

 SCF Done:  E(RHF) =  -443.799175498     A.U. after    2 cycles

 The electronic state is 1-A.
 Alpha  occ. eigenvalues --  -21.12753 -21.08548 -21.06557 -21.06186 -11.46808
 Alpha  occ. eigenvalues --  -11.39867 -11.37407  -7.67092  -2.01796  -1.81263
 Alpha  occ. eigenvalues --   -1.67521  -1.49350  -1.15877  -1.01950  -0.79592
 Alpha  occ. eigenvalues --   -0.73905  -0.67865  -0.65573  -0.62379  -0.61257
 Alpha  occ. eigenvalues --   -0.58493  -0.54896  -0.53850  -0.50104  -0.48375
 Alpha  occ. eigenvalues --   -0.44024  -0.41518  -0.37368  -0.37056  -0.35335
 Alpha  occ. eigenvalues --   -0.28085
 Alpha virt. eigenvalues --    0.03066   0.04102   0.05276   0.05539   0.05608
 Alpha virt. eigenvalues --    0.06187   0.06432   0.07342   0.08762   0.09430
 Alpha virt. eigenvalues --    0.10416   0.11595   0.12288   0.13544   0.15007

 Mulliken charges:
               1
     1  O   -2.415022
     2  B    8.151269
     3  O   -3.937369
     4  O   -3.675851
     5  O   -3.442063
     6  C    4.254082
     7  C   -4.497473
     8  C   -3.723162
     9  H    1.257234
    10  H    1.229789
    11  H    1.264530
    12  H    1.661897
    13  H    1.443948
    14  H    0.989310
    15  H    1.438882
 Sum of Mulliken charges =  -0.00000

 Dipole moment (field-independent basis, Debye):
    X=              0.8663    Y=             -1.4175    Z=             -0.2684  Tot=              1.6828

 Test job not archived.
 1\1\GINC-SE329\SP\RHF\Aug-CC-pVDZ\C3H7B1O4\OHZDE\09-Apr-2025\0\\#t hf
 aug-cc-pvdz iop(5/13=1,5/36=2,99/5=2) pseudo=read geom=check guess=(re
 ad,tcheck) scf=(maxcycle=1)\\title\\0,1\O,0,-0.562559,0.555845,0.46365
 4\B,0,-1.735714,-0.055363,0.008361\O,0,-1.795408,-1.337428,-0.435447\O
 ,0,-2.824489,0.754743,0.048593\O,0,0.517459,-0.405299,0.422851\C,0,1.6
 89254,0.182576,-0.02231\C,0,1.814798,1.44412,-0.418838\C,0,2.769812,-0
 .855382,0.04159\H,0,3.71302,-0.428318,-0.297404\H,0,2.528212,-1.714716
 ,-0.591265\H,0,2.894261,-1.220518,1.064808\H,0,0.981666,2.12923,-0.416

 Normal termination of Gaussian 16 at Wed Apr  9 00:40:30 2025.
