 Gaussian 16, Revision C.01,

 ----------------------------------------------------------------------
 #t hf aug-cc-pvdz symm=none int=(grid=ultrafine) guess=(read,tcheck) s
 table=(opt,rrhf)
 ----------------------------------------------------------------------
 -----
 title
 -----
 Symbolic Z-matrix:
 Charge =  0 Multiplicity = 1

 SCF Done:  E(RHF) =  -464.448681214     A.U. after   12 cycles
 Normal termination of Gaussian 16 at Wed Apr  9 00:41:58 2025.
 Gaussian 16:  ES64L-G16RevC.01  3-Jul-2019

 ----------------------------------------------------------------------
 #t hf aug-cc-pvdz iop(5/13=1,5/36=2,99/5=2) pseudo=read geom=check gue
 ss=(read,tcheck) scf=(maxcycle=1)
 ----------------------------------------------------------------------
 -----
 title
 -----
 Structure from the checkpoint file:  "BDE49_nonexpt_608_mol1.chk"
 Charge =  0 Multiplicity = 1

                         Standard orientation:
 ---------------------------------------------------------------------
 Center     Atomic      Atomic             Coordinates (Angstroms)
 Number     Number       Type             X           Y           Z
 ---------------------------------------------------------------------
      1          6           0        1.988878   -1.270014    0.446708
      2          6           0        0.996575   -1.264189   -0.726193
      3          6           0        2.853530   -0.000267    0.458312
      4          1           0        2.622683   -2.160934    0.395785
      5          1           0        1.440150   -1.346908    1.395003
      6          6           0        1.988641    1.269336    0.448997
      7          1           0        3.499012    0.000593   -0.429734
      8          1           0        3.520044   -0.000990    1.327036
      9          6           0        0.996364    1.265447   -0.723929
     10          1           0        2.622283    2.160464    0.399704
     11          1           0        1.439863    1.344403    1.397407
     12          6           0        0.112298    0.000570   -0.744600
     13          1           0        1.558634    1.311533   -1.665095
     14          1           0        0.354850    2.150649   -0.690473
     15          1           0        0.355218   -2.149563   -0.694315
     16          1           0        1.558845   -1.308493   -1.667442
     17          5           0       -2.271284   -0.000200    0.184349
     18          8           0       -3.163106   -0.001305    1.243337
     19          8           0       -2.802666    0.001276   -1.085523
     20          1           0       -3.762907    0.001246   -1.054451
     21          1           0       -2.748707   -0.002374    2.108550
     22          7           0       -0.864757   -0.000497    0.347008
     23          1           0       -0.474203    0.001348   -1.664488
     24          1           0       -0.467589   -0.001564    1.273424
 ---------------------------------------------------------------------

 SCF Done:  E(RHF) =  -466.617881839     A.U. after    2 cycles

 The electronic state is 1-A.
 Alpha  occ. eigenvalues --  -21.04904 -21.03820 -15.69060 -11.44932 -11.43245
 Alpha  occ. eigenvalues --  -11.42564 -11.37947 -11.37390 -11.33780  -7.63328
 Alpha  occ. eigenvalues --   -1.81152  -1.64320  -1.38546  -1.24744  -1.09963
 Alpha  occ. eigenvalues --   -1.06964  -0.88094  -0.87702  -0.79466  -0.76115
 Alpha  occ. eigenvalues --   -0.68129  -0.64768  -0.61758  -0.61415  -0.60679
 Alpha  occ. eigenvalues --   -0.56286  -0.52351  -0.52124  -0.51949  -0.50433
 Alpha  occ. eigenvalues --   -0.47176  -0.46552  -0.44543  -0.42348  -0.39740
 Alpha  occ. eigenvalues --   -0.38285  -0.36991  -0.35401  -0.31353
 Alpha virt. eigenvalues --    0.03524   0.04341   0.04667   0.05073   0.05414
 Alpha virt. eigenvalues --    0.05612   0.05804   0.06064   0.06115   0.08112
 Alpha virt. eigenvalues --    0.08254   0.08596   0.08752   0.09027   0.09524

 Mulliken charges:
               1
     1  C   -3.395125
     2  C   -3.462783
     3  C   -2.256884
     4  H    1.290959
     5  H    1.516840
     6  C   -3.394955
     7  H    1.438116
     8  H    1.334104
     9  C   -3.462467
    10  H    1.290969
    11  H    1.516769
    12  C    2.744066
    13  H    1.283827
    14  H    1.444934
    15  H    1.444874
    16  H    1.283824
    17  B    7.547934
    18  O   -4.792470
    19  O   -4.152782
    20  H    1.121894
    21  H    1.254658
    22  N   -4.714756
    23  H    2.084053
    24  H    1.034401
 Sum of Mulliken charges =   0.00000

 Dipole moment (field-independent basis, Debye):
    X=              0.7527    Y=             -0.0011    Z=              0.7329  Tot=              1.0506

 Test job not archived.
 1\1\GINC-SE174\SP\RHF\Aug-CC-pVDZ\C6H14B1N1O2\OHZDE\09-Apr-2025\0\\#t
 hf aug-cc-pvdz iop(5/13=1,5/36=2,99/5=2) pseudo=read geom=check guess=
 (read,tcheck) scf=(maxcycle=1)\\title\\0,1\C,0,-1.988878,1.270014,0.44
 6708\C,0,-0.996575,1.264189,-0.726193\C,0,-2.85353,0.000267,0.458312\H
 ,0,-2.622683,2.160934,0.395785\H,0,-1.44015,1.346908,1.395003\C,0,-1.9
 88641,-1.269336,0.448997\H,0,-3.499012,-0.000593,-0.429734\H,0,-3.5200
 44,0.00099,1.327036\C,0,-0.996364,-1.265447,-0.723929\H,0,-2.622283,-2
 .160464,0.399704\H,0,-1.439863,-1.344403,1.397407\C,0,-0.112298,-0.000

 Normal termination of Gaussian 16 at Wed Apr  9 00:42:13 2025.
