 Gaussian 16, Revision C.01,

 ----------------------------------------------------------------------
 #t hf aug-cc-pvdz symm=none int=(grid=ultrafine) guess=(read,tcheck) s
 table=(opt,rrhf)
 ----------------------------------------------------------------------
 -----
 title
 -----
 Symbolic Z-matrix:
 Charge =  0 Multiplicity = 1

 SCF Done:  E(RHF) =  -1448.69112154     A.U. after   15 cycles
 Normal termination of Gaussian 16 at Wed Apr  9 00:52:32 2025.
 Gaussian 16:  ES64L-G16RevC.01  3-Jul-2019

 ----------------------------------------------------------------------
 #t hf aug-cc-pvdz iop(5/13=1,5/36=2,99/5=2) pseudo=read geom=check gue
 ss=(read,tcheck) scf=(maxcycle=1)
 ----------------------------------------------------------------------
 -----
 title
 -----
 Structure from the checkpoint file:  "BDE49_nonexpt_909_mol1.chk"
 Charge =  0 Multiplicity = 1

                         Standard orientation:
 ---------------------------------------------------------------------
 Center     Atomic      Atomic             Coordinates (Angstroms)
 Number     Number       Type             X           Y           Z
 ---------------------------------------------------------------------
      1          6           0       -3.644745    0.381354    0.000009
      2          6           0       -2.995025    0.127536    1.206154
      3          6           0       -1.697373   -0.378272    1.210425
      4          6           0       -2.995044    0.127468   -1.206131
      5          6           0       -1.697392   -0.378339   -1.210395
      6          6           0       -1.045069   -0.624321    0.000017
      7          1           0       -4.655189    0.773753    0.000006
      8          1           0       -3.497329    0.321423    2.147003
      9          1           0       -1.189434   -0.580353    2.145427
     10          1           0       -3.497363    0.321303   -2.146984
     11          1           0       -1.189468   -0.580473   -2.145393
     12         16           0        0.604143   -1.348511    0.000024
     13          5           0        1.735611    0.070806   -0.000028
     14         16           0        3.531506   -0.239264    0.000011
     15         16           0        1.114189    1.778718   -0.000058
     16          1           0        3.486499   -1.584149    0.000042
     17          1           0        2.314714    2.386810   -0.000055
 ---------------------------------------------------------------------

 SCF Done:  E(RHF) =  -1450.58746383     A.U. after    2 cycles

 The electronic state is 1-A.
 Alpha  occ. eigenvalues --  -75.69833 -75.69721 -75.69326 -13.18595 -13.17200
 Alpha  occ. eigenvalues --  -13.17000 -13.13509 -13.11094 -13.08190 -13.07625
 Alpha  occ. eigenvalues --  -13.05078 -13.03530 -11.52773 -11.45045 -11.44058
 Alpha  occ. eigenvalues --  -11.42284 -11.41472 -11.37504  -8.03888  -8.03739
 Alpha  occ. eigenvalues --   -8.03214  -7.68036  -1.36925  -1.24130  -1.14929
 Alpha  occ. eigenvalues --   -1.10108  -1.10041  -1.04141  -0.87478  -0.85026
 Alpha  occ. eigenvalues --   -0.72270  -0.67161  -0.63903  -0.59263  -0.58326
 Alpha  occ. eigenvalues --   -0.56099  -0.55665  -0.51616  -0.47455  -0.46195
 Alpha  occ. eigenvalues --   -0.39910  -0.38678  -0.37987  -0.33942  -0.33392
 Alpha  occ. eigenvalues --   -0.30566  -0.25323  -0.24847
 Alpha virt. eigenvalues --    0.02205   0.02583   0.03052   0.03141   0.05388
 Alpha virt. eigenvalues --    0.05627   0.06433   0.08529   0.08829   0.09020
 Alpha virt. eigenvalues --    0.09632   0.10380   0.10686   0.11465   0.12229

 Mulliken charges:
               1
     1  C   -2.160028
     2  C   -1.153110
     3  C   -3.454025
     4  C   -1.153049
     5  C   -3.454098
     6  C    3.017857
     7  H    1.529850
     8  H    1.543499
     9  H    1.836407
    10  H    1.543499
    11  H    1.836405
    12  S   -1.129865
    13  B    4.454297
    14  S   -2.681243
    15  S   -2.477065
    16  H    1.026381
    17  H    0.874286
 Sum of Mulliken charges =   0.00000

 Dipole moment (field-independent basis, Debye):
    X=             -1.8402    Y=              0.7664    Z=              0.0001  Tot=              1.9934

 Test job not archived.
 1\1\GINC-SE141\SP\RHF\Aug-CC-pVDZ\C6H7B1S3\OHZDE\09-Apr-2025\0\\#t hf
 aug-cc-pvdz iop(5/13=1,5/36=2,99/5=2) pseudo=read geom=check guess=(re
 ad,tcheck) scf=(maxcycle=1)\\title\\0,1\C,0,-3.644745,0.381354,0.00000
 9\C,0,-2.995025,0.127536,1.206154\C,0,-1.697373,-0.378272,1.210425\C,0
 ,-2.995044,0.127468,-1.206131\C,0,-1.697392,-0.378339,-1.210395\C,0,-1
 .045069,-0.624321,0.000017\H,0,-4.655189,0.773753,0.000006\H,0,-3.4973
 29,0.321423,2.147003\H,0,-1.189434,-0.580353,2.145427\H,0,-3.497363,0.
 321303,-2.146984\H,0,-1.189468,-0.580473,-2.145393\S,0,0.604143,-1.348

 Normal termination of Gaussian 16 at Wed Apr  9 00:52:43 2025.
