 Gaussian 16, Revision C.01,

 ----------------------------------------------------------------------
 #t hf aug-cc-pvdz symm=none int=(grid=ultrafine) guess=(read,tcheck) s
 table=(opt,rrhf)
 ----------------------------------------------------------------------
 -----
 title
 -----
 Symbolic Z-matrix:
 Charge =  0 Multiplicity = 1

 SCF Done:  E(RHF) =  -930.590781941     A.U. after   17 cycles
 Normal termination of Gaussian 16 at Wed Apr  9 00:25:33 2025.
 Gaussian 16:  ES64L-G16RevC.01  3-Jul-2019

 ----------------------------------------------------------------------
 #t hf aug-cc-pvdz iop(5/13=1,5/36=2,99/5=2) pseudo=read geom=check gue
 ss=(read,tcheck) scf=(maxcycle=1)
 ----------------------------------------------------------------------
 -----
 title
 -----
 Structure from the checkpoint file:  "BDE49_nonexpt_2698_mol1.chk"
 Charge =  0 Multiplicity = 1

                         Standard orientation:
 ---------------------------------------------------------------------
 Center     Atomic      Atomic             Coordinates (Angstroms)
 Number     Number       Type             X           Y           Z
 ---------------------------------------------------------------------
      1          9           0       -2.943405    0.572146   -0.000057
      2         16           0       -1.777848   -0.676507    0.000001
      3          6           0       -0.391314    0.389026    0.000001
      4          6           0        0.898724   -0.165387   -0.000005
      5          6           0        2.060907    0.610378    0.000005
      6          6           0        1.934839    1.984920    0.000018
      7          6           0       -0.494874    1.790834    0.000013
      8          1           0       -1.474824    2.243924    0.000018
      9          6           0        0.654170    2.563324    0.000019
     10          1           0        0.557302    3.642991    0.000024
     11          1           0        2.816927    2.612410    0.000027
     12          7           0        0.976306   -1.590385   -0.000027
     13          8           0        2.041274   -2.180218    0.000023
     14          8           0       -0.140324   -2.174936    0.000017
     15          1           0        3.020340    0.110833   -0.000000
 ---------------------------------------------------------------------

 SCF Done:  E(RHF) =  -933.097660821     A.U. after    2 cycles

 The electronic state is 1-A.
 Alpha  occ. eigenvalues --  -75.78563 -29.24885 -21.12727 -21.11375 -16.02190
 Alpha  occ. eigenvalues --  -13.26944 -13.22989 -13.09004 -11.56364 -11.50248
 Alpha  occ. eigenvalues --  -11.49251 -11.47118 -11.45294 -11.41637  -8.12248
 Alpha  occ. eigenvalues --   -2.02258  -1.72328  -1.41324  -1.24585  -1.21585
 Alpha  occ. eigenvalues --   -1.11219  -1.01209  -0.91976  -0.86115  -0.77364
 Alpha  occ. eigenvalues --   -0.71240  -0.70565  -0.68707  -0.66821  -0.63711
 Alpha  occ. eigenvalues --   -0.61008  -0.55442  -0.55146  -0.51230  -0.46417
 Alpha  occ. eigenvalues --   -0.44814  -0.40342  -0.37802  -0.36124  -0.35484
 Alpha  occ. eigenvalues --   -0.34547  -0.30500  -0.26302  -0.18744
 Alpha virt. eigenvalues --    0.02542   0.04530   0.05066   0.06049   0.06716
 Alpha virt. eigenvalues --    0.08042   0.08351   0.08455   0.11790   0.12295
 Alpha virt. eigenvalues --    0.12412   0.12582   0.13193   0.13236   0.13278

 Mulliken charges:
               1
     1  F   -0.324704
     2  S    1.085065
     3  C    0.123456
     4  C    2.557730
     5  C   -3.682616
     6  C   -1.095815
     7  C   -0.605982
     8  H    1.689231
     9  C   -1.527458
    10  H    1.498509
    11  H    1.513573
    12  N    2.676981
    13  O   -3.158590
    14  O   -2.604688
    15  H    1.855307
 Sum of Mulliken charges =  -0.00000

 Dipole moment (field-independent basis, Debye):
    X=             -1.9305    Y=              2.4949    Z=             -0.0000  Tot=              3.1546

 Test job not archived.
 1\1\GINC-SE329\SP\RHF\Aug-CC-pVDZ\C6H4F1N1O2S1\OHZDE\09-Apr-2025\0\\#t
  hf aug-cc-pvdz iop(5/13=1,5/36=2,99/5=2) pseudo=read geom=check guess
 =(read,tcheck) scf=(maxcycle=1)\\title\\0,1\F,0,2.943405,0.572144,0.00
 0057\S,0,1.777847,-0.676509,-0.000001\C,0,0.391314,0.389026,-0.000001\
 C,0,-0.898724,-0.165386,0.000005\C,0,-2.060906,0.61038,-0.000005\C,0,-
 1.934837,1.984921,-0.000018\C,0,0.494875,1.790833,-0.000013\H,0,1.4748
 26,2.243923,-0.000018\C,0,-0.654168,2.563324,-0.000019\H,0,-0.557299,3
 .642991,-0.000024\H,0,-2.816925,2.612412,-0.000027\N,0,-0.976307,-1.59

 Normal termination of Gaussian 16 at Wed Apr  9 00:25:41 2025.
