 Gaussian 16, Revision C.01,

 ----------------------------------------------------------------------
 #t hf aug-cc-pvdz symm=none int=(grid=ultrafine) guess=(read,tcheck) s
 table=(opt,rrhf)
 ----------------------------------------------------------------------
 -----
 title
 -----
 Symbolic Z-matrix:
 Charge =  0 Multiplicity = 1

 SCF Done:  E(RHF) =  -249.535896551     A.U. after   15 cycles
 Normal termination of Gaussian 16 at Tue Apr  8 22:56:33 2025.
 Gaussian 16:  ES64L-G16RevC.01  3-Jul-2019

 ----------------------------------------------------------------------
 #t hf aug-cc-pvdz iop(5/13=1,5/36=2,99/5=2) pseudo=read geom=check gue
 ss=(read,tcheck) scf=(maxcycle=1)
 ----------------------------------------------------------------------
 -----
 title
 -----
 Structure from the checkpoint file:  "BDE49_expt_1839_mol1.chk"
 Charge =  0 Multiplicity = 1

                         Standard orientation:
 ---------------------------------------------------------------------
 Center     Atomic      Atomic             Coordinates (Angstroms)
 Number     Number       Type             X           Y           Z
 ---------------------------------------------------------------------
      1          8           0        1.109570   -0.239403   -0.124288
      2          8           0        0.043588    0.596720    0.039304
      3          1           0        1.270541   -0.581362    0.772514
      4          9           0       -1.166201   -0.253019   -0.010294
 ---------------------------------------------------------------------

 SCF Done:  E(RHF) =  -250.473025392     A.U. after    2 cycles

 The electronic state is 1-A.
 Alpha  occ. eigenvalues --  -29.30356 -21.22475 -21.18108  -2.06033  -1.45160
 Alpha  occ. eigenvalues --   -0.74575  -0.67619  -0.58003  -0.47127  -0.43191
 Alpha  occ. eigenvalues --   -0.32430  -0.26284  -0.23688
 Alpha virt. eigenvalues --    0.04694   0.12612   0.16683   0.18566   0.20782
 Alpha virt. eigenvalues --    0.21856   0.23751   0.23962   0.26700   0.30239
 Alpha virt. eigenvalues --    0.32474   0.33571   0.37212   0.38816   0.41525

 Mulliken charges:
               1
     1  O   -0.836209
     2  O   -0.080594
     3  H    0.896759
     4  F    0.020043
 Sum of Mulliken charges =  -0.00000

 Dipole moment (field-independent basis, Debye):
    X=             -0.4141    Y=             -0.9879    Z=              0.7164  Tot=              1.2887

 Test job not archived.
 1\1\GINC-SE331\SP\RHF\Aug-CC-pVDZ\F1H1O2\OHZDE\08-Apr-2025\0\\#t hf au
 g-cc-pvdz iop(5/13=1,5/36=2,99/5=2) pseudo=read geom=check guess=(read
 ,tcheck) scf=(maxcycle=1)\\title\\0,1\O,0,1.10957,-0.239403,-0.124288\
 O,0,0.043588,0.59672,0.039304\H,0,1.270541,-0.581362,0.772514\F,0,-1.1
 66201,-0.253019,-0.010294\\Version=ES64L-G16RevC.01\State=1-A\HF=-250.
 4730254\RMSD=5.020e-02\Dipole=-0.1629175,-0.3886796,0.2818476\Quadrupo
 le=0.1310913,-0.3646908,0.2335996,-0.6687032,1.103357,-0.6827636\PG=C0
 1 [X(F1H1O2)]\\@

 Normal termination of Gaussian 16 at Tue Apr  8 22:56:35 2025.
