 Gaussian 16, Revision C.01,

 ----------------------------------------------------------------------
 #t hf aug-cc-pvdz symm=none int=(grid=ultrafine) guess=(read,tcheck) s
 table=(opt,rrhf)
 ----------------------------------------------------------------------
 -----
 title
 -----
 Symbolic Z-matrix:
 Charge =  0 Multiplicity = 1

 SCF Done:  E(RHF) =  -159.594665711     A.U. after   12 cycles
 Normal termination of Gaussian 16 at Wed Apr  9 00:38:53 2025.
 Gaussian 16:  ES64L-G16RevC.01  3-Jul-2019

 ----------------------------------------------------------------------
 #t hf aug-cc-pvdz iop(5/13=1,5/36=2,99/5=2) pseudo=read geom=check gue
 ss=(read,tcheck) scf=(maxcycle=1)
 ----------------------------------------------------------------------
 -----
 title
 -----
 Structure from the checkpoint file:  "BDE49_nonexpt_583_mol1.chk"
 Charge =  0 Multiplicity = 1

                         Standard orientation:
 ---------------------------------------------------------------------
 Center     Atomic      Atomic             Coordinates (Angstroms)
 Number     Number       Type             X           Y           Z
 ---------------------------------------------------------------------
      1          6           0        0.598495   -0.485416    0.323613
      2          5           0       -0.700819    0.410327    0.292793
      3          7           0       -1.913177   -0.052646   -0.216422
      4          6           0        1.840668    0.200739   -0.279806
      5          1           0        0.434751   -1.453556   -0.168395
      6          1           0        0.811062   -0.720238    1.377096
      7          1           0        1.698857    0.420129   -1.342535
      8          1           0        2.733458   -0.425187   -0.191195
      9          1           0        2.049538    1.149964    0.222015
     10          1           0       -0.679322    1.530585    0.719705
     11          1           0       -2.032432   -0.978832   -0.599627
     12          1           0       -2.754558    0.502089   -0.228918
 ---------------------------------------------------------------------

 SCF Done:  E(RHF) =  -160.400586265     A.U. after    2 cycles

 The electronic state is 1-A.
 Alpha  occ. eigenvalues --  -15.72113 -11.37717 -11.32133  -7.57912  -1.32522
 Alpha  occ. eigenvalues --   -1.13870  -0.90152  -0.75769  -0.66972  -0.60098
 Alpha  occ. eigenvalues --   -0.56936  -0.49993  -0.47958  -0.44904  -0.40060
 Alpha  occ. eigenvalues --   -0.38961
 Alpha virt. eigenvalues --    0.03539   0.03798   0.04037   0.04557   0.07183
 Alpha virt. eigenvalues --    0.08000   0.08055   0.08390   0.09087   0.09462
 Alpha virt. eigenvalues --    0.11519   0.12694   0.13735   0.14750   0.15569

 Mulliken charges:
               1
     1  C   -4.852740
     2  B    7.290014
     3  N   -2.857738
     4  C   -3.541434
     5  H    1.322123
     6  H    1.407906
     7  H    1.219033
     8  H    1.158030
     9  H    1.318355
    10  H   -3.983702
    11  H    0.709538
    12  H    0.810616
 Sum of Mulliken charges =  -0.00000

 Dipole moment (field-independent basis, Debye):
    X=             -1.1230    Y=             -0.7491    Z=             -0.4900  Tot=              1.4361

 Test job not archived.
 1\1\GINC-SE103\SP\RHF\Aug-CC-pVDZ\C2H8B1N1\OHZDE\09-Apr-2025\0\\#t hf
 aug-cc-pvdz iop(5/13=1,5/36=2,99/5=2) pseudo=read geom=check guess=(re
 ad,tcheck) scf=(maxcycle=1)\\title\\0,1\C,0,0.598495,-0.485416,0.32361
 3\B,0,-0.700819,0.410327,0.292793\N,0,-1.913177,-0.052646,-0.216422\C,
 0,1.840668,0.200739,-0.279806\H,0,0.434751,-1.453556,-0.168395\H,0,0.8
 11062,-0.720238,1.377096\H,0,1.698857,0.420129,-1.342535\H,0,2.733458,
 -0.425187,-0.191195\H,0,2.049538,1.149964,0.222015\H,0,-0.679322,1.530
 585,0.719705\H,0,-2.032432,-0.978832,-0.599627\H,0,-2.754558,0.502089,

 Normal termination of Gaussian 16 at Wed Apr  9 00:38:56 2025.
