 Gaussian 16, Revision C.01,

 ----------------------------------------------------------------------
 #t hf aug-cc-pvdz symm=none int=(grid=ultrafine) guess=(read,tcheck) s
 table=opt
 ----------------------------------------------------------------------
 -----
 title
 -----
 Symbolic Z-matrix:
 Charge =  0 Multiplicity = 2

 SCF Done:  E(UHF) =  -820.918680799     A.U. after   15 cycles
 Normal termination of Gaussian 16 at Wed Apr  9 00:48:56 2025.
 Gaussian 16:  ES64L-G16RevC.01  3-Jul-2019

 ----------------------------------------------------------------------
 #t hf aug-cc-pvdz iop(5/13=1,5/36=2,99/5=2) pseudo=read geom=check gue
 ss=(read,tcheck) scf=(maxcycle=1)
 ----------------------------------------------------------------------
 -----
 title
 -----
 Structure from the checkpoint file:  "BDE49_nonexpt_862_mol3.chk"
 Charge =  0 Multiplicity = 2

                         Standard orientation:
 ---------------------------------------------------------------------
 Center     Atomic      Atomic             Coordinates (Angstroms)
 Number     Number       Type             X           Y           Z
 ---------------------------------------------------------------------
      1          5           0        0.000000   -0.000000    0.585479
      2         16           0        0.000000    1.659264   -0.007080
      3         16           0       -0.000000   -1.659264   -0.007080
      4          1           0        0.000008   -1.450711   -1.350422
      5          1           0       -0.000008    1.450711   -1.350422
 ---------------------------------------------------------------------

 SCF Done:  E(UHF) =  -821.458762730     A.U. after    2 cycles

 The electronic state is 2-A.
 Alpha  occ. eigenvalues --  -75.71002 -75.70980 -13.16672 -13.16424 -13.11073
 Alpha  occ. eigenvalues --  -13.09953 -13.05102 -13.03821  -8.05059  -8.04746
 Alpha  occ. eigenvalues --   -7.67496  -1.20899  -1.11837  -0.68707  -0.55215
 Alpha  occ. eigenvalues --   -0.49384  -0.36163  -0.33876  -0.32661  -0.26093
 Alpha virt. eigenvalues --    0.01899   0.02796   0.04129   0.04405   0.08462
 Alpha virt. eigenvalues --    0.09944   0.10146   0.11556   0.13591   0.14684
 Alpha virt. eigenvalues --    0.16019   0.16352   0.17063   0.19088   0.20167

  Beta  occ. eigenvalues --  -75.71053 -75.71030 -13.16928 -13.16669 -13.11189
  Beta  occ. eigenvalues --  -13.10074 -13.05236 -13.03965  -8.05079  -8.04770
  Beta  occ. eigenvalues --   -7.65546  -1.19362  -1.11710  -0.61630  -0.53113
  Beta  occ. eigenvalues --   -0.47979  -0.35017  -0.33065  -0.26415
  Beta virt. eigenvalues --    0.00309   0.02977   0.03025   0.04200   0.08126
  Beta virt. eigenvalues --    0.08486   0.10000   0.11867   0.12806   0.14029
  Beta virt. eigenvalues --    0.14759   0.16366   0.16538   0.17354   0.19263

 Mulliken charges and spin densities:
               1          2
     1  B    1.600981   1.205119
     2  S   -1.742384  -0.186960
     3  S   -1.742384  -0.186960
     4  H    0.941893   0.084400
     5  H    0.941893   0.084400
 Sum of Mulliken charges =  -0.00000   1.00000

 Dipole moment (field-independent basis, Debye):
    X=              0.0000    Y=             -0.0000    Z=              0.1899  Tot=              0.1899
                          Isotropic Fermi Contact Couplings
        Atom                 a.u.       MegaHertz       Gauss      10(-4) cm-1
     1  B(11)              0.15557     223.14167      79.62250      74.43205
     2  S(33)              0.34751     119.35917      42.59032      39.81393
     3  S(33)              0.34751     119.35917      42.59032      39.81393
     4  H(1)               0.02296     102.63343      36.62216      34.23483
     5  H(1)               0.02296     102.63343      36.62216      34.23483
 --------------------------------------------------------
       Center         ----  Spin Dipole Couplings  ----
                      3XX-RR        3YY-RR        3ZZ-RR

 Normal termination of Gaussian 16 at Wed Apr  9 00:48:59 2025.
