 Gaussian 16, Revision C.01,

 ----------------------------------------------------------------------
 #t hf aug-cc-pvdz symm=none int=(grid=ultrafine) guess=(read,tcheck) s
 table=(opt,rrhf)
 ----------------------------------------------------------------------
 -----
 title
 -----
 Symbolic Z-matrix:
 Charge =  0 Multiplicity = 1

 SCF Done:  E(RHF) =  -480.152161320     A.U. after   12 cycles
 Normal termination of Gaussian 16 at Wed Apr  9 00:08:00 2025.
 Gaussian 16:  ES64L-G16RevC.01  3-Jul-2019

 ----------------------------------------------------------------------
 #t hf aug-cc-pvdz iop(5/13=1,5/36=2,99/5=2) pseudo=read geom=check gue
 ss=(read,tcheck) scf=(maxcycle=1)
 ----------------------------------------------------------------------
 -----
 title
 -----
 Structure from the checkpoint file:  "BDE49_nonexpt_2273_mol1.chk"
 Charge =  0 Multiplicity = 1

                         Standard orientation:
 ---------------------------------------------------------------------
 Center     Atomic      Atomic             Coordinates (Angstroms)
 Number     Number       Type             X           Y           Z
 ---------------------------------------------------------------------
      1         14           0        0.075729   -0.003367    0.344480
      2          8           0        0.621499    1.419864   -0.293296
      3          1           0        1.515228    1.696720   -0.077596
      4          8           0        0.969303   -1.297435   -0.160941
      5          1           0        0.945770   -1.532279   -1.091883
      6          6           0       -1.708542   -0.112513   -0.167961
      7          1           0       -1.810781   -0.101044   -1.257417
      8          1           0       -2.270668    0.739058    0.225549
      9          1           0       -2.169220   -1.029248    0.210040
     10          1           0        0.254304   -0.030426    1.810238
 ---------------------------------------------------------------------

 SCF Done:  E(RHF) =  -481.146424268     A.U. after    2 cycles

 The electronic state is 1-A.
 Alpha  occ. eigenvalues --  -76.23258 -21.07124 -21.07094 -11.34540  -5.57631
 Alpha  occ. eigenvalues --   -2.25271  -2.22401  -2.19626  -1.67753  -1.63378
 Alpha  occ. eigenvalues --   -1.03652  -0.72327  -0.61859  -0.56440  -0.55558
 Alpha  occ. eigenvalues --   -0.52436  -0.46766  -0.45789  -0.38751  -0.37347
 Alpha  occ. eigenvalues --   -0.35016
 Alpha virt. eigenvalues --    0.03332   0.05513   0.05934   0.06415   0.06900
 Alpha virt. eigenvalues --    0.07350   0.08176   0.09105   0.09879   0.12896
 Alpha virt. eigenvalues --    0.15587   0.16368   0.17504   0.18591   0.20342

 Mulliken charges:
               1
     1  Si   6.542520
     2  O   -2.744508
     3  H    1.127715
     4  O   -2.766417
     5  H    1.021210
     6  C   -5.039533
     7  H    1.256431
     8  H    1.269521
     9  H    1.236796
    10  H   -1.903735
 Sum of Mulliken charges =   0.00000

 Dipole moment (field-independent basis, Debye):
    X=              0.0858    Y=              0.0380    Z=             -0.8545  Tot=              0.8597

 Test job not archived.
 1\1\GINC-SE247\SP\RHF\Aug-CC-pVDZ\C1H6O2Si1\OHZDE\09-Apr-2025\0\\#t hf
  aug-cc-pvdz iop(5/13=1,5/36=2,99/5=2) pseudo=read geom=check guess=(r
 ead,tcheck) scf=(maxcycle=1)\\title\\0,1\Si,0,0.075729,-0.003367,0.344
 48\O,0,0.621498,1.419865,-0.293296\H,0,1.515227,1.696721,-0.077596\O,0
 ,0.969304,-1.297434,-0.160941\H,0,0.945771,-1.532278,-1.091883\C,0,-1.
 708542,-0.112514,-0.167961\H,0,-1.810781,-0.101045,-1.257417\H,0,-2.27
 0668,0.739056,0.225549\H,0,-2.169219,-1.02925,0.21004\H,0,0.254304,-0.
 030426,1.810238\\Version=ES64L-G16RevC.01\State=1-A\HF=-481.1464243\RM

 Normal termination of Gaussian 16 at Wed Apr  9 00:08:02 2025.
