 Gaussian 16, Revision C.01,

 ----------------------------------------------------------------------
 #t hf aug-cc-pvdz symm=none int=(grid=ultrafine) guess=(read,tcheck) s
 table=(opt,rrhf)
 ----------------------------------------------------------------------
 -----
 title
 -----
 Symbolic Z-matrix:
 Charge =  0 Multiplicity = 1

 SCF Done:  E(RHF) =  -1671.00974009     A.U. after   16 cycles
 Normal termination of Gaussian 16 at Tue Apr  8 23:45:01 2025.
 Gaussian 16:  ES64L-G16RevC.01  3-Jul-2019

 ----------------------------------------------------------------------
 #t hf aug-cc-pvdz iop(5/13=1,5/36=2,99/5=2) pseudo=read geom=check gue
 ss=(read,tcheck) scf=(maxcycle=1)
 ----------------------------------------------------------------------
 -----
 title
 -----
 Structure from the checkpoint file:  "BDE49_nonexpt_1683_mol1.chk"
 Charge =  0 Multiplicity = 1

                         Standard orientation:
 ---------------------------------------------------------------------
 Center     Atomic      Atomic             Coordinates (Angstroms)
 Number     Number       Type             X           Y           Z
 ---------------------------------------------------------------------
      1          7           0       -1.955241   -0.852038   -0.636988
      2         15           0       -1.963521   -0.309823    1.153414
      3         14           0       -0.825512    1.658846    0.848146
      4         15           0        1.963563   -0.309846   -1.153412
      5          7           0        1.955194   -0.852121    0.636967
      6          8           0        2.098617    0.028423    1.481301
      7          8           0        1.868306   -2.042298    0.870480
      8          8           0       -2.098673    0.028534   -1.481288
      9          8           0       -1.868460   -2.042214   -0.870533
     10         14           0        0.825595    1.658851   -0.848115
     11          1           0       -0.866482   -1.130522    1.498439
     12          1           0        0.866516   -1.130504   -1.498513
     13          1           0       -0.246211    1.951221    2.179048
     14          1           0       -1.852618    2.677697    0.534432
     15          1           0        1.852706    2.677689   -0.534386
     16          1           0        0.246302    1.951242   -2.179017
 ---------------------------------------------------------------------

 SCF Done:  E(RHF) =  -1673.37675019     A.U. after    2 cycles

 The electronic state is 1-A.
 Alpha  occ. eigenvalues -- -105.25340-105.25026 -76.26308 -76.26294 -21.11476
 Alpha  occ. eigenvalues --  -21.11466 -21.10795 -21.10792 -15.99616 -15.99607
 Alpha  occ. eigenvalues --   -5.59723  -5.59722  -2.82145  -2.82115  -2.21825
 Alpha  occ. eigenvalues --   -2.21624  -2.21601  -2.21598  -2.21332  -2.20245
 Alpha  occ. eigenvalues --   -2.00093  -2.00034  -1.70594  -1.70587  -1.52143
 Alpha  occ. eigenvalues --   -1.51969  -1.51625  -1.51613  -1.49247  -1.48989
 Alpha  occ. eigenvalues --   -0.96502  -0.96288  -0.83136  -0.77964  -0.73588
 Alpha  occ. eigenvalues --   -0.70089  -0.66956  -0.66901  -0.61843  -0.61818
 Alpha  occ. eigenvalues --   -0.56364  -0.55578  -0.51538  -0.49713  -0.42853
 Alpha  occ. eigenvalues --   -0.34813  -0.34432  -0.33263  -0.33218  -0.27927
 Alpha  occ. eigenvalues --   -0.26722  -0.20344  -0.19537  -0.07678  -0.06691
 Alpha virt. eigenvalues --    0.04261   0.04521   0.05187   0.06696   0.07015
 Alpha virt. eigenvalues --    0.07044   0.07862   0.07970   0.08904   0.09037
 Alpha virt. eigenvalues --    0.09061   0.09465   0.10060   0.10177   0.10927

 Mulliken charges:
               1
     1  N    4.917978
     2  P    2.057620
     3  Si   3.773943
     4  P    2.057543
     5  N    4.918139
     6  O   -2.579560
     7  O   -2.820649
     8  O   -2.579518
     9  O   -2.820613
    10  Si   3.773891
    11  H   -1.527833
    12  H   -1.527768
    13  H   -1.798189
    14  H   -2.023410
    15  H   -2.023407
    16  H   -1.798168
 Sum of Mulliken charges =  -0.00000

 Dipole moment (field-independent basis, Debye):
    X=              0.0001    Y=             -5.7569    Z=              0.0002  Tot=              5.7569

 Test job not archived.
 1\1\GINC-SE126\SP\RHF\Aug-CC-pVDZ\H6N2O4P2Si2\OHZDE\08-Apr-2025\0\\#t
 hf aug-cc-pvdz iop(5/13=1,5/36=2,99/5=2) pseudo=read geom=check guess=
 (read,tcheck) scf=(maxcycle=1)\\title\\0,1\N,0,-1.955241,-0.852038,-0.
 636988\P,0,-1.963521,-0.309823,1.153414\Si,0,-0.825512,1.658846,0.8481
 46\P,0,1.963563,-0.309846,-1.153412\N,0,1.955194,-0.852121,0.636967\O,
 0,2.098617,0.028423,1.481301\O,0,1.868306,-2.042298,0.87048\O,0,-2.098
 673,0.028534,-1.481288\O,0,-1.86846,-2.042214,-0.870533\Si,0,0.825595,
 1.658851,-0.848115\H,0,-0.866482,-1.130522,1.498439\H,0,0.866516,-1.13

 Normal termination of Gaussian 16 at Tue Apr  8 23:45:11 2025.
