 Gaussian 16, Revision C.01,

 ----------------------------------------------------------------------
 #t hf aug-cc-pvdz symm=none int=(grid=ultrafine) guess=(read,tcheck) s
 table=opt
 ----------------------------------------------------------------------
 -----
 title
 -----
 Symbolic Z-matrix:
 Charge =  0 Multiplicity = 2

 SCF Done:  E(UHF) =  -172.692899517     A.U. after   16 cycles
 Normal termination of Gaussian 16 at Tue Apr  8 22:38:31 2025.
 Gaussian 16:  ES64L-G16RevC.01  3-Jul-2019

 ----------------------------------------------------------------------
 #t hf aug-cc-pvdz iop(5/13=1,5/36=2,99/5=2) pseudo=read geom=check gue
 ss=(read,tcheck) scf=(maxcycle=1)
 ----------------------------------------------------------------------
 -----
 title
 -----
 Structure from the checkpoint file:  "BDE49_expt_1196_mol2.chk"
 Charge =  0 Multiplicity = 2

                         Standard orientation:
 ---------------------------------------------------------------------
 Center     Atomic      Atomic             Coordinates (Angstroms)
 Number     Number       Type             X           Y           Z
 ---------------------------------------------------------------------
      1          6           0        0.000000    0.009477   -0.185695
      2          6           0       -1.300187   -0.689714    0.031002
      3          1           0       -2.120837   -0.177708   -0.484851
      4          1           0       -1.582524   -0.746607    1.100910
      5          1           0       -1.265709   -1.715021   -0.345250
      6          7           0        0.000000    1.409354   -0.066768
      7          1           0       -0.835575    1.816454    0.333949
      8          1           0        0.835575    1.816454    0.333949
      9          6           0        1.300187   -0.689714    0.031002
     10          1           0        1.265709   -1.715021   -0.345250
     11          1           0        1.582524   -0.746607    1.100911
     12          1           0        2.120837   -0.177708   -0.484851
 ---------------------------------------------------------------------

 SCF Done:  E(UHF) =  -173.546515305     A.U. after    2 cycles

 The electronic state is 2-A.
 Alpha  occ. eigenvalues --  -15.73902 -11.40065 -11.37664 -11.34602  -1.36299
 Alpha  occ. eigenvalues --   -1.11090  -1.01181  -0.80111  -0.66391  -0.61411
 Alpha  occ. eigenvalues --   -0.60854  -0.54024  -0.52737  -0.49526  -0.46136
 Alpha  occ. eigenvalues --   -0.42477  -0.22109
 Alpha virt. eigenvalues --    0.03561   0.05692   0.05701   0.06311   0.06364
 Alpha virt. eigenvalues --    0.06673   0.06829   0.09806   0.10701   0.12896
 Alpha virt. eigenvalues --    0.14504   0.15231   0.15961   0.16072   0.17262

  Beta  occ. eigenvalues --  -15.73595 -11.38872 -11.37941 -11.33717  -1.33875
  Beta  occ. eigenvalues --   -1.09357  -1.01065  -0.75820  -0.65988  -0.60276
  Beta  occ. eigenvalues --   -0.56545  -0.53085  -0.52401  -0.48590  -0.45204
  Beta  occ. eigenvalues --   -0.37589
  Beta virt. eigenvalues --    0.03351   0.05724   0.05742   0.06213   0.06372
  Beta virt. eigenvalues --    0.06696   0.06768   0.09814   0.10734   0.12826
  Beta virt. eigenvalues --    0.14176   0.14687   0.15312   0.16114   0.16436

 Mulliken charges and spin densities:
               1          2
     1  C    2.128313   1.578679
     2  C   -3.778347  -0.374604
     3  H    1.219777   0.005124
     4  H    1.133760   0.046019
     5  H    1.309982   0.000899
     6  N   -3.190083   0.052369
     7  H    0.645714   0.007036
     8  H    0.645714   0.007036
     9  C   -3.778346  -0.374604
    10  H    1.309982   0.000899
    11  H    1.133758   0.046020
    12  H    1.219777   0.005124
 Sum of Mulliken charges =   0.00000   1.00000

 Dipole moment (field-independent basis, Debye):
    X=             -0.0000    Y=              0.2636    Z=              0.9354  Tot=              0.9719
                          Isotropic Fermi Contact Couplings
        Atom                 a.u.       MegaHertz       Gauss      10(-4) cm-1
     1  C(13)              0.17012     191.25242      68.24362      63.79494
     2  C(13)             -0.02400     -26.98503      -9.62893      -9.00124
     3  H(1)               0.00658      29.40808      10.49353       9.80948
     4  H(1)               0.01737      77.62975      27.70023      25.89450
     5  H(1)               0.00312      13.94171       4.97475       4.65045
     6  N(14)              0.06395      20.66235       7.37284       6.89222
     7  H(1)               0.00248      11.07416       3.95154       3.69394
     8  H(1)               0.00248      11.07416       3.95153       3.69394

 Normal termination of Gaussian 16 at Tue Apr  8 22:38:33 2025.
