 Gaussian 16, Revision C.01,

 ----------------------------------------------------------------------
 #t hf aug-cc-pvdz symm=none int=(grid=ultrafine) guess=(read,tcheck) s
 table=opt
 ----------------------------------------------------------------------
 -----
 title
 -----
 Symbolic Z-matrix:
 Charge =  0 Multiplicity = 2

 SCF Done:  E(UHF) =  -485.854824314     A.U. after   19 cycles
 Normal termination of Gaussian 16 at Tue Apr  8 22:44:31 2025.
 Gaussian 16:  ES64L-G16RevC.01  3-Jul-2019

 ----------------------------------------------------------------------
 #t hf aug-cc-pvdz iop(5/13=1,5/36=2,99/5=2) pseudo=read geom=check gue
 ss=(read,tcheck) scf=(maxcycle=1)
 ----------------------------------------------------------------------
 -----
 title
 -----
 Structure from the checkpoint file:  "BDE49_expt_1472_mol2.chk"
 Charge =  0 Multiplicity = 2

                         Standard orientation:
 ---------------------------------------------------------------------
 Center     Atomic      Atomic             Coordinates (Angstroms)
 Number     Number       Type             X           Y           Z
 ---------------------------------------------------------------------
      1          8           0        1.902357   -0.025412   -0.000019
      2          8           0        0.837439    0.765443   -0.000024
      3          6           0       -0.361354   -0.006008    0.000004
      4          9           0       -0.425564   -0.766275    1.081248
      5          9           0       -1.343319    0.878793   -0.000003
      6          9           0       -0.425588   -0.766317   -1.081209
 ---------------------------------------------------------------------

 SCF Done:  E(UHF) =  -487.570850912     A.U. after    2 cycles

 The electronic state is 2-A.
 Alpha  occ. eigenvalues --  -29.35267 -29.35001 -29.34956 -21.20576 -21.18614
 Alpha  occ. eigenvalues --  -11.63653  -2.12100  -1.54334  -1.29438  -0.96113
 Alpha  occ. eigenvalues --   -0.95940  -0.76964  -0.64080  -0.56437  -0.51419
 Alpha  occ. eigenvalues --   -0.47678  -0.47207  -0.44094  -0.40373  -0.39015
 Alpha  occ. eigenvalues --   -0.34853  -0.32353  -0.29462  -0.28326  -0.24971
 Alpha virt. eigenvalues --    0.09972   0.11542   0.11684   0.13135   0.15617
 Alpha virt. eigenvalues --    0.18352   0.20216   0.20583   0.21615   0.22998
 Alpha virt. eigenvalues --    0.24944   0.25671   0.27041   0.30459   0.31018

  Beta  occ. eigenvalues --  -29.35283 -29.34999 -29.34954 -21.18133 -21.16599
  Beta  occ. eigenvalues --  -11.63696  -2.07348  -1.49201  -1.24926  -0.95962
  Beta  occ. eigenvalues --   -0.95607  -0.76051  -0.54965  -0.51869  -0.51365
  Beta  occ. eigenvalues --   -0.47210  -0.47153  -0.42165  -0.38701  -0.37238
  Beta  occ. eigenvalues --   -0.31479  -0.29286  -0.28584  -0.25016
  Beta virt. eigenvalues --    0.09995   0.10766   0.11611   0.11738   0.13261
  Beta virt. eigenvalues --    0.15697   0.18488   0.20584   0.21182   0.23134
  Beta virt. eigenvalues --    0.23382   0.25107   0.25656   0.30561   0.31125

 Mulliken charges and spin densities:
               1          2
     1  O   -0.354767   0.934346
     2  O   -1.347153   0.077696
     3  C   -0.339383  -0.018041
     4  F    0.675814   0.004727
     5  F    0.689676  -0.003456
     6  F    0.675814   0.004727
 Sum of Mulliken charges =  -0.00000   1.00000

 Dipole moment (field-independent basis, Debye):
    X=             -1.9676    Y=             -1.1105    Z=              0.0000  Tot=              2.2594
                          Isotropic Fermi Contact Couplings
        Atom                 a.u.       MegaHertz       Gauss      10(-4) cm-1
     1  O(17)              0.19842    -120.27960     -42.91875     -40.12096
     2  O(17)              0.04744     -28.75708     -10.26124      -9.59233
     3  C(13)             -0.00419      -4.70734      -1.67970      -1.57020
     4  F(19)             -0.00103      -4.32849      -1.54451      -1.44383
     5  F(19)             -0.00308     -12.95903      -4.62410      -4.32267
     6  F(19)             -0.00103      -4.32843      -1.54449      -1.44381
 --------------------------------------------------------
       Center         ----  Spin Dipole Couplings  ----

 Normal termination of Gaussian 16 at Tue Apr  8 22:44:33 2025.
