 Gaussian 16, Revision C.01,

 ----------------------------------------------------------------------
 #t hf aug-cc-pvdz symm=none int=(grid=ultrafine) guess=(read,tcheck) s
 table=(opt,rrhf)
 ----------------------------------------------------------------------
 -----
 title
 -----
 Symbolic Z-matrix:
 Charge =  0 Multiplicity = 1

 SCF Done:  E(RHF) =  -384.632512549     A.U. after   14 cycles
 Normal termination of Gaussian 16 at Tue Apr  8 23:09:16 2025.
 Gaussian 16:  ES64L-G16RevC.01  3-Jul-2019

 ----------------------------------------------------------------------
 #t hf aug-cc-pvdz iop(5/13=1,5/36=2,99/5=2) pseudo=read geom=check gue
 ss=(read,tcheck) scf=(maxcycle=1)
 ----------------------------------------------------------------------
 -----
 title
 -----
 Structure from the checkpoint file:  "BDE49_expt_457_mol1.chk"
 Charge =  0 Multiplicity = 1

                         Standard orientation:
 ---------------------------------------------------------------------
 Center     Atomic      Atomic             Coordinates (Angstroms)
 Number     Number       Type             X           Y           Z
 ---------------------------------------------------------------------
      1          6           0        0.726488    1.207427   -0.000384
      2          6           0       -0.664607    1.204679   -0.005306
      3          6           0       -1.383677   -0.000000   -0.006251
      4          6           0        1.405780    0.000000    0.001825
      5          6           0        0.726489   -1.207427   -0.000384
      6          6           0       -0.664607   -1.204679   -0.005309
      7          1           0        1.284925    2.135421    0.002284
      8          1           0       -1.200017    2.148345   -0.013184
      9          1           0       -1.200017   -2.148345   -0.013194
     10          1           0        1.284926   -2.135420    0.002283
     11          7           0       -2.781158   -0.000003   -0.075353
     12          1           0       -3.223006   -0.834057    0.283235
     13          1           0       -3.223005    0.834078    0.283175
     14          9           0        2.763235    0.000000    0.008635
 ---------------------------------------------------------------------

 SCF Done:  E(RHF) =  -386.325919297     A.U. after    2 cycles

 The electronic state is 1-A.
 Alpha  occ. eigenvalues --  -29.27148 -15.76171 -11.52807 -11.46331 -11.44006
 Alpha  occ. eigenvalues --  -11.43368 -11.40721 -11.37331  -1.42016  -1.29549
 Alpha  occ. eigenvalues --   -1.10734  -1.10260  -0.89493  -0.89418  -0.76106
 Alpha  occ. eigenvalues --   -0.68782  -0.68316  -0.61293  -0.59154  -0.57480
 Alpha  occ. eigenvalues --   -0.55470  -0.50322  -0.47299  -0.46380  -0.37452
 Alpha  occ. eigenvalues --   -0.34851  -0.34282  -0.26342  -0.20409
 Alpha virt. eigenvalues --    0.03471   0.04818   0.04868   0.06134   0.06979
 Alpha virt. eigenvalues --    0.08447   0.10362   0.10783   0.11962   0.13095
 Alpha virt. eigenvalues --    0.13126   0.13511   0.13892   0.14114   0.14434

 Mulliken charges:
               1
     1  C   -3.951720
     2  C   -0.538809
     3  C    1.572242
     4  C    2.846386
     5  C   -3.951726
     6  C   -0.538649
     7  H    1.690598
     8  H    1.664721
     9  H    1.664728
    10  H    1.690597
    11  N   -3.974247
    12  H    0.618143
    13  H    0.618175
    14  F    0.589561
 Sum of Mulliken charges =  -0.00000

 Dipole moment (field-independent basis, Debye):
    X=              0.4656    Y=              0.0000    Z=              0.8063  Tot=              0.9311

 Test job not archived.
 1\1\GINC-SE141\SP\RHF\Aug-CC-pVDZ\C6H6F1N1\OHZDE\08-Apr-2025\0\\#t hf
 aug-cc-pvdz iop(5/13=1,5/36=2,99/5=2) pseudo=read geom=check guess=(re
 ad,tcheck) scf=(maxcycle=1)\\title\\0,1\C,0,0.726488,1.207427,-0.00038
 4\C,0,-0.664607,1.204679,-0.005306\C,0,-1.383677,0.,-0.006251\C,0,1.40
 578,0.,0.001825\C,0,0.726489,-1.207427,-0.000384\C,0,-0.664607,-1.2046
 79,-0.005309\H,0,1.284925,2.135421,0.002284\H,0,-1.200017,2.148345,-0.
 013184\H,0,-1.200017,-2.148345,-0.013194\H,0,1.284926,-2.13542,0.00228
 3\N,0,-2.781158,-0.000003,-0.075353\H,0,-3.223006,-0.834057,0.283235\H

 Normal termination of Gaussian 16 at Tue Apr  8 23:09:22 2025.
