 Gaussian 16, Revision C.01,

 ----------------------------------------------------------------------
 #t hf aug-cc-pvdz symm=none int=(grid=ultrafine) guess=(read,tcheck) s
 table=opt
 ----------------------------------------------------------------------
 -----
 title
 -----
 Symbolic Z-matrix:
 Charge =  0 Multiplicity = 2

 SCF Done:  E(UHF) =  -625.798581299     A.U. after   17 cycles
 Normal termination of Gaussian 16 at Tue Apr  8 23:06:55 2025.
 Gaussian 16:  ES64L-G16RevC.01  3-Jul-2019

 ----------------------------------------------------------------------
 #t hf aug-cc-pvdz iop(5/13=1,5/36=2,99/5=2) pseudo=read geom=check gue
 ss=(read,tcheck) scf=(maxcycle=1)
 ----------------------------------------------------------------------
 -----
 title
 -----
 Structure from the checkpoint file:  "BDE49_expt_390_mol2.chk"
 Charge =  0 Multiplicity = 2

                         Standard orientation:
 ---------------------------------------------------------------------
 Center     Atomic      Atomic             Coordinates (Angstroms)
 Number     Number       Type             X           Y           Z
 ---------------------------------------------------------------------
      1          6           0        1.139678    1.210477   -0.184294
      2         16           0        0.073557   -0.148385    0.023410
      3          1           0        0.853086    2.187235    0.181316
      4          1           0        2.156895    0.978161   -0.468685
      5          6           0       -1.564149    0.559655   -0.161123
      6          1           0       -2.260502   -0.268019   -0.021251
      7          1           0       -1.664592    0.975762   -1.162645
      8          1           0       -1.720596    1.314115    0.609237
      9          8           0        0.199753   -0.613041    1.394281
     10          8           0        0.300950   -1.066194   -1.074286
 ---------------------------------------------------------------------

 SCF Done:  E(UHF) =  -627.071450955     A.U. after    2 cycles

 The electronic state is 2-A.
 Alpha  occ. eigenvalues --  -75.88861 -21.04281 -21.04238 -13.50964 -13.41537
 Alpha  occ. eigenvalues --  -13.33361 -11.44827 -11.42832  -8.24062  -1.83039
 Alpha  occ. eigenvalues --   -1.64595  -1.19720  -1.08639  -0.87457  -0.67586
 Alpha  occ. eigenvalues --   -0.65708  -0.63645  -0.57883  -0.55557  -0.49689
 Alpha  occ. eigenvalues --   -0.41260  -0.39789  -0.37446  -0.36511  -0.34031
 Alpha virt. eigenvalues --    0.02058   0.04207   0.04952   0.05595   0.06825
 Alpha virt. eigenvalues --    0.09925   0.12324   0.12738   0.13183   0.13461
 Alpha virt. eigenvalues --    0.14774   0.15034   0.16167   0.17100   0.18181

  Beta  occ. eigenvalues --  -75.88944 -21.04213 -21.03971 -13.51070 -13.41700
  Beta  occ. eigenvalues --  -13.33596 -11.43475 -11.41874  -8.24167  -1.82793
  Beta  occ. eigenvalues --   -1.64174  -1.17554  -1.03577  -0.85537  -0.66311
  Beta  occ. eigenvalues --   -0.65271  -0.63406  -0.56851  -0.54803  -0.44172
  Beta  occ. eigenvalues --   -0.39305  -0.38661  -0.36648  -0.34750
  Beta virt. eigenvalues --    0.02015   0.04034   0.04326   0.05203   0.05812
  Beta virt. eigenvalues --    0.06836   0.09978   0.12808   0.13215   0.13313
  Beta virt. eigenvalues --    0.14264   0.15133   0.15496   0.16291   0.17229

 Mulliken charges and spin densities:
               1          2
     1  C   -3.513452   1.285361
     2  S    6.094044  -0.170083
     3  H    1.383021  -0.080095
     4  H    1.465392  -0.071344
     5  C   -4.446196  -0.000977
     6  H    1.352362  -0.000230
     7  H    1.319029  -0.001256
     8  H    1.330773  -0.001569
     9  O   -2.426253   0.018326
    10  O   -2.558721   0.021866
 Sum of Mulliken charges =   0.00000   1.00000

 Dipole moment (field-independent basis, Debye):
    X=             -0.5972    Y=              2.2337    Z=             -0.2812  Tot=              2.3292
                          Isotropic Fermi Contact Couplings
        Atom                 a.u.       MegaHertz       Gauss      10(-4) cm-1
     1  C(13)              0.12611     141.77510      50.58888      47.29108
     2  S(33)             -0.12008     -41.24594     -14.71758     -13.75817
     3  H(1)              -0.01723     -77.00613     -27.47770     -25.68648
     4  H(1)              -0.01800     -80.46736     -28.71276     -26.84102
     5  C(13)             -0.00231      -2.59967      -0.92763      -0.86716
     6  H(1)               0.00050       2.21771       0.79133       0.73975
     7  H(1)               0.00036       1.60198       0.57163       0.53436
     8  H(1)              -0.00003      -0.11648      -0.04156      -0.03885

 Normal termination of Gaussian 16 at Tue Apr  8 23:06:59 2025.
