 Gaussian 16, Revision C.01,

 ----------------------------------------------------------------------
 #t hf aug-cc-pvdz symm=none int=(grid=ultrafine) guess=(read,tcheck) s
 table=opt
 ----------------------------------------------------------------------
 -----
 title
 -----
 Symbolic Z-matrix:
 Charge =  0 Multiplicity = 2

 SCF Done:  E(UHF) =  -482.683431595     A.U. after   18 cycles
 Normal termination of Gaussian 16 at Tue Apr  8 22:44:52 2025.
 Gaussian 16:  ES64L-G16RevC.01  3-Jul-2019

 ----------------------------------------------------------------------
 #t hf aug-cc-pvdz iop(5/13=1,5/36=2,99/5=2) pseudo=read geom=check gue
 ss=(read,tcheck) scf=(maxcycle=1)
 ----------------------------------------------------------------------
 -----
 title
 -----
 Structure from the checkpoint file:  "BDE49_expt_1490_mol2.chk"
 Charge =  0 Multiplicity = 2

                         Standard orientation:
 ---------------------------------------------------------------------
 Center     Atomic      Atomic             Coordinates (Angstroms)
 Number     Number       Type             X           Y           Z
 ---------------------------------------------------------------------
      1          8           0       -0.475436   -0.000002    1.668325
      2         14           0        0.024387    0.000000    0.079972
      3          6           0       -1.650610   -0.000001   -0.803937
      4          1           0       -2.231685   -0.888234   -0.551097
      5          1           0       -1.458607    0.000001   -1.882461
      6          1           0       -2.231687    0.888229   -0.551094
      7          6           0        1.002979    1.544133   -0.340204
      8          1           0        0.422776    2.444787   -0.124050
      9          1           0        1.272799    1.555434   -1.401305
     10          1           0        1.930392    1.593805    0.237621
     11          6           0        1.002982   -1.544131   -0.340206
     12          1           0        0.422780   -2.444786   -0.124054
     13          1           0        1.930394   -1.593802    0.237622
     14          1           0        1.272805   -1.555429   -1.401306
 ---------------------------------------------------------------------

 SCF Done:  E(UHF) =  -483.728661176     A.U. after    2 cycles

 The electronic state is 2-A.
 Alpha  occ. eigenvalues --  -76.20876 -21.09625 -11.34835 -11.34831 -11.34713
 Alpha  occ. eigenvalues --   -5.55346  -2.21817  -2.18564  -2.18401  -1.62982
 Alpha  occ. eigenvalues --   -1.07385  -1.01542  -1.01503  -0.64428  -0.57618
 Alpha  occ. eigenvalues --   -0.57153  -0.57116  -0.55931  -0.55243  -0.53885
 Alpha  occ. eigenvalues --   -0.48769  -0.43888  -0.40841  -0.37982  -0.36291
 Alpha virt. eigenvalues --    0.02634   0.05488   0.05545   0.05794   0.06420
 Alpha virt. eigenvalues --    0.06541   0.07162   0.07183   0.07759   0.08796
 Alpha virt. eigenvalues --    0.09999   0.10133   0.11616   0.14615   0.16713

  Beta  occ. eigenvalues --  -76.20934 -21.06086 -11.34815 -11.34787 -11.34591
  Beta  occ. eigenvalues --   -5.55433  -2.21752  -2.18639  -2.18509  -1.49164
  Beta  occ. eigenvalues --   -1.07032  -1.01512  -1.01169  -0.63725  -0.57412
  Beta  occ. eigenvalues --   -0.57048  -0.56975  -0.55204  -0.54951  -0.53862
  Beta  occ. eigenvalues --   -0.42669  -0.40157  -0.37638  -0.34124
  Beta virt. eigenvalues --    0.02655   0.04616   0.05501   0.05797   0.06421
  Beta virt. eigenvalues --    0.06543   0.06873   0.07168   0.07656   0.08194
  Beta virt. eigenvalues --    0.08797   0.10173   0.11647   0.12367   0.14654

 Mulliken charges and spin densities:
               1          2
     1  O   -2.474962   1.089716
     2  Si   8.132553  -0.224091
     3  C   -5.340643   0.068670
     4  H    1.162208   0.020215
     5  H    1.163260   0.003538
     6  H    1.162208   0.020215
     7  C   -5.377363   0.007188
     8  H    1.142100  -0.003223
     9  H    1.187632   0.000014
    10  H    1.145318   0.006889
    11  C   -5.377362   0.007188
    12  H    1.142100  -0.003223
    13  H    1.145317   0.006889
    14  H    1.187632   0.000014
 Sum of Mulliken charges =   0.00000   1.00000

 Dipole moment (field-independent basis, Debye):
    X=              0.5314    Y=              0.0000    Z=             -1.0233  Tot=              1.1531
                          Isotropic Fermi Contact Couplings
        Atom                 a.u.       MegaHertz       Gauss      10(-4) cm-1
     1  O(17)              0.15247     -92.42701     -32.98025     -30.83033
     2  Si(29)            -0.04868      43.26693      15.43872      14.43229
     3  C(13)              0.02824      31.75270      11.33015      10.59156
     4  H(1)              -0.00072      -3.23453      -1.15416      -1.07892
     5  H(1)               0.00257      11.49801       4.10278       3.83532
     6  H(1)              -0.00072      -3.23452      -1.15416      -1.07892
     7  C(13)              0.00146       1.64253       0.58610       0.54789
     8  H(1)              -0.00016      -0.73571      -0.26252      -0.24541

 Normal termination of Gaussian 16 at Tue Apr  8 22:44:56 2025.
