 Gaussian 16, Revision C.01,

 ----------------------------------------------------------------------
 #t hf aug-cc-pvdz symm=none int=(grid=ultrafine) guess=(read,tcheck) s
 table=(opt,rrhf)
 ----------------------------------------------------------------------
 -----
 title
 -----
 Symbolic Z-matrix:
 Charge =  0 Multiplicity = 1

 SCF Done:  E(RHF) =  -463.376832750     A.U. after   12 cycles
 Normal termination of Gaussian 16 at Tue Apr  8 23:52:39 2025.
 Gaussian 16:  ES64L-G16RevC.01  3-Jul-2019

 ----------------------------------------------------------------------
 #t hf aug-cc-pvdz iop(5/13=1,5/36=2,99/5=2) pseudo=read geom=check gue
 ss=(read,tcheck) scf=(maxcycle=1)
 ----------------------------------------------------------------------
 -----
 title
 -----
 Structure from the checkpoint file:  "BDE49_nonexpt_1899_mol1.chk"
 Charge =  0 Multiplicity = 1

                         Standard orientation:
 ---------------------------------------------------------------------
 Center     Atomic      Atomic             Coordinates (Angstroms)
 Number     Number       Type             X           Y           Z
 ---------------------------------------------------------------------
      1         14           0       -1.944672   -0.015716   -0.127055
      2          6           0       -0.242591   -0.575082    0.495731
      3          1           0       -2.096396    1.458636   -0.116564
      4          1           0       -2.989391   -0.588881    0.758243
      5          1           0       -2.160505   -0.503122   -1.508418
      6          7           0        0.870722   -0.008726   -0.273946
      7          6           0        1.146659    1.374116    0.094164
      8          1           0        1.478836    1.476613    1.145297
      9          1           0        0.255608    1.989944   -0.038608
     10          1           0        1.931358    1.777118   -0.550570
     11          6           0        2.076168   -0.822904   -0.170537
     12          1           0        1.872153   -1.836548   -0.523089
     13          1           0        2.464853   -0.887946    0.863564
     14          1           0        2.861466   -0.398787   -0.801684
     15          1           0       -0.230969   -1.663317    0.367738
     16          1           0       -0.138073   -0.399375    1.584329
 ---------------------------------------------------------------------

 SCF Done:  E(RHF) =  -464.431368236     A.U. after    2 cycles

 The electronic state is 1-A.
 Alpha  occ. eigenvalues --  -76.20579 -15.70769 -11.38285 -11.37711 -11.36625
 Alpha  occ. eigenvalues --   -5.54099  -2.18129  -2.16490  -2.16365  -1.41713
 Alpha  occ. eigenvalues --   -1.03125  -1.02724  -0.84542  -0.74424  -0.64380
 Alpha  occ. eigenvalues --   -0.63228  -0.60579  -0.54736  -0.53519  -0.50141
 Alpha  occ. eigenvalues --   -0.48952  -0.45919  -0.45442  -0.40852  -0.30390
 Alpha virt. eigenvalues --    0.04024   0.04943   0.05655   0.05763   0.06000
 Alpha virt. eigenvalues --    0.06362   0.06626   0.07030   0.07704   0.08807
 Alpha virt. eigenvalues --    0.09536   0.09687   0.10461   0.11880   0.13063

 Mulliken charges:
               1
     1  Si   6.122182
     2  C   -3.342987
     3  H   -1.756956
     4  H   -1.790397
     5  H   -1.793060
     6  N   -2.305851
     7  C   -3.288658
     8  H    1.368902
     9  H    1.653387
    10  H    1.288770
    11  C   -3.549868
    12  H    1.402518
    13  H    1.375194
    14  H    1.405574
    15  H    1.627294
    16  H    1.583956
 Sum of Mulliken charges =  -0.00000

 Dipole moment (field-independent basis, Debye):
    X=              0.9589    Y=             -0.2257    Z=              0.4186  Tot=              1.0704

 Test job not archived.
 1\1\GINC-SE059\SP\RHF\Aug-CC-pVDZ\C3H11N1Si1\OHZDE\08-Apr-2025\0\\#t h
 f aug-cc-pvdz iop(5/13=1,5/36=2,99/5=2) pseudo=read geom=check guess=(
 read,tcheck) scf=(maxcycle=1)\\title\\0,1\Si,0,-1.944672,-0.015716,-0.
 127055\C,0,-0.242591,-0.575082,0.495731\H,0,-2.096396,1.458636,-0.1165
 64\H,0,-2.989391,-0.588881,0.758243\H,0,-2.160505,-0.503122,-1.508418\
 N,0,0.870722,-0.008726,-0.273946\C,0,1.146659,1.374116,0.094164\H,0,1.
 478836,1.476613,1.145297\H,0,0.255608,1.989944,-0.038608\H,0,1.931358,
 1.777118,-0.55057\C,0,2.076168,-0.822904,-0.170537\H,0,1.872153,-1.836

 Normal termination of Gaussian 16 at Tue Apr  8 23:52:44 2025.
