 Gaussian 16, Revision C.01,

 ----------------------------------------------------------------------
 #t hf aug-cc-pvdz symm=none int=(grid=ultrafine) guess=(read,tcheck) s
 table=(opt,rrhf)
 ----------------------------------------------------------------------
 -----
 title
 -----
 Symbolic Z-matrix:
 Charge =  0 Multiplicity = 1

 SCF Done:  E(RHF) =  -480.790165359     A.U. after   15 cycles
 Normal termination of Gaussian 16 at Wed Apr  9 00:42:29 2025.
 Gaussian 16:  ES64L-G16RevC.01  3-Jul-2019

 ----------------------------------------------------------------------
 #t hf aug-cc-pvdz iop(5/13=1,5/36=2,99/5=2) pseudo=read geom=check gue
 ss=(read,tcheck) scf=(maxcycle=1)
 ----------------------------------------------------------------------
 -----
 title
 -----
 Structure from the checkpoint file:  "BDE49_nonexpt_669_mol1.chk"
 Charge =  0 Multiplicity = 1

                         Standard orientation:
 ---------------------------------------------------------------------
 Center     Atomic      Atomic             Coordinates (Angstroms)
 Number     Number       Type             X           Y           Z
 ---------------------------------------------------------------------
      1          6           0       -2.993333    0.296052    0.061475
      2          6           0       -2.553212   -1.008792    0.275961
      3          6           0       -1.200367   -1.318738    0.177505
      4          6           0       -2.066820    1.286997   -0.254660
      5          6           0       -0.709720    0.989055   -0.358065
      6          6           0       -0.280029   -0.319022   -0.135245
      7          1           0       -4.046982    0.537493    0.138553
      8          1           0       -3.263554   -1.790482    0.520815
      9          1           0       -0.839593   -2.327727    0.337066
     10          1           0       -2.398370    2.305209   -0.425274
     11          1           0        0.010085    1.760573   -0.593229
     12          8           0        1.035981   -0.708728   -0.265625
     13          5           0        2.167929    0.006437    0.046614
     14          8           0        3.382288   -0.572706   -0.202159
     15          1           0        3.291957   -1.449863   -0.585735
     16          8           0        2.111352    1.253950    0.592808
     17          1           0        2.990729    1.599166    0.772712
 ---------------------------------------------------------------------

 SCF Done:  E(RHF) =  -482.902191075     A.U. after    2 cycles

 The electronic state is 1-A.
 Alpha  occ. eigenvalues --  -21.06283 -21.06229 -21.04999 -11.53075 -11.45526
 Alpha  occ. eigenvalues --  -11.42430 -11.40462 -11.40040 -11.36253  -7.67075
 Alpha  occ. eigenvalues --   -1.90469  -1.71698  -1.66862  -1.31844  -1.09194
 Alpha  occ. eigenvalues --   -1.07382  -0.87557  -0.86293  -0.77040  -0.70318
 Alpha  occ. eigenvalues --   -0.67036  -0.64743  -0.59690  -0.58684  -0.58163
 Alpha  occ. eigenvalues --   -0.55329  -0.51773  -0.50101  -0.47838  -0.45655
 Alpha  occ. eigenvalues --   -0.42064  -0.38608  -0.37329  -0.36905  -0.32937
 Alpha  occ. eigenvalues --   -0.28810
 Alpha virt. eigenvalues --    0.02960   0.04378   0.04539   0.05351   0.05699
 Alpha virt. eigenvalues --    0.06022   0.06748   0.07353   0.08111   0.08293
 Alpha virt. eigenvalues --    0.09976   0.11602   0.12233   0.12632   0.13883

 Mulliken charges:
               1
     1  C   -2.794747
     2  C    0.162875
     3  C   -4.402943
     4  C    0.027875
     5  C   -4.069306
     6  C    7.756290
     7  H    1.542508
     8  H    1.502541
     9  H    1.727174
    10  H    1.486265
    11  H    1.779283
    12  O   -7.977091
    13  B    8.713177
    14  O   -3.496495
    15  H    1.178919
    16  O   -4.258470
    17  H    1.122146
 Sum of Mulliken charges =  -0.00000

 Dipole moment (field-independent basis, Debye):
    X=              0.2113    Y=              0.0293    Z=              0.0268  Tot=              0.2150

 Test job not archived.
 1\1\GINC-SE058\SP\RHF\Aug-CC-pVDZ\C6H7B1O3\OHZDE\09-Apr-2025\0\\#t hf
 aug-cc-pvdz iop(5/13=1,5/36=2,99/5=2) pseudo=read geom=check guess=(re
 ad,tcheck) scf=(maxcycle=1)\\title\\0,1\C,0,-2.993333,0.296052,0.06147
 5\C,0,-2.553212,-1.008792,0.275961\C,0,-1.200367,-1.318738,0.177505\C,
 0,-2.06682,1.286997,-0.25466\C,0,-0.70972,0.989055,-0.358065\C,0,-0.28
 0029,-0.319022,-0.135245\H,0,-4.046982,0.537493,0.138553\H,0,-3.263554
 ,-1.790482,0.520815\H,0,-0.839593,-2.327727,0.337066\H,0,-2.39837,2.30
 5209,-0.425274\H,0,0.010085,1.760573,-0.593229\O,0,1.035981,-0.708728,

 Normal termination of Gaussian 16 at Wed Apr  9 00:42:38 2025.
