 Gaussian 16, Revision C.01,

 ----------------------------------------------------------------------
 #t hf aug-cc-pvdz symm=none int=(grid=ultrafine) guess=(read,tcheck) s
 table=(opt,rrhf)
 ----------------------------------------------------------------------
 -----
 title
 -----
 Symbolic Z-matrix:
 Charge =  0 Multiplicity = 1

 SCF Done:  E(RHF) =  -643.085929788     A.U. after   15 cycles
 Normal termination of Gaussian 16 at Tue Apr  8 23:37:48 2025.
 Gaussian 16:  ES64L-G16RevC.01  3-Jul-2019

 ----------------------------------------------------------------------
 #t hf aug-cc-pvdz iop(5/13=1,5/36=2,99/5=2) pseudo=read geom=check gue
 ss=(read,tcheck) scf=(maxcycle=1)
 ----------------------------------------------------------------------
 -----
 title
 -----
 Structure from the checkpoint file:  "BDE49_nonexpt_1511_mol1.chk"
 Charge =  0 Multiplicity = 1

                         Standard orientation:
 ---------------------------------------------------------------------
 Center     Atomic      Atomic             Coordinates (Angstroms)
 Number     Number       Type             X           Y           Z
 ---------------------------------------------------------------------
      1          6           0       -0.406297    1.104126   -0.171632
      2          6           0       -1.780356    1.308151   -0.093189
      3          6           0       -2.612831    0.204058    0.068566
      4          7           0       -2.157532   -1.050158    0.160904
      5          6           0       -0.837674   -1.230344    0.088876
      6          6           0        0.093931   -0.196397   -0.075804
      7          1           0       -2.200884    2.305210   -0.157268
      8          1           0       -3.690450    0.327202    0.130289
      9          1           0        0.277978    1.936353   -0.291714
     10          7           0        2.600081    0.837319    0.354252
     11          1           0       -0.500906   -2.261524    0.176650
     12         15           0        1.885183   -0.569949   -0.297762
     13          1           0        1.954383   -1.502950    0.776729
     14          1           0        3.508056    1.067247   -0.020332
     15          1           0        2.535595    1.030008    1.345083
 ---------------------------------------------------------------------

 SCF Done:  E(RHF) =  -644.699484340     A.U. after    2 cycles

 The electronic state is 1-A.
 Alpha  occ. eigenvalues -- -105.19869 -15.75262 -15.73778 -11.47651 -11.44753
 Alpha  occ. eigenvalues --  -11.43371 -11.41419 -11.37638  -2.77837  -1.56871
 Alpha  occ. eigenvalues --   -1.51610  -1.45228  -1.43467  -1.19378  -1.17020
 Alpha  occ. eigenvalues --   -1.09885  -0.89029  -0.87146  -0.74695  -0.70168
 Alpha  occ. eigenvalues --   -0.65980  -0.61614  -0.60252  -0.55139  -0.54093
 Alpha  occ. eigenvalues --   -0.50912  -0.42234  -0.37331  -0.36948  -0.34723
 Alpha  occ. eigenvalues --   -0.28949  -0.24358  -0.01980
 Alpha virt. eigenvalues --    0.03821   0.04734   0.05751   0.06227   0.06411
 Alpha virt. eigenvalues --    0.06521   0.08095   0.08975   0.09991   0.10465
 Alpha virt. eigenvalues --    0.11560   0.12103   0.12266   0.13156   0.13272

 Mulliken charges:
               1
     1  C   -1.552635
     2  C   -0.768023
     3  C   -1.308456
     4  N   -3.435806
     5  C   -2.378131
     6  C    1.559083
     7  H    1.397294
     8  H    1.444751
     9  H    1.700149
    10  N   -2.516757
    11  H    1.555900
    12  P    3.773685
    13  H   -0.601836
    14  H    0.649246
    15  H    0.481536
 Sum of Mulliken charges =   0.00000

 Dipole moment (field-independent basis, Debye):
    X=              1.3786    Y=              1.6855    Z=              0.4177  Tot=              2.2172

 Test job not archived.
 1\1\GINC-SE173\SP\RHF\Aug-CC-pVDZ\C5H7N2P1\OHZDE\08-Apr-2025\0\\#t hf
 aug-cc-pvdz iop(5/13=1,5/36=2,99/5=2) pseudo=read geom=check guess=(re
 ad,tcheck) scf=(maxcycle=1)\\title\\0,1\C,0,-0.406297,1.104126,-0.1716
 32\C,0,-1.780356,1.308151,-0.093189\C,0,-2.612831,0.204058,0.068566\N,
 0,-2.157532,-1.050158,0.160904\C,0,-0.837674,-1.230344,0.088876\C,0,0.
 093931,-0.196397,-0.075804\H,0,-2.200884,2.30521,-0.157268\H,0,-3.6904
 5,0.327202,0.130289\H,0,0.277978,1.936353,-0.291714\N,0,2.600081,0.837
 319,0.354252\H,0,-0.500906,-2.261524,0.17665\P,0,1.885183,-0.569949,-0

 Normal termination of Gaussian 16 at Tue Apr  8 23:37:54 2025.
