 Gaussian 16, Revision C.01,

 ----------------------------------------------------------------------
 #t hf aug-cc-pvdz symm=none int=(grid=ultrafine) guess=(read,tcheck) s
 table=(opt,rrhf)
 ----------------------------------------------------------------------
 -----
 title
 -----
 Symbolic Z-matrix:
 Charge =  0 Multiplicity = 1

 SCF Done:  E(RHF) =  -899.457408028     A.U. after   16 cycles
 Normal termination of Gaussian 16 at Wed Apr  9 00:51:24 2025.
 Gaussian 16:  ES64L-G16RevC.01  3-Jul-2019

 ----------------------------------------------------------------------
 #t hf aug-cc-pvdz iop(5/13=1,5/36=2,99/5=2) pseudo=read geom=check gue
 ss=(read,tcheck) scf=(maxcycle=1)
 ----------------------------------------------------------------------
 -----
 title
 -----
 Structure from the checkpoint file:  "BDE49_nonexpt_831_mol1.chk"
 Charge =  0 Multiplicity = 1

                         Standard orientation:
 ---------------------------------------------------------------------
 Center     Atomic      Atomic             Coordinates (Angstroms)
 Number     Number       Type             X           Y           Z
 ---------------------------------------------------------------------
      1          6           0        1.557715    2.280820    0.572782
      2          6           0        0.211351    2.185028    0.221793
      3          6           0        2.396035    1.179163    0.443484
      4          6           0        1.852367   -0.005676   -0.038643
      5          6           0        0.512850   -0.117800   -0.393611
      6          6           0       -0.339402    0.989574   -0.270115
      7          1           0        0.163110   -1.070885   -0.772089
      8          1           0        1.956002    3.216629    0.946982
      9          1           0       -0.422035    3.059060    0.329671
     10          5           0       -3.034497   -0.684527    0.293334
     11          8           0       -2.380450   -1.426836    1.236809
     12          8           0       -4.333260   -0.976553    0.021844
     13          1           0        3.444306    1.218281    0.704179
     14          7           0        2.731985   -1.191086   -0.177982
     15          8           0        3.914928   -1.053362    0.099609
     16          8           0        2.219425   -2.234597   -0.559309
     17          1           0       -4.665913   -1.711138    0.554492
     18          1           0       -1.468586   -1.160419    1.385901
     19         14           0       -2.170995    0.848793   -0.739206
     20          1           0       -2.799493    2.155796   -0.422694
     21          1           0       -2.275499    0.633954   -2.204111
 ---------------------------------------------------------------------

 SCF Done:  E(RHF) =  -902.262464710     A.U. after    2 cycles

 The electronic state is 1-A.
 Alpha  occ. eigenvalues --  -76.21684 -21.09985 -21.09856 -21.07682 -21.06756
 Alpha  occ. eigenvalues --  -16.00527 -11.55345 -11.48358 -11.47155 -11.46073
 Alpha  occ. eigenvalues --  -11.44223 -11.40249  -7.65094  -5.55409  -2.20366
 Alpha  occ. eigenvalues --   -2.19060  -2.17862  -2.00317  -1.82013  -1.69607
 Alpha  occ. eigenvalues --   -1.66616  -1.38133  -1.18439  -1.13179  -1.00500
 Alpha  occ. eigenvalues --   -0.90815  -0.84955  -0.80178  -0.75798  -0.71855
 Alpha  occ. eigenvalues --   -0.69513  -0.68137  -0.64738  -0.64224  -0.63297
 Alpha  occ. eigenvalues --   -0.58320  -0.56217  -0.56077  -0.53173  -0.50454
 Alpha  occ. eigenvalues --   -0.50082  -0.47154  -0.44551  -0.42334  -0.37778
 Alpha  occ. eigenvalues --   -0.37609  -0.36832  -0.35987  -0.34332  -0.31818
 Alpha  occ. eigenvalues --   -0.31675
 Alpha virt. eigenvalues --    0.02572   0.03952   0.04437   0.04614   0.05208
 Alpha virt. eigenvalues --    0.05925   0.06341   0.06969   0.07762   0.08122
 Alpha virt. eigenvalues --    0.08428   0.08508   0.08882   0.09674   0.09869

 Mulliken charges:
               1
     1  C    0.780491
     2  C   -5.256803
     3  C   -3.331637
     4  C    3.193997
     5  C   -2.280337
     6  C    1.429741
     7  H    2.238333
     8  H    1.563514
     9  H    1.881886
    10  B    5.887978
    11  O   -4.428935
    12  O   -4.192522
    13  H    1.866967
    14  N    3.414754
    15  O   -3.058359
    16  O   -2.992043
    17  H    1.390476
    18  H    1.602668
    19  Si   4.242445
    20  H   -1.843096
    21  H   -2.109519
 Sum of Mulliken charges =   0.00000

 Dipole moment (field-independent basis, Debye):
    X=             -0.7067    Y=              2.0041    Z=              1.3075  Tot=              2.4951

 Test job not archived.
 1\1\GINC-SE106\SP\RHF\Aug-CC-pVDZ\C6H8B1N1O4Si1\OHZDE\09-Apr-2025\0\\#
 t hf aug-cc-pvdz iop(5/13=1,5/36=2,99/5=2) pseudo=read geom=check gues
 s=(read,tcheck) scf=(maxcycle=1)\\title\\0,1\C,0,1.557715,2.28082,0.57
 2782\C,0,0.211351,2.185028,0.221793\C,0,2.396035,1.179163,0.443484\C,0
 ,1.852367,-0.005676,-0.038643\C,0,0.51285,-0.1178,-0.393611\C,0,-0.339
 402,0.989574,-0.270115\H,0,0.16311,-1.070885,-0.772089\H,0,1.956002,3.
 216629,0.946982\H,0,-0.422035,3.05906,0.329671\B,0,-3.034497,-0.684527
 ,0.293334\O,0,-2.38045,-1.426836,1.236809\O,0,-4.33326,-0.976553,0.021

 Normal termination of Gaussian 16 at Wed Apr  9 00:51:41 2025.
