 Gaussian 16, Revision C.01,

 ----------------------------------------------------------------------
 #t hf aug-cc-pvdz symm=none int=(grid=ultrafine) guess=(read,tcheck) s
 table=(opt,rrhf)
 ----------------------------------------------------------------------
 -----
 title
 -----
 Symbolic Z-matrix:
 Charge =  0 Multiplicity = 1

 SCF Done:  E(RHF) =  -191.934895297     A.U. after   12 cycles
 Normal termination of Gaussian 16 at Tue Apr  8 23:01:40 2025.
 Gaussian 16:  ES64L-G16RevC.01  3-Jul-2019

 ----------------------------------------------------------------------
 #t hf aug-cc-pvdz iop(5/13=1,5/36=2,99/5=2) pseudo=read geom=check gue
 ss=(read,tcheck) scf=(maxcycle=1)
 ----------------------------------------------------------------------
 -----
 title
 -----
 Structure from the checkpoint file:  "BDE49_expt_196_mol1.chk"
 Charge =  0 Multiplicity = 1

                         Standard orientation:
 ---------------------------------------------------------------------
 Center     Atomic      Atomic             Coordinates (Angstroms)
 Number     Number       Type             X           Y           Z
 ---------------------------------------------------------------------
      1          8           0       -0.825976   -0.789363   -0.241517
      2          6           0        0.151561   -0.036402    0.488782
      3          6           0       -1.043302    0.615451   -0.061516
      4          1           0       -1.869830    0.880144    0.594212
      5          1           0       -0.951869    1.219252   -0.962127
      6          6           0        1.509130    0.099804   -0.148303
      7          1           0        0.153280   -0.252636    1.557007
      8          1           0        1.413111    0.321538   -1.213488
      9          1           0        2.077153   -0.828995   -0.043894
     10          1           0        2.081628    0.902489    0.326647
 ---------------------------------------------------------------------

 SCF Done:  E(RHF) =  -192.828148199     A.U. after    2 cycles

 The electronic state is 1-A.
 Alpha  occ. eigenvalues --  -21.05421 -11.47540 -11.41442 -11.37866  -1.77035
 Alpha  occ. eigenvalues --   -1.11252  -0.95631  -0.84610  -0.69056  -0.61209
 Alpha  occ. eigenvalues --   -0.57449  -0.54003  -0.50163  -0.43277  -0.36086
 Alpha  occ. eigenvalues --   -0.30549
 Alpha virt. eigenvalues --    0.03818   0.05575   0.05697   0.06004   0.06241
 Alpha virt. eigenvalues --    0.06866   0.10699   0.12113   0.12683   0.13991
 Alpha virt. eigenvalues --    0.15009   0.15785   0.17038   0.17311   0.18031

 Mulliken charges:
               1
     1  O   -2.469954
     2  C    0.597459
     3  C   -1.961842
     4  H    1.379675
     5  H    1.453780
     6  C   -4.040768
     7  H    1.403989
     8  H    1.207900
     9  H    1.165342
    10  H    1.264417
 Sum of Mulliken charges =   0.00000

 Dipole moment (field-independent basis, Debye):
    X=              0.3031    Y=              0.4004    Z=              0.2257  Tot=              0.5506

 Test job not archived.
 1\1\GINC-SE051\SP\RHF\Aug-CC-pVDZ\C3H6O1\OHZDE\08-Apr-2025\0\\#t hf au
 g-cc-pvdz iop(5/13=1,5/36=2,99/5=2) pseudo=read geom=check guess=(read
 ,tcheck) scf=(maxcycle=1)\\title\\0,1\O,0,-0.825976,-0.789363,-0.24151
 7\C,0,0.151561,-0.036402,0.488782\C,0,-1.043302,0.615451,-0.061516\H,0
 ,-1.86983,0.880145,0.594212\H,0,-0.951869,1.219252,-0.962127\C,0,1.509
 13,0.099803,-0.148303\H,0,0.15328,-0.252636,1.557007\H,0,1.413111,0.32
 1537,-1.213488\H,0,2.077153,-0.828996,-0.043894\H,0,2.081628,0.902488,
 0.326647\\Version=ES64L-G16RevC.01\State=1-A\HF=-192.8281482\RMSD=5.37

 Normal termination of Gaussian 16 at Tue Apr  8 23:01:42 2025.
