 Gaussian 16, Revision C.01,

 ----------------------------------------------------------------------
 #t hf aug-cc-pvdz symm=none int=(grid=ultrafine) guess=(read,tcheck) s
 table=(opt,rrhf)
 ----------------------------------------------------------------------
 -----
 title
 -----
 Symbolic Z-matrix:
 Charge =  0 Multiplicity = 1

 SCF Done:  E(RHF) =  -625.223602114     A.U. after   13 cycles
 Normal termination of Gaussian 16 at Tue Apr  8 23:36:23 2025.
 Gaussian 16:  ES64L-G16RevC.01  3-Jul-2019

 ----------------------------------------------------------------------
 #t hf aug-cc-pvdz iop(5/13=1,5/36=2,99/5=2) pseudo=read geom=check gue
 ss=(read,tcheck) scf=(maxcycle=1)
 ----------------------------------------------------------------------
 -----
 title
 -----
 Structure from the checkpoint file:  "BDE49_nonexpt_1497_mol1.chk"
 Charge =  0 Multiplicity = 1

                         Standard orientation:
 ---------------------------------------------------------------------
 Center     Atomic      Atomic             Coordinates (Angstroms)
 Number     Number       Type             X           Y           Z
 ---------------------------------------------------------------------
      1         15           0        0.143860   -0.995178   -0.232654
      2          7           0       -0.955386    0.270328    0.353823
      3          8           0       -1.143046    1.265635   -0.654321
      4          8           0       -2.218013   -0.384536    0.530494
      5          6           0        1.644249    0.057820   -0.532768
      6          6           0        2.376473    0.439743    0.758737
      7          1           0        2.682787   -0.446432    1.321325
      8          1           0        1.737560    1.040339    1.410657
      9          1           0        3.274138    1.024325    0.539150
     10          1           0        1.354930    0.942171   -1.103130
     11          1           0        2.293738   -0.547836   -1.175338
     12          1           0       -1.234352    2.080958   -0.145854
     13          1           0       -2.516116   -0.055692    1.386622
     14          1           0       -0.298733   -1.036634   -1.585568
 ---------------------------------------------------------------------

 SCF Done:  E(RHF) =  -626.686800387     A.U. after    2 cycles

 The electronic state is 1-A.
 Alpha  occ. eigenvalues -- -105.19055 -21.09954 -21.09884 -15.79661 -11.40267
 Alpha  occ. eigenvalues --  -11.35841  -2.76760  -1.85147  -1.67742  -1.50867
 Alpha  occ. eigenvalues --   -1.48470  -1.45245  -1.13513  -1.02046  -0.87604
 Alpha  occ. eigenvalues --   -0.69493  -0.65478  -0.63015  -0.60790  -0.56386
 Alpha  occ. eigenvalues --   -0.50245  -0.49747  -0.48283  -0.46364  -0.32600
 Alpha  occ. eigenvalues --   -0.31430  -0.26391  -0.21636  -0.01736
 Alpha virt. eigenvalues --    0.04149   0.05225   0.05942   0.06159   0.06469
 Alpha virt. eigenvalues --    0.06978   0.07602   0.07852   0.10663   0.12002
 Alpha virt. eigenvalues --    0.13214   0.13776   0.15204   0.16113   0.16400

 Mulliken charges:
               1
     1  P    3.910598
     2  N    1.604015
     3  O   -2.024421
     4  O   -2.097741
     5  C   -4.052720
     6  C   -4.099639
     7  H    1.152110
     8  H    1.357879
     9  H    1.001565
    10  H    1.324524
    11  H    1.361745
    12  H    0.733691
    13  H    0.785329
    14  H   -0.956937
 Sum of Mulliken charges =   0.00000

 Dipole moment (field-independent basis, Debye):
    X=             -1.9284    Y=              0.3594    Z=              0.7186  Tot=              2.0891

 Test job not archived.
 1\1\GINC-SE368\SP\RHF\Aug-CC-pVDZ\C2H8N1O2P1\OHZDE\08-Apr-2025\0\\#t h
 f aug-cc-pvdz iop(5/13=1,5/36=2,99/5=2) pseudo=read geom=check guess=(
 read,tcheck) scf=(maxcycle=1)\\title\\0,1\P,0,0.14386,-0.995178,-0.232
 654\N,0,-0.955386,0.270328,0.353823\O,0,-1.143046,1.265635,-0.654321\O
 ,0,-2.218013,-0.384536,0.530494\C,0,1.644249,0.05782,-0.532768\C,0,2.3
 76473,0.439743,0.758737\H,0,2.682787,-0.446432,1.321325\H,0,1.73756,1.
 040339,1.410657\H,0,3.274138,1.024325,0.53915\H,0,1.35493,0.942171,-1.
 10313\H,0,2.293738,-0.547836,-1.175338\H,0,-1.234352,2.080958,-0.14585

 Normal termination of Gaussian 16 at Tue Apr  8 23:36:26 2025.
