 Gaussian 16, Revision C.01,

 ----------------------------------------------------------------------
 #t hf aug-cc-pvdz symm=none int=(grid=ultrafine) guess=(read,tcheck) s
 table=(opt,rrhf)
 ----------------------------------------------------------------------
 -----
 title
 -----
 Symbolic Z-matrix:
 Charge =  0 Multiplicity = 1

 SCF Done:  E(RHF) =  -464.881879484     A.U. after   13 cycles
 Normal termination of Gaussian 16 at Tue Apr  8 23:20:46 2025.
 Gaussian 16:  ES64L-G16RevC.01  3-Jul-2019

 ----------------------------------------------------------------------
 #t hf aug-cc-pvdz iop(5/13=1,5/36=2,99/5=2) pseudo=read geom=check gue
 ss=(read,tcheck) scf=(maxcycle=1)
 ----------------------------------------------------------------------
 -----
 title
 -----
 Structure from the checkpoint file:  "BDE49_nonexpt_1113_mol1.chk"
 Charge =  0 Multiplicity = 1

                         Standard orientation:
 ---------------------------------------------------------------------
 Center     Atomic      Atomic             Coordinates (Angstroms)
 Number     Number       Type             X           Y           Z
 ---------------------------------------------------------------------
      1          9           0       -1.506917   -0.348368    0.000056
      2          8           0       -0.513775    0.713300   -0.000036
      3         14           0        0.969456   -0.121830   -0.000013
      4          1           0        1.102463   -0.946836   -1.214393
      5          1           0        1.895094    1.028047   -0.000111
      6          1           0        1.102518   -0.946674    1.214470
 ---------------------------------------------------------------------

 SCF Done:  E(RHF) =  -465.679557910     A.U. after    2 cycles

 The electronic state is 1-A.
 Alpha  occ. eigenvalues --  -76.26869 -29.29949 -21.14535  -5.60434  -2.26020
 Alpha  occ. eigenvalues --   -2.22368  -2.22040  -1.74322  -0.79757  -0.68270
 Alpha  occ. eigenvalues --   -0.55037  -0.53270  -0.49118  -0.46375  -0.36707
 Alpha  occ. eigenvalues --   -0.25339  -0.23643
 Alpha virt. eigenvalues --    0.04087   0.05795   0.06189   0.07230   0.08995
 Alpha virt. eigenvalues --    0.09121   0.13979   0.15146   0.16591   0.17921
 Alpha virt. eigenvalues --    0.20493   0.21984   0.24368   0.25431   0.25863

 Mulliken charges:
               1
     1  F    0.012230
     2  O   -1.124742
     3  Si   5.811510
     4  H   -1.583123
     5  H   -1.532751
     6  H   -1.583124
 Sum of Mulliken charges =   0.00000

 Dipole moment (field-independent basis, Debye):
    X=             -0.5877    Y=             -1.0338    Z=              0.0001  Tot=              1.1892

 Test job not archived.
 1\1\GINC-SE029\SP\RHF\Aug-CC-pVDZ\F1H3O1Si1\OHZDE\08-Apr-2025\0\\#t hf
  aug-cc-pvdz iop(5/13=1,5/36=2,99/5=2) pseudo=read geom=check guess=(r
 ead,tcheck) scf=(maxcycle=1)\\title\\0,1\F,0,-1.506917,-0.348368,0.000
 056\O,0,-0.513775,0.7133,-0.000036\Si,0,0.969456,-0.12183,-0.000013\H,
 0,1.102463,-0.946836,-1.214393\H,0,1.895094,1.028047,-0.000111\H,0,1.1
 02518,-0.946674,1.21447\\Version=ES64L-G16RevC.01\State=1-A\HF=-465.67
 95579\RMSD=8.890e-02\Dipole=-0.2312222,-0.406745,0.0000334\Quadrupole=
 1.6586299,-1.1314886,-0.5271413,-0.0061389,-0.0000443,0.000039\PG=C01

 Normal termination of Gaussian 16 at Tue Apr  8 23:20:48 2025.
