 Gaussian 16, Revision C.01,

 ----------------------------------------------------------------------
 #t hf aug-cc-pvdz symm=none int=(grid=ultrafine) guess=(read,tcheck) s
 table=(opt,rrhf)
 ----------------------------------------------------------------------
 -----
 title
 -----
 Symbolic Z-matrix:
 Charge =  0 Multiplicity = 1

 SCF Done:  E(RHF) =  -1144.48342373     A.U. after   13 cycles

 1\1\GINC-SE460\Stability\RHF\Aug-CC-pVDZ\C2Cl2O2\OHZDE\08-Apr-2025\0\\
 #t hf aug-cc-pvdz symm=none int=(grid=ultrafine) guess=(read,tcheck) s
 table=(opt,rrhf)\\title\\0,1\C,0,-0.558179,-0.544434,0.000334\C,0,0.55
 8166,0.544419,0.000377\O,0,-0.365259,-1.706819,0.000731\O,0,0.365262,1
 .70681,0.000758\Cl,0,-2.176973,0.184037,-0.000406\Cl,0,2.176977,-0.184
 027,-0.000545\\Version=ES64L-G16RevC.01\HF=-1144.4834237\RMSD=2.947e-0
 9\Dipole=-0.000038,-0.0000069,-0.0002173\Quadrupole=1.8831075,-4.22442
 34,2.3413159,-1.1687343,-0.0000368,0.0000174\PG=Unknown\\@

 Normal termination of Gaussian 16 at Tue Apr  8 22:36:24 2025.
 Gaussian 16:  ES64L-G16RevC.01  3-Jul-2019

 ----------------------------------------------------------------------
 #t hf aug-cc-pvdz iop(5/13=1,5/36=2,99/5=2) pseudo=read geom=check gue
 ss=(read,tcheck) scf=(maxcycle=1)
 ----------------------------------------------------------------------
 -----
 title
 -----
 Structure from the checkpoint file:  "BDE49_expt_1103_mol1.chk"
 Charge =  0 Multiplicity = 1

                         Standard orientation:
 ---------------------------------------------------------------------
 Center     Atomic      Atomic             Coordinates (Angstroms)
 Number     Number       Type             X           Y           Z
 ---------------------------------------------------------------------
      1          6           0        0.558179    0.544434    0.000334
      2          6           0       -0.558166   -0.544419    0.000377
      3          8           0        0.365259    1.706819    0.000731
      4          8           0       -0.365262   -1.706810    0.000758
      5         17           0        2.176973   -0.184037   -0.000406
      6         17           0       -2.176977    0.184027   -0.000545
 ---------------------------------------------------------------------

 SCF Done:  E(RHF) =  -1145.88796240     A.U. after    2 cycles

 The electronic state is 1-A.
 Alpha  occ. eigenvalues --  -99.93766 -99.93757 -21.14962 -21.14930 -11.60332
 Alpha  occ. eigenvalues --  -11.57250 -10.51134 -10.51111  -9.71088  -9.70849
 Alpha  occ. eigenvalues --   -9.70197  -9.70177  -9.70086  -9.70034  -1.82063
 Alpha  occ. eigenvalues --   -1.78709  -1.36799  -1.35357  -1.03427  -0.83386
 Alpha  occ. eigenvalues --   -0.73020  -0.65725  -0.65060  -0.60257  -0.59650
 Alpha  occ. eigenvalues --   -0.56425  -0.52056  -0.49950  -0.47323  -0.43725
 Alpha  occ. eigenvalues --   -0.35855
 Alpha virt. eigenvalues --    0.03644   0.04914   0.04920   0.07066   0.08948
 Alpha virt. eigenvalues --    0.10087   0.10965   0.11491   0.11900   0.12817
 Alpha virt. eigenvalues --    0.13467   0.14385   0.16453   0.18542   0.18618

 Mulliken charges:
               1
     1  C    2.209875
     2  C    2.209911
     3  O   -2.351163
     4  O   -2.351173
     5  Cl   0.141281
     6  Cl   0.141269
 Sum of Mulliken charges =   0.00000

 Dipole moment (field-independent basis, Debye):
    X=              0.0001    Y=             -0.0000    Z=              0.0012  Tot=              0.0012

 Test job not archived.
 1\1\GINC-SE460\SP\RHF\Aug-CC-pVDZ\C2Cl2O2\OHZDE\08-Apr-2025\0\\#t hf a
 ug-cc-pvdz iop(5/13=1,5/36=2,99/5=2) pseudo=read geom=check guess=(rea
 d,tcheck) scf=(maxcycle=1)\\title\\0,1\C,0,-0.558179,-0.544434,0.00033
 4\C,0,0.558166,0.544419,0.000377\O,0,-0.365259,-1.706819,0.000731\O,0,
 0.365262,1.70681,0.000758\Cl,0,-2.176973,0.184037,-0.000406\Cl,0,2.176
 977,-0.184027,-0.000545\\Version=ES64L-G16RevC.01\State=1-A\HF=-1145.8
 879624\RMSD=1.088e-01\Dipole=-0.0000236,0.0000019,0.0004626\Quadrupole
 =-1.6606401,1.0191427,0.6414974,-0.406093,-0.0000252,0.0000195\PG=C01

 Normal termination of Gaussian 16 at Tue Apr  8 22:36:27 2025.
