 Gaussian 16, Revision C.01,

 ----------------------------------------------------------------------
 #t hf aug-cc-pvdz symm=none int=(grid=ultrafine) guess=(read,tcheck) s
 table=(opt,rrhf)
 ----------------------------------------------------------------------
 -----
 title
 -----
 Symbolic Z-matrix:
 Charge =  0 Multiplicity = 1

 SCF Done:  E(RHF) =  -391.075991473     A.U. after   14 cycles
 Normal termination of Gaussian 16 at Tue Apr  8 23:38:35 2025.
 Gaussian 16:  ES64L-G16RevC.01  3-Jul-2019

 ----------------------------------------------------------------------
 #t hf aug-cc-pvdz iop(5/13=1,5/36=2,99/5=2) pseudo=read geom=check gue
 ss=(read,tcheck) scf=(maxcycle=1)
 ----------------------------------------------------------------------
 -----
 title
 -----
 Structure from the checkpoint file:  "BDE49_nonexpt_154_mol1.chk"
 Charge =  0 Multiplicity = 1

                         Standard orientation:
 ---------------------------------------------------------------------
 Center     Atomic      Atomic             Coordinates (Angstroms)
 Number     Number       Type             X           Y           Z
 ---------------------------------------------------------------------
      1          5           0        3.163483   -0.715049    0.815049
      2          5           0        2.196986   -0.483099   -0.483767
      3          6           0        0.845428    0.325878   -0.434897
      4          8           0        0.787080    1.511879   -0.582674
      5          8           0       -0.265989   -0.500261   -0.272945
      6          6           0       -1.483371   -0.026321    0.248867
      7          8           0       -1.550936    0.878663    1.017724
      8          6           0       -2.613879   -0.866928   -0.273268
      9          1           0       -2.711594   -0.711059   -1.350762
     10          1           0       -3.537639   -0.585182    0.227725
     11          1           0       -2.400086   -1.925657   -0.114423
     12          1           0        3.983169    0.089903    1.138617
     13          1           0        3.097901   -1.714244    1.466512
     14          1           0        2.515591   -0.881048   -1.565128
 ---------------------------------------------------------------------

 SCF Done:  E(RHF) =  -392.725562832     A.U. after    2 cycles

 The electronic state is 1-A.
 Alpha  occ. eigenvalues --  -21.11309 -21.07392 -21.07158 -11.54519 -11.50000
 Alpha  occ. eigenvalues --  -11.40851  -7.62914  -7.61548  -1.87402  -1.72775
 Alpha  occ. eigenvalues --   -1.66221  -1.13061  -1.02011  -0.87987  -0.78286
 Alpha  occ. eigenvalues --   -0.68163  -0.63889  -0.63322  -0.60514  -0.58156
 Alpha  occ. eigenvalues --   -0.54519  -0.51679  -0.49957  -0.48359  -0.44085
 Alpha  occ. eigenvalues --   -0.40557  -0.33762  -0.32447  -0.27678
 Alpha virt. eigenvalues --    0.02203   0.02482   0.02661   0.03650   0.05671
 Alpha virt. eigenvalues --    0.06216   0.06454   0.06855   0.08448   0.08949
 Alpha virt. eigenvalues --    0.09785   0.10252   0.11263   0.11764   0.12591

 Mulliken charges:
               1
     1  B    4.616362
     2  B    3.703825
     3  C    2.778769
     4  O   -2.673597
     5  O   -3.020427
     6  C    5.159162
     7  O   -2.950298
     8  C   -4.263617
     9  H    1.303797
    10  H    1.217227
    11  H    1.344987
    12  H   -2.567040
    13  H   -2.237554
    14  H   -2.411596
 Sum of Mulliken charges =   0.00000

 Dipole moment (field-independent basis, Debye):
    X=             -0.4073    Y=             -1.4976    Z=             -0.4471  Tot=              1.6152

 Test job not archived.
 1\1\GINC-SE424\SP\RHF\Aug-CC-pVDZ\C3H6B2O3\OHZDE\08-Apr-2025\0\\#t hf
 aug-cc-pvdz iop(5/13=1,5/36=2,99/5=2) pseudo=read geom=check guess=(re
 ad,tcheck) scf=(maxcycle=1)\\title\\0,1\B,0,3.163483,-0.715049,0.81504
 9\B,0,2.196986,-0.483099,-0.483767\C,0,0.845428,0.325878,-0.434897\O,0
 ,0.78708,1.511879,-0.582674\O,0,-0.265989,-0.500261,-0.272945\C,0,-1.4
 83371,-0.026321,0.248867\O,0,-1.550936,0.878663,1.017724\C,0,-2.613879
 ,-0.866928,-0.273268\H,0,-2.711594,-0.711059,-1.350762\H,0,-3.537639,-
 0.585182,0.227725\H,0,-2.400086,-1.925657,-0.114423\H,0,3.983169,0.089

 Normal termination of Gaussian 16 at Tue Apr  8 23:38:41 2025.
