 Gaussian 16, Revision C.01,

 ----------------------------------------------------------------------
 #t hf aug-cc-pvdz symm=none int=(grid=ultrafine) guess=(read,tcheck) s
 table=(opt,rrhf)
 ----------------------------------------------------------------------
 -----
 title
 -----
 Symbolic Z-matrix:
 Charge =  0 Multiplicity = 1

 SCF Done:  E(RHF) =  -1255.31526504     A.U. after   17 cycles
 Normal termination of Gaussian 16 at Tue Apr  8 23:27:48 2025.
 Gaussian 16:  ES64L-G16RevC.01  3-Jul-2019

 ----------------------------------------------------------------------
 #t hf aug-cc-pvdz iop(5/13=1,5/36=2,99/5=2) pseudo=read geom=check gue
 ss=(read,tcheck) scf=(maxcycle=1)
 ----------------------------------------------------------------------
 -----
 title
 -----
 Structure from the checkpoint file:  "BDE49_nonexpt_1258_mol1.chk"
 Charge =  0 Multiplicity = 1

                         Standard orientation:
 ---------------------------------------------------------------------
 Center     Atomic      Atomic             Coordinates (Angstroms)
 Number     Number       Type             X           Y           Z
 ---------------------------------------------------------------------
      1         17           0       -3.034100   -0.000015   -0.681626
      2          8           0       -0.638099    2.488701    0.023197
      3          8           0       -0.638169   -2.488658    0.023152
      4         15           0       -1.599008    0.000029    0.833284
      5          6           0       -0.380049    1.328342    0.209565
      6          6           0        0.964185    0.700636    0.071076
      7          6           0        2.154844    1.411944   -0.082732
      8          6           0        3.340441    0.701323   -0.230636
      9          6           0        3.340434   -0.701365   -0.230622
     10          6           0        2.154830   -1.411970   -0.082697
     11          6           0        0.964180   -0.700647    0.071103
     12          6           0       -0.380053   -1.328338    0.209673
     13          1           0        2.134952    2.495012   -0.091370
     14          1           0        4.276115    1.234472   -0.354070
     15          1           0        4.276103   -1.234525   -0.354040
     16          1           0        2.134930   -2.495039   -0.091295
 ---------------------------------------------------------------------

 SCF Done:  E(RHF) =  -1257.74420146     A.U. after    2 cycles

 The electronic state is 1-A.
 Alpha  occ. eigenvalues -- -105.24435 -99.90713 -21.09242 -21.09229 -11.55806
 Alpha  occ. eigenvalues --  -11.52941 -11.51949 -11.48844 -11.47687 -11.45998
 Alpha  occ. eigenvalues --  -11.45267 -11.40852 -10.47956  -9.67829  -9.67165
 Alpha  occ. eigenvalues --   -9.67141  -2.83026  -1.74921  -1.73836  -1.55304
 Alpha  occ. eigenvalues --   -1.52036  -1.51735  -1.38616  -1.24039  -1.17469
 Alpha  occ. eigenvalues --   -1.14522  -0.95847  -0.95652  -0.84664  -0.78311
 Alpha  occ. eigenvalues --   -0.76343  -0.66974  -0.64653  -0.61744  -0.60244
 Alpha  occ. eigenvalues --   -0.58545  -0.56987  -0.54715  -0.54470  -0.50363
 Alpha  occ. eigenvalues --   -0.49720  -0.49566  -0.47948  -0.47256  -0.43952
 Alpha  occ. eigenvalues --   -0.36219  -0.35234  -0.31620  -0.16056  -0.05725
 Alpha virt. eigenvalues --    0.02654   0.04471   0.04708   0.05255   0.06164
 Alpha virt. eigenvalues --    0.07309   0.07746   0.08772   0.08989   0.09516
 Alpha virt. eigenvalues --    0.10605   0.10838   0.11752   0.12385   0.12501

 Mulliken charges:
               1
     1  Cl  -1.420821
     2  O   -3.625473
     3  O   -3.625147
     4  P    4.819544
     5  C   -0.306147
     6  C    2.419704
     7  C   -1.097918
     8  C   -2.425744
     9  C   -2.425744
    10  C   -1.097886
    11  C    2.420752
    12  C   -0.306496
    13  H    1.807001
    14  H    1.528688
    15  H    1.528688
    16  H    1.806999
 Sum of Mulliken charges =  -0.00000

 Dipole moment (field-independent basis, Debye):
    X=              1.9691    Y=             -0.0000    Z=              3.8293  Tot=              4.3059

 Test job not archived.
 1\1\GINC-SE334\SP\RHF\Aug-CC-pVDZ\C8H4Cl1O2P1\OHZDE\08-Apr-2025\0\\#t
 hf aug-cc-pvdz iop(5/13=1,5/36=2,99/5=2) pseudo=read geom=check guess=
 (read,tcheck) scf=(maxcycle=1)\\title\\0,1\Cl,0,-3.0341,-0.000015,-0.6
 81626\O,0,-0.638099,2.488701,0.023197\O,0,-0.638169,-2.488658,0.023152
 \P,0,-1.599008,0.000029,0.833284\C,0,-0.380049,1.328342,0.209565\C,0,0
 .964185,0.700636,0.071076\C,0,2.154844,1.411944,-0.082732\C,0,3.340441
 ,0.701323,-0.230636\C,0,3.340434,-0.701365,-0.230622\C,0,2.15483,-1.41
 197,-0.082697\C,0,0.96418,-0.700647,0.071103\C,0,-0.380053,-1.328338,0

 Normal termination of Gaussian 16 at Tue Apr  8 23:27:59 2025.
