 Gaussian 16, Revision C.01,

 ----------------------------------------------------------------------
 #t hf aug-cc-pvdz symm=none int=(grid=ultrafine) guess=(read,tcheck) s
 table=(opt,rrhf)
 ----------------------------------------------------------------------
 -----
 title
 -----
 Symbolic Z-matrix:
 Charge =  0 Multiplicity = 1

 SCF Done:  E(RHF) =  -316.481427577     A.U. after   11 cycles

 1\1\GINC-SE227\Stability\RHF\Aug-CC-pVDZ\B1H5Si1\OHZDE\09-Apr-2025\0\\
 #t hf aug-cc-pvdz symm=none int=(grid=ultrafine) guess=(read,tcheck) s
 table=(opt,rrhf)\\title\\0,1\H,0,-2.060018,1.01863,0.002473\H,0,-2.060
 017,-1.01863,0.002473\B,0,-1.441752,0.,-0.020345\Si,0,0.573087,0.,-0.0
 05001\H,0,0.966288,-0.000006,1.433142\H,0,1.169643,-1.204573,-0.633177
 \H,0,1.169644,1.204577,-0.633168\\Version=ES64L-G16RevC.01\HF=-316.481
 4276\RMSD=3.133e-09\Dipole=-0.1821113,0.0000004,-0.059215\Quadrupole=-
 0.7605792,-0.4112855,1.1718647,0.0000011,0.0980104,-0.0000001\PG=Unkno

 Normal termination of Gaussian 16 at Wed Apr  9 00:35:16 2025.
 Gaussian 16:  ES64L-G16RevC.01  3-Jul-2019

 ----------------------------------------------------------------------
 #t hf aug-cc-pvdz iop(5/13=1,5/36=2,99/5=2) pseudo=read geom=check gue
 ss=(read,tcheck) scf=(maxcycle=1)
 ----------------------------------------------------------------------
 -----
 title
 -----
 Structure from the checkpoint file:  "BDE49_nonexpt_459_mol1.chk"
 Charge =  0 Multiplicity = 1

                         Standard orientation:
 ---------------------------------------------------------------------
 Center     Atomic      Atomic             Coordinates (Angstroms)
 Number     Number       Type             X           Y           Z
 ---------------------------------------------------------------------
      1          1           0       -2.060018    1.018630    0.002473
      2          1           0       -2.060017   -1.018630    0.002473
      3          5           0       -1.441752    0.000000   -0.020345
      4         14           0        0.573087    0.000000   -0.005001
      5          1           0        0.966288   -0.000006    1.433142
      6          1           0        1.169643   -1.204573   -0.633177
      7          1           0        1.169644    1.204577   -0.633168
 ---------------------------------------------------------------------

 SCF Done:  E(RHF) =  -316.777915336     A.U. after    2 cycles

 The electronic state is 1-A.
 Alpha  occ. eigenvalues --  -76.20344  -7.62453  -5.53911  -2.16361  -2.15922
 Alpha  occ. eigenvalues --   -2.15830  -0.87647  -0.72199  -0.50276  -0.46722
 Alpha  occ. eigenvalues --   -0.45301  -0.37016
 Alpha virt. eigenvalues --    0.02404   0.03490   0.04195   0.04378   0.07895
 Alpha virt. eigenvalues --    0.08392   0.08773   0.08793   0.10399   0.10614
 Alpha virt. eigenvalues --    0.11342   0.12749   0.14496   0.16440   0.18628

 Mulliken charges:
               1
     1  H   -1.983525
     2  H   -1.983524
     3  B    2.321977
     4  Si   6.375645
     5  H   -1.502832
     6  H   -1.613870
     7  H   -1.613872
 Sum of Mulliken charges =  -0.00000

 Dipole moment (field-independent basis, Debye):
    X=             -0.6472    Y=              0.0000    Z=             -0.2031  Tot=              0.6784

 Test job not archived.
 1\1\GINC-SE227\SP\RHF\Aug-CC-pVDZ\B1H5Si1\OHZDE\09-Apr-2025\0\\#t hf a
 ug-cc-pvdz iop(5/13=1,5/36=2,99/5=2) pseudo=read geom=check guess=(rea
 d,tcheck) scf=(maxcycle=1)\\title\\0,1\H,0,-2.060018,1.01863,0.002473\
 H,0,-2.060017,-1.01863,0.002473\B,0,-1.441752,0.,-0.020345\Si,0,0.5730
 87,0.,-0.005001\H,0,0.966288,-0.000006,1.433142\H,0,1.169643,-1.204573
 ,-0.633177\H,0,1.169644,1.204577,-0.633168\\Version=ES64L-G16RevC.01\S
 tate=1-A\HF=-316.7779153\RMSD=1.149e-01\Dipole=-0.2546424,0.0000007,-0
 .0799016\Quadrupole=-0.8913292,-0.656389,1.5477182,0.000001,0.1497928,

 Normal termination of Gaussian 16 at Wed Apr  9 00:35:17 2025.
