 Gaussian 16, Revision C.01,

 ----------------------------------------------------------------------
 #t hf aug-cc-pvdz symm=none int=(grid=ultrafine) guess=(read,tcheck) s
 table=opt
 ----------------------------------------------------------------------
 -----
 title
 -----
 Symbolic Z-matrix:
 Charge =  0 Multiplicity = 2

 SCF Done:  E(UHF) =  -846.477256519     A.U. after   20 cycles
 Normal termination of Gaussian 16 at Wed Apr  9 00:26:09 2025.
 Gaussian 16:  ES64L-G16RevC.01  3-Jul-2019

 ----------------------------------------------------------------------
 #t hf aug-cc-pvdz iop(5/13=1,5/36=2,99/5=2) pseudo=read geom=check gue
 ss=(read,tcheck) scf=(maxcycle=1)
 ----------------------------------------------------------------------
 -----
 title
 -----
 Structure from the checkpoint file:  "BDE49_nonexpt_2727_mol2.chk"
 Charge =  0 Multiplicity = 2

                         Standard orientation:
 ---------------------------------------------------------------------
 Center     Atomic      Atomic             Coordinates (Angstroms)
 Number     Number       Type             X           Y           Z
 ---------------------------------------------------------------------
      1         16           0        1.950488   -0.470478    0.000093
      2          6           0        0.530157    0.563115   -0.000167
      3          8           0        0.639165    1.759234   -0.000036
      4          6           0       -0.856105   -0.129709   -0.000037
      5          9           0       -0.721118   -1.468289   -0.000066
      6          9           0       -1.548739    0.226007   -1.086719
      7          9           0       -1.548525    0.225985    1.086787
 ---------------------------------------------------------------------

 SCF Done:  E(UHF) =  -848.292491716     A.U. after    2 cycles

 The electronic state is 2-A.
 Alpha  occ. eigenvalues --  -75.77145 -29.34530 -29.34146 -29.34105 -21.11753
 Alpha  occ. eigenvalues --  -13.20105 -13.12624 -13.07952 -11.63275 -11.54506
 Alpha  occ. eigenvalues --   -8.10987  -1.77693  -1.44924  -1.21008  -0.93492
 Alpha  occ. eigenvalues --   -0.92083  -0.91572  -0.68502  -0.55980  -0.54622
 Alpha  occ. eigenvalues --   -0.51406  -0.47144  -0.46160  -0.42515  -0.39296
 Alpha  occ. eigenvalues --   -0.38777  -0.34203  -0.29695  -0.28726  -0.27893
 Alpha  occ. eigenvalues --   -0.26246  -0.24348
 Alpha virt. eigenvalues --    0.04817   0.09054   0.09788   0.10949   0.11693
 Alpha virt. eigenvalues --    0.12012   0.12359   0.13626   0.14442   0.15251
 Alpha virt. eigenvalues --    0.16112   0.19255   0.20278   0.22946   0.23498

  Beta  occ. eigenvalues --  -75.76101 -29.34488 -29.34141 -29.34100 -21.11695
  Beta  occ. eigenvalues --  -13.19560 -13.07261 -13.06385 -11.63269 -11.54588
  Beta  occ. eigenvalues --   -8.09816  -1.77523  -1.44803  -1.13818  -0.92078
  Beta  occ. eigenvalues --   -0.91914  -0.91071  -0.66625  -0.55390  -0.54630
  Beta  occ. eigenvalues --   -0.51006  -0.46752  -0.46144  -0.41242  -0.38697
  Beta  occ. eigenvalues --   -0.38654  -0.29107  -0.28735  -0.28284  -0.27100
  Beta  occ. eigenvalues --   -0.24331
  Beta virt. eigenvalues --    0.02476   0.05167   0.09235   0.09640   0.11169
  Beta virt. eigenvalues --    0.12138   0.12340   0.13232   0.14445   0.14631
  Beta virt. eigenvalues --    0.15748   0.16341   0.19408   0.20751   0.23088

 Mulliken charges and spin densities:
               1          2
     1  S    0.862750   1.106102
     2  C    0.137986  -0.045187
     3  O   -2.540302  -0.030597
     4  C   -0.339020  -0.015233
     5  F    0.850003  -0.024952
     6  F    0.514270   0.004935
     7  F    0.514313   0.004933
 Sum of Mulliken charges =  -0.00000   1.00000

 Dipole moment (field-independent basis, Debye):
    X=             -0.7731    Y=             -2.4069    Z=              0.0007  Tot=              2.5280
                          Isotropic Fermi Contact Couplings
        Atom                 a.u.       MegaHertz       Gauss      10(-4) cm-1
     1  S(33)              0.34002     116.78860      41.67308      38.95648
     2  C(13)             -0.01016     -11.42067      -4.07518      -3.80953
     3  O(17)              0.01418      -8.59620      -3.06734      -2.86738
     4  C(13)              0.00112       1.25376       0.44737       0.41821
     5  F(19)              0.01321      55.57647      19.83107      18.53831
     6  F(19)              0.00036       1.51485       0.54054       0.50530
     7  F(19)              0.00036       1.51376       0.54015       0.50494
 --------------------------------------------------------

 Normal termination of Gaussian 16 at Wed Apr  9 00:26:13 2025.
