 Gaussian 16, Revision C.01,

 ----------------------------------------------------------------------
 #t hf aug-cc-pvdz symm=none int=(grid=ultrafine) guess=(read,tcheck) s
 table=(opt,rrhf)
 ----------------------------------------------------------------------
 -----
 title
 -----
 Symbolic Z-matrix:
 Charge =  0 Multiplicity = 1

 SCF Done:  E(RHF) =  -629.683418004     A.U. after   14 cycles
 Normal termination of Gaussian 16 at Tue Apr  8 23:24:17 2025.
 Gaussian 16:  ES64L-G16RevC.01  3-Jul-2019

 ----------------------------------------------------------------------
 #t hf aug-cc-pvdz iop(5/13=1,5/36=2,99/5=2) pseudo=read geom=check gue
 ss=(read,tcheck) scf=(maxcycle=1)
 ----------------------------------------------------------------------
 -----
 title
 -----
 Structure from the checkpoint file:  "BDE49_nonexpt_1208_mol1.chk"
 Charge =  0 Multiplicity = 1

                         Standard orientation:
 ---------------------------------------------------------------------
 Center     Atomic      Atomic             Coordinates (Angstroms)
 Number     Number       Type             X           Y           Z
 ---------------------------------------------------------------------
      1          6           0        2.155480    1.301322   -0.248945
      2          6           0        1.768225    0.117678    0.632655
      3          1           0        2.723456    0.970069   -1.120839
      4          1           0        2.764133    2.017442    0.312110
      5          1           0        1.261326    1.815870   -0.605282
      6          6           0       -2.841169    0.701591   -0.056119
      7          6           0       -1.688051   -0.127578    0.477884
      8          1           0       -3.650108    0.737444    0.678922
      9          1           0       -3.229662    0.266833   -0.979423
     10          1           0       -2.518960    1.723826   -0.266187
     11         16           0        0.685218   -1.092974   -0.193993
     12          1           0        1.296523    0.444401    1.563057
     13          1           0        2.641766   -0.483463    0.910516
     14          8           0       -0.666171   -0.139091   -0.539599
     15          1           0       -2.001568   -1.154755    0.692101
     16          1           0       -1.287938    0.304564    1.402847
 ---------------------------------------------------------------------

 SCF Done:  E(RHF) =  -631.044794918     A.U. after    2 cycles

 The electronic state is 1-A.
 Alpha  occ. eigenvalues --  -75.70936 -21.05729 -13.18890 -13.11961 -13.06807
 Alpha  occ. eigenvalues --  -11.43475 -11.41877 -11.36606 -11.36406  -8.04632
 Alpha  occ. eigenvalues --   -1.74733  -1.20866  -1.12353  -1.00691  -0.88539
 Alpha  occ. eigenvalues --   -0.84038  -0.65011  -0.63691  -0.59757  -0.58346
 Alpha  occ. eigenvalues --   -0.54086  -0.52204  -0.51058  -0.49914  -0.47911
 Alpha  occ. eigenvalues --   -0.42785  -0.37413  -0.30440  -0.22183
 Alpha virt. eigenvalues --    0.03605   0.04324   0.05265   0.05769   0.06088
 Alpha virt. eigenvalues --    0.06230   0.06852   0.06997   0.08329   0.09341
 Alpha virt. eigenvalues --    0.09721   0.12020   0.12298   0.13202   0.14343

 Mulliken charges:
               1
     1  C   -3.526900
     2  C   -4.071877
     3  H    1.338310
     4  H    1.168110
     5  H    1.408865
     6  C   -3.570721
     7  C   -1.926681
     8  H    1.139248
     9  H    1.232755
    10  H    1.290011
    11  S    1.503955
    12  H    1.560860
    13  H    1.527020
    14  O   -2.299632
    15  H    1.585407
    16  H    1.641269
 Sum of Mulliken charges =   0.00000

 Dipole moment (field-independent basis, Debye):
    X=             -0.1689    Y=             -0.2160    Z=              0.3569  Tot=              0.4501

 Test job not archived.
 1\1\GINC-SE100\SP\RHF\Aug-CC-pVDZ\C4H10O1S1\OHZDE\08-Apr-2025\0\\#t hf
  aug-cc-pvdz iop(5/13=1,5/36=2,99/5=2) pseudo=read geom=check guess=(r
 ead,tcheck) scf=(maxcycle=1)\\title\\0,1\C,0,2.15548,1.301322,-0.24894
 5\C,0,1.768225,0.117678,0.632655\H,0,2.723456,0.970069,-1.120839\H,0,2
 .764133,2.017442,0.31211\H,0,1.261326,1.81587,-0.605282\C,0,-2.841169,
 0.701591,-0.056119\C,0,-1.688051,-0.127578,0.477884\H,0,-3.650108,0.73
 7444,0.678922\H,0,-3.229662,0.266833,-0.979423\H,0,-2.51896,1.723826,-
 0.266187\S,0,0.685218,-1.092974,-0.193993\H,0,1.296523,0.444401,1.5630

 Normal termination of Gaussian 16 at Tue Apr  8 23:24:22 2025.
