 Gaussian 16, Revision C.01,

 ----------------------------------------------------------------------
 #t hf aug-cc-pvdz symm=none int=(grid=ultrafine) guess=(read,tcheck) s
 table=(opt,rrhf)
 ----------------------------------------------------------------------
 -----
 title
 -----
 Symbolic Z-matrix:
 Charge =  0 Multiplicity = 1

 SCF Done:  E(RHF) =  -952.381903648     A.U. after   14 cycles

 1\1\GINC-SE334\Stability\RHF\Aug-CC-pVDZ\C4H10S2\OHZDE\08-Apr-2025\0\\
 #t hf aug-cc-pvdz symm=none int=(grid=ultrafine) guess=(read,tcheck) s
 table=(opt,rrhf)\\title\\0,1\C,0,1.334403,0.041162,0.444786\S,0,0.0625
 05,-0.606119,-0.752942\S,0,-1.647876,0.504858,-0.36028\C,0,-2.474351,-
 0.448262,0.967027\H,0,-3.423706,0.060361,1.152664\H,0,-1.882243,-0.447
 577,1.881542\H,0,-2.667103,-1.46839,0.638319\C,0,1.681571,1.503082,0.1
 84946\H,0,2.125655,1.625789,-0.806572\H,0,2.401626,1.85671,0.930981\H,
 0,0.795187,2.137034,0.244923\C,0,2.546798,-0.88526,0.315042\H,0,0.9011

 Normal termination of Gaussian 16 at Tue Apr  8 22:47:58 2025.
 Gaussian 16:  ES64L-G16RevC.01  3-Jul-2019

 ----------------------------------------------------------------------
 #t hf aug-cc-pvdz iop(5/13=1,5/36=2,99/5=2) pseudo=read geom=check gue
 ss=(read,tcheck) scf=(maxcycle=1)
 ----------------------------------------------------------------------
 -----
 title
 -----
 Structure from the checkpoint file:  "BDE49_expt_1593_mol1.chk"
 Charge =  0 Multiplicity = 1

                         Standard orientation:
 ---------------------------------------------------------------------
 Center     Atomic      Atomic             Coordinates (Angstroms)
 Number     Number       Type             X           Y           Z
 ---------------------------------------------------------------------
      1          6           0        1.334403    0.041162    0.444786
      2         16           0        0.062505   -0.606119   -0.752942
      3         16           0       -1.647876    0.504858   -0.360280
      4          6           0       -2.474351   -0.448262    0.967027
      5          1           0       -3.423706    0.060361    1.152664
      6          1           0       -1.882243   -0.447577    1.881542
      7          1           0       -2.667103   -1.468390    0.638319
      8          6           0        1.681571    1.503082    0.184946
      9          1           0        2.125655    1.625789   -0.806572
     10          1           0        2.401626    1.856710    0.930981
     11          1           0        0.795187    2.137034    0.244923
     12          6           0        2.546798   -0.885260    0.315042
     13          1           0        0.901176   -0.069615    1.441853
     14          1           0        2.966481   -0.845965   -0.694487
     15          1           0        2.290055   -1.923020    0.539052
     16          1           0        3.328287   -0.569473    1.012472
 ---------------------------------------------------------------------

 SCF Done:  E(RHF) =  -953.668507042     A.U. after    2 cycles

 The electronic state is 1-A.
 Alpha  occ. eigenvalues --  -75.69660 -75.69194 -13.14552 -13.11332 -13.09253
 Alpha  occ. eigenvalues --  -13.07732 -13.04919 -13.03724 -11.43152 -11.39719
 Alpha  occ. eigenvalues --  -11.38906 -11.36238  -8.03529  -8.03100  -1.28759
 Alpha  occ. eigenvalues --   -1.18621  -1.04364  -1.01015  -0.90652  -0.81015
 Alpha  occ. eigenvalues --   -0.63875  -0.60336  -0.58966  -0.58514  -0.57085
 Alpha  occ. eigenvalues --   -0.54170  -0.48680  -0.47403  -0.44776  -0.39417
 Alpha  occ. eigenvalues --   -0.33223  -0.24336  -0.23029
 Alpha virt. eigenvalues --    0.02997   0.03489   0.04494   0.05737   0.06300
 Alpha virt. eigenvalues --    0.06336   0.07078   0.07330   0.08211   0.08488
 Alpha virt. eigenvalues --    0.09684   0.10146   0.12713   0.13089   0.14103

 Mulliken charges:
               1
     1  C   -2.149327
     2  S    0.069698
     3  S    0.120515
     4  C   -4.611371
     5  H    1.417628
     6  H    1.506541
     7  H    1.506027
     8  C   -3.814232
     9  H    1.387621
    10  H    1.234670
    11  H    1.362315
    12  C   -3.725617
    13  H    1.800030
    14  H    1.345577
    15  H    1.322396
    16  H    1.227529
 Sum of Mulliken charges =   0.00000

 Dipole moment (field-independent basis, Debye):
    X=              0.1763    Y=              0.0425    Z=             -0.2072  Tot=              0.2753

 Test job not archived.
 1\1\GINC-SE334\SP\RHF\Aug-CC-pVDZ\C4H10S2\OHZDE\08-Apr-2025\0\\#t hf a
 ug-cc-pvdz iop(5/13=1,5/36=2,99/5=2) pseudo=read geom=check guess=(rea
 d,tcheck) scf=(maxcycle=1)\\title\\0,1\C,0,1.334403,0.041162,0.444786\
 S,0,0.062505,-0.606119,-0.752942\S,0,-1.647876,0.504858,-0.36028\C,0,-
 2.474351,-0.448262,0.967027\H,0,-3.423706,0.060361,1.152664\H,0,-1.882
 243,-0.447577,1.881542\H,0,-2.667103,-1.46839,0.638319\C,0,1.681571,1.
 503082,0.184946\H,0,2.125655,1.625789,-0.806572\H,0,2.401626,1.85671,0
 .930981\H,0,0.795187,2.137034,0.244923\C,0,2.546798,-0.88526,0.315042\

 Normal termination of Gaussian 16 at Tue Apr  8 22:48:03 2025.
