 Gaussian 16, Revision C.01,

 ----------------------------------------------------------------------
 #t hf aug-cc-pvdz symm=none int=(grid=ultrafine) guess=(read,tcheck) s
 table=(opt,rrhf)
 ----------------------------------------------------------------------
 -----
 title
 -----
 Symbolic Z-matrix:
 Charge =  0 Multiplicity = 1

 SCF Done:  E(RHF) =  -600.430066621     A.U. after   12 cycles
 Normal termination of Gaussian 16 at Wed Apr  9 00:09:52 2025.
 Gaussian 16:  ES64L-G16RevC.01  3-Jul-2019

 ----------------------------------------------------------------------
 #t hf aug-cc-pvdz iop(5/13=1,5/36=2,99/5=2) pseudo=read geom=check gue
 ss=(read,tcheck) scf=(maxcycle=1)
 ----------------------------------------------------------------------
 -----
 title
 -----
 Structure from the checkpoint file:  "BDE49_nonexpt_2288_mol1.chk"
 Charge =  0 Multiplicity = 1

                         Standard orientation:
 ---------------------------------------------------------------------
 Center     Atomic      Atomic             Coordinates (Angstroms)
 Number     Number       Type             X           Y           Z
 ---------------------------------------------------------------------
      1         14           0        1.083794   -0.000001    0.013876
      2          8           0       -0.481500   -0.000008    0.570310
      3          6           0        1.417001    1.531381   -1.025962
      4          6           0        1.417010   -1.531374   -1.025972
      5          1           0        2.452483   -1.540826   -1.382024
      6          1           0        0.769697   -1.574893   -1.907618
      7          1           0        1.255424   -2.445536   -0.447180
      8          6           0        2.145279   -0.000002    1.553835
      9          1           0        3.210131    0.000015    1.300441
     10          1           0        1.944679   -0.883687    2.165952
     11          1           0        1.944654    0.883665    2.165970
     12          6           0       -1.686757   -0.000002   -0.203473
     13          1           0        0.769690    1.574901   -1.907609
     14          1           0        2.452475    1.540841   -1.382012
     15          1           0        1.255409    2.445539   -0.447165
     16          6           0       -2.473198   -1.269015    0.114627
     17          1           0       -1.888190   -2.157633   -0.132758
     18          1           0       -3.408558   -1.302194   -0.451791
     19          1           0       -2.709972   -1.302310    1.181451
     20          6           0       -2.473187    1.269020    0.114626
     21          1           0       -1.439243   -0.000004   -1.275374
     22          1           0       -2.709961    1.302317    1.181449
     23          1           0       -3.408546    1.302206   -0.451792
     24          1           0       -1.888171    2.157632   -0.132760
 ---------------------------------------------------------------------

 SCF Done:  E(RHF) =  -602.151818310     A.U. after    2 cycles

 The electronic state is 1-A.
 Alpha  occ. eigenvalues --  -76.19589 -21.01667 -11.44313 -11.38711 -11.35322
 Alpha  occ. eigenvalues --  -11.34010 -11.33795 -11.33651  -5.53947  -2.20860
 Alpha  occ. eigenvalues --   -2.17306  -2.17049  -1.68454  -1.16078  -1.06177
 Alpha  occ. eigenvalues --   -1.00666  -1.00338  -1.00226  -0.82499  -0.68193
 Alpha  occ. eigenvalues --   -0.61350  -0.58199  -0.57882  -0.56095  -0.55779
 Alpha  occ. eigenvalues --   -0.55497  -0.53970  -0.53883  -0.53264  -0.52704
 Alpha  occ. eigenvalues --   -0.48661  -0.47494  -0.44937  -0.40509  -0.39281
 Alpha  occ. eigenvalues --   -0.33635  -0.31702
 Alpha virt. eigenvalues --    0.03269   0.05133   0.05331   0.05430   0.05596
 Alpha virt. eigenvalues --    0.05738   0.06032   0.06158   0.06402   0.07714
 Alpha virt. eigenvalues --    0.07749   0.08430   0.08648   0.08714   0.09109

 Mulliken charges:
               1
     1  Si  11.625676
     2  O   -4.676222
     3  C   -6.244529
     4  C   -6.244526
     5  H    1.111129
     6  H    1.038872
     7  H    1.162308
     8  C   -6.163858
     9  H    1.122853
    10  H    1.101552
    11  H    1.101545
    12  C   -0.193234
    13  H    1.038871
    14  H    1.111131
    15  H    1.162308
    16  C   -3.990250
    17  H    1.391791
    18  H    1.185739
    19  H    1.329399
    20  C   -3.990255
    21  H    2.112768
    22  H    1.329401
    23  H    1.185738
    24  H    1.391793
 Sum of Mulliken charges =  -0.00000

 Dipole moment (field-independent basis, Debye):
    X=             -0.1315    Y=              0.0000    Z=             -0.1938  Tot=              0.2342

 Test job not archived.
 1\1\GINC-SE332\SP\RHF\Aug-CC-pVDZ\C6H16O1Si1\OHZDE\09-Apr-2025\0\\#t h
 f aug-cc-pvdz iop(5/13=1,5/36=2,99/5=2) pseudo=read geom=check guess=(
 read,tcheck) scf=(maxcycle=1)\\title\\0,1\Si,0,1.083794,-0.000001,0.01
 3876\O,0,-0.4815,-0.000008,0.57031\C,0,1.417001,1.531381,-1.025962\C,0
 ,1.41701,-1.531374,-1.025972\H,0,2.452483,-1.540826,-1.382024\H,0,0.76
 9697,-1.574893,-1.907618\H,0,1.255424,-2.445536,-0.44718\C,0,2.145279,
 -0.000002,1.553835\H,0,3.210131,0.000015,1.300441\H,0,1.944679,-0.8836
 87,2.165952\H,0,1.944654,0.883665,2.16597\C,0,-1.686757,-0.000002,-0.2

 Normal termination of Gaussian 16 at Wed Apr  9 00:10:27 2025.
