 Gaussian 16, Revision C.01,

 ----------------------------------------------------------------------
 #t hf aug-cc-pvdz symm=none int=(grid=ultrafine) guess=(read,tcheck) s
 table=opt
 ----------------------------------------------------------------------
 -----
 title
 -----
 Symbolic Z-matrix:
 Charge =  0 Multiplicity = 2

 SCF Done:  E(UHF) =  -1914.28714310     A.U. after   18 cycles

 1\1\GINC-SE226\Stability\UHF\Aug-CC-pVDZ\C2H1Cl4\OHZDE\08-Apr-2025\0\\
 #t hf aug-cc-pvdz symm=none int=(grid=ultrafine) guess=(read,tcheck) s
 table=opt\\title\\0,2\C,0,-0.621319,-0.362818,-0.486471\C,0,0.72307,0.
 173783,-0.20116\H,0,-0.588302,-1.010144,-1.35576\Cl,0,-1.805489,0.9392
 7,-0.839527\Cl,0,-1.24568,-1.419107,0.877278\Cl,0,0.972737,1.348682,1.
 011013\Cl,0,2.077126,-0.742706,-0.72632\\Version=ES64L-G16RevC.01\HF=-
 1914.2871431\S2=0.772999\S2-1=0.\S2A=0.750455\RMSD=8.653e-09\Dipole=0.
 2436313,-0.1273886,-0.4238088\Quadrupole=-1.1089513,0.1522119,0.956739

 Normal termination of Gaussian 16 at Tue Apr  8 22:41:41 2025.
 Gaussian 16:  ES64L-G16RevC.01  3-Jul-2019

 ----------------------------------------------------------------------
 #t hf aug-cc-pvdz iop(5/13=1,5/36=2,99/5=2) pseudo=read geom=check gue
 ss=(read,tcheck) scf=(maxcycle=1)
 ----------------------------------------------------------------------
 -----
 title
 -----
 Structure from the checkpoint file:  "BDE49_expt_132_mol2.chk"
 Charge =  0 Multiplicity = 2

                         Standard orientation:
 ---------------------------------------------------------------------
 Center     Atomic      Atomic             Coordinates (Angstroms)
 Number     Number       Type             X           Y           Z
 ---------------------------------------------------------------------
      1          6           0        0.621319    0.362818   -0.486471
      2          6           0       -0.723070   -0.173783   -0.201160
      3          1           0        0.588302    1.010144   -1.355760
      4         17           0        1.805489   -0.939270   -0.839527
      5         17           0        1.245680    1.419107    0.877278
      6         17           0       -0.972737   -1.348682    1.011013
      7         17           0       -2.077126    0.742706   -0.726320
 ---------------------------------------------------------------------

 SCF Done:  E(UHF) =  -1915.60945919     A.U. after    2 cycles

 The electronic state is 2-A.
 Alpha  occ. eigenvalues --  -99.93783 -99.93234 -99.91740 -99.91159 -11.54369
 Alpha  occ. eigenvalues --  -11.50129 -10.51241 -10.50690 -10.49052 -10.48372
 Alpha  occ. eigenvalues --   -9.70949  -9.70437  -9.70276  -9.70178  -9.69750
 Alpha  occ. eigenvalues --   -9.69672  -9.68978  -9.68460  -9.68120  -9.68053
 Alpha  occ. eigenvalues --   -9.67471  -9.67428  -1.48472  -1.37511  -1.32959
 Alpha  occ. eigenvalues --   -1.30071  -1.10614  -0.91788  -0.75518  -0.72237
 Alpha  occ. eigenvalues --   -0.71691  -0.64347  -0.62031  -0.57539  -0.56630
 Alpha  occ. eigenvalues --   -0.53889  -0.52540  -0.52037  -0.50592  -0.50320
 Alpha  occ. eigenvalues --   -0.39152
 Alpha virt. eigenvalues --    0.01818   0.02561   0.03829   0.07087   0.07548
 Alpha virt. eigenvalues --    0.07739   0.09308   0.11272   0.12663   0.13006
 Alpha virt. eigenvalues --    0.13381   0.13423   0.14542   0.15558   0.16570

  Beta  occ. eigenvalues --  -99.93758 -99.93208 -99.91702 -99.91020 -11.54143
  Beta  occ. eigenvalues --  -11.48019 -10.51212 -10.50661 -10.49010 -10.48225
  Beta  occ. eigenvalues --   -9.71255  -9.70719  -9.70175  -9.69864  -9.69654
  Beta  occ. eigenvalues --   -9.69353  -9.68830  -9.68102  -9.68051  -9.67845
  Beta  occ. eigenvalues --   -9.67372  -9.67350  -1.46470  -1.36932  -1.32707
  Beta  occ. eigenvalues --   -1.29238  -1.07978  -0.88118  -0.74762  -0.70958
  Beta  occ. eigenvalues --   -0.67212  -0.63778  -0.59177  -0.57259  -0.54811
  Beta  occ. eigenvalues --   -0.53335  -0.52247  -0.51417  -0.50442  -0.49764
  Beta virt. eigenvalues --   -0.00573   0.02462   0.03890   0.04182   0.07470
  Beta virt. eigenvalues --    0.07696   0.08369   0.09431   0.11694   0.12704
  Beta virt. eigenvalues --    0.13327   0.13413   0.13828   0.14979   0.15706

 Mulliken charges and spin densities:
               1          2
     1  C   -2.882940  -0.349585
     2  C    0.204808   1.295975
     3  H    1.974324  -0.001400
     4  Cl   0.327603   0.012987
     5  Cl   0.292558   0.097057
     6  Cl   0.167036  -0.024464
     7  Cl  -0.083389  -0.030571
 Sum of Mulliken charges =   0.00000   1.00000

 Dipole moment (field-independent basis, Debye):
    X=             -0.6336    Y=              0.2071    Z=             -1.0197  Tot=              1.2183
                          Isotropic Fermi Contact Couplings
        Atom                 a.u.       MegaHertz       Gauss      10(-4) cm-1
     1  C(13)             -0.03238     -36.40028     -12.98853     -12.14183
     2  C(13)              0.20870     234.61519      83.71653      78.25920
     3  H(1)               0.00227      10.13104       3.61501       3.37935
     4  Cl(35)             0.01719       7.53872       2.69000       2.51465
     5  Cl(35)             0.04076      17.87042       6.37661       5.96093
     6  Cl(35)             0.04272      18.73219       6.68411       6.24839
     7  Cl(35)             0.04346      19.05454       6.79913       6.35591
 --------------------------------------------------------

 Normal termination of Gaussian 16 at Tue Apr  8 22:41:44 2025.
