 Gaussian 16, Revision C.01,

 ----------------------------------------------------------------------
 #t hf aug-cc-pvdz symm=none int=(grid=ultrafine) guess=(read,tcheck) s
 table=(opt,rrhf)
 ----------------------------------------------------------------------
 -----
 title
 -----
 Symbolic Z-matrix:
 Charge =  0 Multiplicity = 1

 SCF Done:  E(RHF) =  -887.804913596     A.U. after   15 cycles
 Normal termination of Gaussian 16 at Tue Apr  8 23:28:13 2025.
 Gaussian 16:  ES64L-G16RevC.01  3-Jul-2019

 ----------------------------------------------------------------------
 #t hf aug-cc-pvdz iop(5/13=1,5/36=2,99/5=2) pseudo=read geom=check gue
 ss=(read,tcheck) scf=(maxcycle=1)
 ----------------------------------------------------------------------
 -----
 title
 -----
 Structure from the checkpoint file:  "BDE49_nonexpt_1284_mol1.chk"
 Charge =  0 Multiplicity = 1

                         Standard orientation:
 ---------------------------------------------------------------------
 Center     Atomic      Atomic             Coordinates (Angstroms)
 Number     Number       Type             X           Y           Z
 ---------------------------------------------------------------------
      1          6           0        0.457760    0.245507   -0.434156
      2          7           0        1.080419   -1.081666   -0.035392
      3         15           0       -1.350550    0.261435   -0.080369
      4          8           0        0.868535   -1.485704    1.110225
      5          8           0        1.776794   -1.646930   -0.850444
      6          8           0       -2.025826    1.480040   -0.524383
      7          8           0       -1.469287   -0.019293    1.478975
      8          1           0        0.587759    0.297487   -1.514574
      9          6           0        1.185277    1.398774    0.276167
     10          6           0        2.664890    1.516326   -0.096470
     11          1           0        1.066121    1.278379    1.355572
     12          1           0        0.647313    2.309465   -0.000408
     13          1           0        3.235018    0.635685    0.209188
     14          1           0        3.106028    2.383670    0.399155
     15          1           0        2.795175    1.642962   -1.174439
     16          8           0       -1.785155   -1.091501   -0.826463
     17          1           0       -2.689535   -1.064756   -1.162960
     18          1           0       -0.820618   -0.689285    1.765225
 ---------------------------------------------------------------------

 SCF Done:  E(RHF) =  -890.379757790     A.U. after    2 cycles

 The electronic state is 1-A.
 Alpha  occ. eigenvalues -- -105.32527 -21.13334 -21.13143 -21.12141 -21.11499
 Alpha  occ. eigenvalues --  -21.04014 -16.01921 -11.50995 -11.44149 -11.39336
 Alpha  occ. eigenvalues --   -2.95174  -2.02400  -2.00143  -1.93802  -1.81126
 Alpha  occ. eigenvalues --   -1.72014  -1.57734  -1.41386  -1.28650  -1.25072
 Alpha  occ. eigenvalues --   -1.11261  -0.95228  -0.84144  -0.75198  -0.72454
 Alpha  occ. eigenvalues --   -0.70691  -0.64207  -0.62128  -0.61059  -0.58994
 Alpha  occ. eigenvalues --   -0.58349  -0.53098  -0.52320  -0.51195  -0.47488
 Alpha  occ. eigenvalues --   -0.41252  -0.39926  -0.36751  -0.35803  -0.34473
 Alpha  occ. eigenvalues --   -0.34082  -0.29865  -0.27380  -0.17066
 Alpha virt. eigenvalues --    0.03384   0.04917   0.05087   0.05996   0.06341
 Alpha virt. eigenvalues --    0.07030   0.07405   0.08040   0.09768   0.10791
 Alpha virt. eigenvalues --    0.11595   0.12280   0.13104   0.13495   0.14419

 Mulliken charges:
               1
     1  C   -4.876763
     2  N    4.625666
     3  P    9.907447
     4  O   -2.775126
     5  O   -2.786973
     6  O   -2.987043
     7  O   -3.092169
     8  H    2.034869
     9  C   -1.780968
    10  C   -3.980529
    11  H    1.522218
    12  H    1.364645
    13  H    1.375880
    14  H    1.086117
    15  H    1.207290
    16  O   -2.936525
    17  H    1.003820
    18  H    1.088143
 Sum of Mulliken charges =  -0.00000

 Dipole moment (field-independent basis, Debye):
    X=              0.9492    Y=             -0.8884    Z=              0.1683  Tot=              1.3109

 Test job not archived.
 1\1\GINC-SE343\SP\RHF\Aug-CC-pVDZ\C3H8N1O5P1\OHZDE\08-Apr-2025\0\\#t h
 f aug-cc-pvdz iop(5/13=1,5/36=2,99/5=2) pseudo=read geom=check guess=(
 read,tcheck) scf=(maxcycle=1)\\title\\0,1\C,0,0.45776,0.245507,-0.4341
 56\N,0,1.080419,-1.081666,-0.035392\P,0,-1.35055,0.261435,-0.080369\O,
 0,0.868535,-1.485704,1.110225\O,0,1.776794,-1.64693,-0.850444\O,0,-2.0
 25826,1.48004,-0.524383\O,0,-1.469287,-0.019293,1.478975\H,0,0.587759,
 0.297487,-1.514574\C,0,1.185277,1.398774,0.276167\C,0,2.66489,1.516326
 ,-0.09647\H,0,1.066121,1.278379,1.355572\H,0,0.647313,2.309465,-0.0004

 Normal termination of Gaussian 16 at Tue Apr  8 23:28:21 2025.
