 Gaussian 16, Revision C.01,

 ----------------------------------------------------------------------
 #t hf aug-cc-pvdz symm=none int=(grid=ultrafine) guess=(read,tcheck) s
 table=opt
 ----------------------------------------------------------------------
 -----
 title
 -----
 Symbolic Z-matrix:
 Charge =  0 Multiplicity = 2

 SCF Done:  E(UHF) =  -514.390471065     A.U. after   18 cycles
 Normal termination of Gaussian 16 at Tue Apr  8 23:08:39 2025.
 Gaussian 16:  ES64L-G16RevC.01  3-Jul-2019

 ----------------------------------------------------------------------
 #t hf aug-cc-pvdz iop(5/13=1,5/36=2,99/5=2) pseudo=read geom=check gue
 ss=(read,tcheck) scf=(maxcycle=1)
 ----------------------------------------------------------------------
 -----
 title
 -----
 Structure from the checkpoint file:  "BDE49_expt_350_mol2.chk"
 Charge =  0 Multiplicity = 2

                         Standard orientation:
 ---------------------------------------------------------------------
 Center     Atomic      Atomic             Coordinates (Angstroms)
 Number     Number       Type             X           Y           Z
 ---------------------------------------------------------------------
      1          6           0        0.207444    1.847315    0.726945
      2          6           0       -0.225232    0.581385    1.492674
      3          7           0        0.051499   -0.670541    0.805618
      4          1           0       -1.295999    0.626848    1.691434
      5          1           0        0.272814    0.579932    2.470788
      6          8           0       -0.115956    1.800647   -0.655807
      7          1           0        1.291155    1.967306    0.775277
      8          1           0       -0.250593    2.718931    1.214957
      9          1           0       -1.002549    1.406355   -0.770695
     10          6           0       -0.940529   -1.407946    0.185714
     11          6           0        1.430452   -1.138497    0.699363
     12          6           0        2.060755   -0.961084   -0.691788
     13          1           0        2.033302   -0.600413    1.435097
     14          1           0        1.461256   -2.205013    0.963334
     15          8           0        2.268151    0.383826   -1.062096
     16          1           0        1.444132   -1.494085   -1.430839
     17          1           0        3.044227   -1.441451   -0.680221
     18          1           0        1.402117    0.817438   -1.168448
     19          6           0       -2.300088   -0.904444   -0.076628
     20          1           0       -0.613345   -2.334881   -0.264608
     21          8           0       -2.376921    0.181138   -1.078958
     22          1           0       -2.787089   -0.455438    0.792658
     23          1           0       -2.930698   -1.733340   -0.408869
     24          1           0       -2.028226   -0.183655   -1.901994
 ---------------------------------------------------------------------

 SCF Done:  E(UHF) =  -516.740953623     A.U. after    2 cycles

 The electronic state is 2-A.
 Alpha  occ. eigenvalues --  -21.08175 -21.05417 -21.03909 -15.73601 -11.46847
 Alpha  occ. eigenvalues --  -11.45514 -11.45004 -11.39416 -11.39271 -11.38344
 Alpha  occ. eigenvalues --   -1.72024  -1.70372  -1.68510  -1.45159  -1.12420
 Alpha  occ. eigenvalues --   -1.12356  -1.01686  -0.90302  -0.89011  -0.78889
 Alpha  occ. eigenvalues --   -0.69929  -0.67725  -0.66451  -0.64516  -0.62775
 Alpha  occ. eigenvalues --   -0.60198  -0.58763  -0.57048  -0.55854  -0.52833
 Alpha  occ. eigenvalues --   -0.50548  -0.49851  -0.48730  -0.45438  -0.42150
 Alpha  occ. eigenvalues --   -0.41331  -0.38433  -0.33085  -0.30854  -0.29820
 Alpha  occ. eigenvalues --   -0.21093
 Alpha virt. eigenvalues --    0.03865   0.04512   0.04844   0.04949   0.05126
 Alpha virt. eigenvalues --    0.05828   0.06093   0.06787   0.07409   0.07860
 Alpha virt. eigenvalues --    0.08464   0.08886   0.09383   0.10826   0.11800

  Beta  occ. eigenvalues --  -21.07797 -21.05423 -21.03913 -15.72675 -11.46651
  Beta  occ. eigenvalues --  -11.45540 -11.45033 -11.39408 -11.38600 -11.37696
  Beta  occ. eigenvalues --   -1.71654  -1.69972  -1.68480  -1.42979  -1.12325
  Beta  occ. eigenvalues --   -1.09497  -1.01075  -0.89682  -0.88439  -0.76900
  Beta  occ. eigenvalues --   -0.69410  -0.67338  -0.64658  -0.64297  -0.62535
  Beta  occ. eigenvalues --   -0.59939  -0.58353  -0.55668  -0.54634  -0.52644
  Beta  occ. eigenvalues --   -0.50364  -0.49435  -0.48014  -0.43305  -0.41095
  Beta  occ. eigenvalues --   -0.39993  -0.34928  -0.32317  -0.30618  -0.29060
  Beta virt. eigenvalues --    0.03931   0.04527   0.04722   0.04949   0.05148
  Beta virt. eigenvalues --    0.05658   0.06100   0.06701   0.07404   0.07849
  Beta virt. eigenvalues --    0.08451   0.08881   0.09359   0.10688   0.11440

 Mulliken charges and spin densities:
               1          2
     1  C   -0.852227   0.010462
     2  C   -2.957947  -0.051103
     3  N   -2.612880   0.172353
     4  H    1.874970   0.010466
     5  H    1.363161  -0.002112
     6  O   -3.064179   0.012804
     7  H    1.730928   0.007591
     8  H    1.087883   0.000498
     9  H    1.429428  -0.001241
    10  C   -0.095790   1.242281
    11  C   -3.235763  -0.072202
    12  C   -0.511303   0.021339
    13  H    1.667068   0.006608
    14  H    1.489511  -0.002500
    15  O   -2.997460  -0.000634
    16  H    1.515827   0.003058
    17  H    1.276400  -0.002431
    18  H    1.341854   0.002949
    19  C   -1.281312  -0.382971
    20  H    1.852110  -0.009528
    21  O   -2.274784   0.040188
    22  H    1.403612  -0.000089
    23  H    1.114476   0.003173
    24  H    0.736418  -0.008960
 Sum of Mulliken charges =  -0.00000   1.00000

 Dipole moment (field-independent basis, Debye):
    X=             -0.8301    Y=             -0.7217    Z=              0.9620  Tot=              1.4613
                          Isotropic Fermi Contact Couplings
        Atom                 a.u.       MegaHertz       Gauss      10(-4) cm-1
     1  C(13)              0.01373      15.42994       5.50579       5.14687
     2  C(13)             -0.00992     -11.15516      -3.98044      -3.72096
     3  N(14)              0.06991      22.58892       8.06029       7.53485
     4  H(1)               0.00046       2.05688       0.73395       0.68610
     5  H(1)               0.00207       9.26065       3.30443       3.08902
     6  O(17)             -0.00125       0.75941       0.27098       0.25331
     7  H(1)              -0.00018      -0.79124      -0.28233      -0.26393
     8  H(1)               0.00009       0.39867       0.14225       0.13298

 Normal termination of Gaussian 16 at Tue Apr  8 23:08:53 2025.
