 Gaussian 16, Revision C.01,

 ----------------------------------------------------------------------
 #t hf aug-cc-pvdz symm=none int=(grid=ultrafine) guess=(read,tcheck) s
 table=(opt,rrhf)
 ----------------------------------------------------------------------
 -----
 title
 -----
 Symbolic Z-matrix:
 Charge =  0 Multiplicity = 1

 SCF Done:  E(RHF) =  -575.543363142     A.U. after   12 cycles

 1\1\GINC-SE329\Stability\RHF\Aug-CC-pVDZ\C6H13P1\OHZDE\08-Apr-2025\0\\
 #t hf aug-cc-pvdz symm=none int=(grid=ultrafine) guess=(read,tcheck) s
 table=(opt,rrhf)\\title\\0,1\C,0,0.615812,0.000181,-0.364552\C,0,-0.09
 6129,-1.270091,0.144027\C,0,-1.593284,-1.261311,-0.203305\C,0,-2.28809
 6,0.006746,0.310994\C,0,-1.585215,1.273388,-0.195788\C,0,-0.087167,1.2
 67529,0.151553\P,0,2.454163,-0.103759,0.009106\H,0,0.018456,-1.332812,
 1.234531\H,0,0.381896,-2.16293,-0.271013\H,0,-2.074877,-2.153427,0.210
 023\H,0,-1.709095,-1.321068,-1.293132\H,0,-2.278524,0.003429,1.408719\

 Normal termination of Gaussian 16 at Tue Apr  8 23:28:51 2025.
 Gaussian 16:  ES64L-G16RevC.01  3-Jul-2019

 ----------------------------------------------------------------------
 #t hf aug-cc-pvdz iop(5/13=1,5/36=2,99/5=2) pseudo=read geom=check gue
 ss=(read,tcheck) scf=(maxcycle=1)
 ----------------------------------------------------------------------
 -----
 title
 -----
 Structure from the checkpoint file:  "BDE49_nonexpt_1298_mol1.chk"
 Charge =  0 Multiplicity = 1

                         Standard orientation:
 ---------------------------------------------------------------------
 Center     Atomic      Atomic             Coordinates (Angstroms)
 Number     Number       Type             X           Y           Z
 ---------------------------------------------------------------------
      1          6           0        0.615812    0.000181   -0.364552
      2          6           0       -0.096129   -1.270091    0.144027
      3          6           0       -1.593284   -1.261311   -0.203305
      4          6           0       -2.288096    0.006746    0.310994
      5          6           0       -1.585215    1.273388   -0.195788
      6          6           0       -0.087167    1.267529    0.151553
      7         15           0        2.454163   -0.103759    0.009106
      8          1           0        0.018456   -1.332812    1.234531
      9          1           0        0.381896   -2.162930   -0.271013
     10          1           0       -2.074877   -2.153427    0.210023
     11          1           0       -1.709095   -1.321068   -1.293132
     12          1           0       -2.278524    0.003429    1.408719
     13          1           0       -3.340332    0.010332    0.009105
     14          1           0       -2.060163    2.166166    0.224036
     15          1           0       -1.702833    1.341379   -1.285019
     16          1           0        0.397864    2.159038   -0.257517
     17          1           0        0.032455    1.320546    1.241288
     18          1           0        0.561239   -0.003421   -1.462328
     19          1           0        2.374210    0.201194    1.395335
     20          1           0        2.791740    1.229314   -0.348188
 ---------------------------------------------------------------------

 SCF Done:  E(RHF) =  -576.955489159     A.U. after    2 cycles

 The electronic state is 1-A.
 Alpha  occ. eigenvalues -- -105.16990 -11.43471 -11.43359 -11.42055 -11.37397
 Alpha  occ. eigenvalues --  -11.37304 -11.33986  -2.73710  -1.47711  -1.43419
 Alpha  occ. eigenvalues --   -1.42775  -1.30164  -1.10207  -1.08707  -0.88414
 Alpha  occ. eigenvalues --   -0.86993  -0.78277  -0.71421  -0.64577  -0.61285
 Alpha  occ. eigenvalues --   -0.60849  -0.57769  -0.52674  -0.48533  -0.47317
 Alpha  occ. eigenvalues --   -0.46975  -0.44742  -0.43179  -0.39229  -0.25150
 Alpha  occ. eigenvalues --   -0.19945  -0.01881
 Alpha virt. eigenvalues --    0.04551   0.05201   0.05451   0.05477   0.05696
 Alpha virt. eigenvalues --    0.05882   0.06269   0.06898   0.07348   0.08397
 Alpha virt. eigenvalues --    0.08676   0.08856   0.10165   0.11548   0.12433

 Mulliken charges:
               1
     1  C    0.552495
     2  C   -3.488623
     3  C   -3.130404
     4  C   -2.832652
     5  C   -2.875964
     6  C   -3.617752
     7  P    2.094922
     8  H    1.414639
     9  H    1.215944
    10  H    1.306690
    11  H    1.348910
    12  H    1.322374
    13  H    1.265060
    14  H    1.282827
    15  H    1.353888
    16  H    1.473066
    17  H    1.482046
    18  H    1.653298
    19  H   -1.050212
    20  H   -0.770554
 Sum of Mulliken charges =   0.00000

 Dipole moment (field-independent basis, Debye):
    X=              0.1806    Y=             -1.2943    Z=             -1.0859  Tot=              1.6991

 Test job not archived.
 1\1\GINC-SE329\SP\RHF\Aug-CC-pVDZ\C6H13P1\OHZDE\08-Apr-2025\0\\#t hf a
 ug-cc-pvdz iop(5/13=1,5/36=2,99/5=2) pseudo=read geom=check guess=(rea
 d,tcheck) scf=(maxcycle=1)\\title\\0,1\C,0,0.615812,0.000181,-0.364552
 \C,0,-0.096129,-1.270091,0.144027\C,0,-1.593284,-1.261311,-0.203305\C,
 0,-2.288096,0.006746,0.310994\C,0,-1.585215,1.273388,-0.195788\C,0,-0.
 087167,1.267529,0.151553\P,0,2.454163,-0.103759,0.009106\H,0,0.018456,
 -1.332812,1.234531\H,0,0.381896,-2.16293,-0.271013\H,0,-2.074877,-2.15
 3427,0.210023\H,0,-1.709095,-1.321068,-1.293132\H,0,-2.278524,0.003429

 Normal termination of Gaussian 16 at Tue Apr  8 23:29:00 2025.
