 Gaussian 16, Revision C.01,

 ----------------------------------------------------------------------
 #t hf aug-cc-pvdz symm=none int=(grid=ultrafine) guess=(read,tcheck) s
 table=(opt,rrhf)
 ----------------------------------------------------------------------
 -----
 title
 -----
 Symbolic Z-matrix:
 Charge =  0 Multiplicity = 1

 SCF Done:  E(RHF) =  -193.130793001     A.U. after   11 cycles
 Normal termination of Gaussian 16 at Tue Apr  8 22:36:25 2025.
 Gaussian 16:  ES64L-G16RevC.01  3-Jul-2019

 ----------------------------------------------------------------------
 #t hf aug-cc-pvdz iop(5/13=1,5/36=2,99/5=2) pseudo=read geom=check gue
 ss=(read,tcheck) scf=(maxcycle=1)
 ----------------------------------------------------------------------
 -----
 title
 -----
 Structure from the checkpoint file:  "BDE49_expt_1073_mol1.chk"
 Charge =  0 Multiplicity = 1

                         Standard orientation:
 ---------------------------------------------------------------------
 Center     Atomic      Atomic             Coordinates (Angstroms)
 Number     Number       Type             X           Y           Z
 ---------------------------------------------------------------------
      1          6           0        0.000000    0.708464    0.000000
      2          8           0       -0.015244   -0.708332    0.000000
      3          6           0        1.444678    1.173758    0.000000
      4          6           0       -1.319401   -1.245121    0.000000
      5          1           0       -0.530140    1.092421    0.886846
      6          1           0       -0.530140    1.092421   -0.886846
      7          1           0        1.965659    0.801238    0.885050
      8          1           0        1.496277    2.265885    0.000000
      9          1           0        1.965659    0.801238   -0.885050
     10          1           0       -1.886757   -0.938758    0.892016
     11          1           0       -1.223510   -2.331634    0.000000
     12          1           0       -1.886757   -0.938758   -0.892016
 ---------------------------------------------------------------------

 SCF Done:  E(RHF) =  -194.057012791     A.U. after    2 cycles

 The electronic state is 1-A'.
 Alpha  occ. eigenvalues --  -21.03764 -11.42213 -11.39614 -11.35718  -1.74461
 Alpha  occ. eigenvalues --   -1.12190  -0.96763  -0.86043  -0.65103  -0.61024
 Alpha  occ. eigenvalues --   -0.60400  -0.57745  -0.51348  -0.49347  -0.45970
 Alpha  occ. eigenvalues --   -0.38237  -0.29402
 Alpha virt. eigenvalues --    0.04097   0.05163   0.05966   0.05977   0.06167
 Alpha virt. eigenvalues --    0.06558   0.07258   0.07964   0.12086   0.12894
 Alpha virt. eigenvalues --    0.14497   0.15336   0.16165   0.16177   0.17077

 Mulliken charges:
               1
     1  C   -1.344153
     2  O   -2.754743
     3  C   -3.672604
     4  C   -2.779666
     5  H    1.492821
     6  H    1.492821
     7  H    1.258496
     8  H    1.129643
     9  H    1.258496
    10  H    1.319457
    11  H    1.279973
    12  H    1.319457
 Sum of Mulliken charges =  -0.00000

 Dipole moment (field-independent basis, Debye):
    X=             -0.3113    Y=              0.2204    Z=              0.0000  Tot=              0.3814

 Test job not archived.
 1\1\GINC-SE059\SP\RHF\Aug-CC-pVDZ\C3H8O1\OHZDE\08-Apr-2025\0\\#t hf au
 g-cc-pvdz iop(5/13=1,5/36=2,99/5=2) pseudo=read geom=check guess=(read
 ,tcheck) scf=(maxcycle=1)\\title\\0,1\C,0,0.,0.708464,0.\O,0,-0.015244
 ,-0.708332,0.\C,0,1.444678,1.173758,0.\C,0,-1.319401,-1.245121,0.\H,0,
 -0.53014,1.092421,0.886846\H,0,-0.53014,1.092421,-0.886846\H,0,1.96565
 9,0.801238,0.88505\H,0,1.496277,2.265885,0.\H,0,1.965659,0.801238,-0.8
 8505\H,0,-1.886757,-0.938758,0.892016\H,0,-1.22351,-2.331634,0.\H,0,-1
 .886757,-0.938758,-0.892016\\Version=ES64L-G16RevC.01\State=1-A'\HF=-1

 Normal termination of Gaussian 16 at Tue Apr  8 22:36:28 2025.
