 Gaussian 16, Revision C.01,

 ----------------------------------------------------------------------
 #t hf aug-cc-pvdz symm=none int=(grid=ultrafine) guess=(read,tcheck) s
 table=(opt,rrhf)
 ----------------------------------------------------------------------
 -----
 title
 -----
 Symbolic Z-matrix:
 Charge =  0 Multiplicity = 1

 SCF Done:  E(RHF) =  -1215.82739366     A.U. after   18 cycles
 Normal termination of Gaussian 16 at Tue Apr  8 22:56:40 2025.
 Gaussian 16:  ES64L-G16RevC.01  3-Jul-2019

 ----------------------------------------------------------------------
 #t hf aug-cc-pvdz iop(5/13=1,5/36=2,99/5=2) pseudo=read geom=check gue
 ss=(read,tcheck) scf=(maxcycle=1)
 ----------------------------------------------------------------------
 -----
 title
 -----
 Structure from the checkpoint file:  "BDE49_expt_1826_mol1.chk"
 Charge =  0 Multiplicity = 1

                         Standard orientation:
 ---------------------------------------------------------------------
 Center     Atomic      Atomic             Coordinates (Angstroms)
 Number     Number       Type             X           Y           Z
 ---------------------------------------------------------------------
      1          7           0       -2.955897   -0.850613    0.736483
      2          8           0       -2.254198   -0.695432    1.647509
      3         16           0       -2.253612   -0.264079   -1.000247
      4          6           0       -0.670715    0.346079   -0.510183
      5          6           0       -0.518388    1.682012   -0.116898
      6          6           0        0.725498    2.143450    0.301181
      7          6           0        1.823255    1.286980    0.342131
      8          6           0        1.657090   -0.041185   -0.040012
      9          6           0        0.425041   -0.525810   -0.461108
     10          1           0        2.793987    1.639491    0.665230
     11          1           0       -1.371076    2.348179   -0.148552
     12          1           0        0.845157    3.178164    0.600298
     13         17           0        3.032313   -1.130069    0.012678
     14          1           0        0.314589   -1.560806   -0.754675
 ---------------------------------------------------------------------

 SCF Done:  E(RHF) =  -1217.93012348     A.U. after    2 cycles

 The electronic state is 1-A.
 Alpha  occ. eigenvalues --  -99.90351 -75.71842 -21.18683 -15.93739 -13.20905
 Alpha  occ. eigenvalues --  -13.09915 -13.09501 -11.54078 -11.47706 -11.46573
 Alpha  occ. eigenvalues --  -11.44658 -11.44278 -11.39733 -10.47695  -9.67724
 Alpha  occ. eigenvalues --   -9.66830  -9.66657  -8.05706  -1.92567  -1.42023
 Alpha  occ. eigenvalues --   -1.30448  -1.19177  -1.10687  -1.07903  -0.94980
 Alpha  occ. eigenvalues --   -0.89119  -0.84919  -0.73351  -0.67015  -0.64089
 Alpha  occ. eigenvalues --   -0.63261  -0.61354  -0.60680  -0.58297  -0.57940
 Alpha  occ. eigenvalues --   -0.54873  -0.51579  -0.50576  -0.48509  -0.41139
 Alpha  occ. eigenvalues --   -0.36851  -0.35209  -0.26637  -0.25333
 Alpha virt. eigenvalues --    0.03067   0.05032   0.05325   0.05941   0.06876
 Alpha virt. eigenvalues --    0.07602   0.07750   0.08626   0.09474   0.10676
 Alpha virt. eigenvalues --    0.11006   0.11951   0.12596   0.12827   0.13226

 Mulliken charges:
               1
     1  N    1.419883
     2  O   -1.803695
     3  S    0.684714
     4  C    2.624968
     5  C   -3.647146
     6  C   -0.350165
     7  C   -1.773719
     8  C   -1.799652
     9  C   -1.438068
    10  H    1.734068
    11  H    1.801188
    12  H    1.545389
    13  Cl  -0.787884
    14  H    1.790119
 Sum of Mulliken charges =  -0.00000

 Dipole moment (field-independent basis, Debye):
    X=             -0.3597    Y=              2.1357    Z=             -0.1772  Tot=              2.1730

 Test job not archived.
 1\1\GINC-SE424\SP\RHF\Aug-CC-pVDZ\C6H4Cl1N1O1S1\OHZDE\08-Apr-2025\0\\#
 t hf aug-cc-pvdz iop(5/13=1,5/36=2,99/5=2) pseudo=read geom=check gues
 s=(read,tcheck) scf=(maxcycle=1)\\title\\0,1\N,0,-2.955897,-0.850613,0
 .736483\O,0,-2.254198,-0.695432,1.647509\S,0,-2.253612,-0.264079,-1.00
 0247\C,0,-0.670715,0.346079,-0.510183\C,0,-0.518388,1.682012,-0.116898
 \C,0,0.725498,2.14345,0.301181\C,0,1.823255,1.28698,0.342131\C,0,1.657
 09,-0.041185,-0.040012\C,0,0.425041,-0.52581,-0.461108\H,0,2.793987,1.
 639491,0.66523\H,0,-1.371076,2.348179,-0.148552\H,0,0.845157,3.178164,

 Normal termination of Gaussian 16 at Tue Apr  8 22:56:47 2025.
