 Gaussian 16, Revision C.01,

 ----------------------------------------------------------------------
 #t hf aug-cc-pvdz symm=none int=(grid=ultrafine) guess=(read,tcheck) s
 table=(opt,rrhf)
 ----------------------------------------------------------------------
 -----
 title
 -----
 Symbolic Z-matrix:
 Charge =  0 Multiplicity = 1

 SCF Done:  E(RHF) =  -766.885633291     A.U. after   12 cycles
 Normal termination of Gaussian 16 at Wed Apr  9 00:15:38 2025.
 Gaussian 16:  ES64L-G16RevC.01  3-Jul-2019

 ----------------------------------------------------------------------
 #t hf aug-cc-pvdz iop(5/13=1,5/36=2,99/5=2) pseudo=read geom=check gue
 ss=(read,tcheck) scf=(maxcycle=1)
 ----------------------------------------------------------------------
 -----
 title
 -----
 Structure from the checkpoint file:  "BDE49_nonexpt_2495_mol1.chk"
 Charge =  0 Multiplicity = 1

                         Standard orientation:
 ---------------------------------------------------------------------
 Center     Atomic      Atomic             Coordinates (Angstroms)
 Number     Number       Type             X           Y           Z
 ---------------------------------------------------------------------
      1         16           0       -0.114786   -0.996419   -0.211073
      2         14           0       -1.620892    0.517477    0.048186
      3          6           0        1.365876   -0.203337    0.575907
      4          6           0        2.072072    0.822622   -0.303830
      5          1           0        2.026291   -1.044015    0.796781
      6          1           0        1.061028    0.225942    1.532268
      7          1           0        2.377219    0.379202   -1.253794
      8          1           0        2.967275    1.198553    0.202676
      9          1           0        1.428333    1.676998   -0.524360
     10          1           0       -2.877281   -0.094980   -0.431840
     11          1           0       -1.342144    1.747927   -0.729014
     12          1           0       -1.739351    0.892684    1.477388
 ---------------------------------------------------------------------

 SCF Done:  E(RHF) =  -767.697265675     A.U. after    2 cycles

 The electronic state is 1-A.
 Alpha  occ. eigenvalues --  -76.23895 -75.66702 -13.09606 -13.06263 -13.01881
 Alpha  occ. eigenvalues --  -11.42528 -11.37233  -8.00840  -5.57213  -2.19413
 Alpha  occ. eigenvalues --   -2.19271  -2.19009  -1.22114  -1.04079  -0.87316
 Alpha  occ. eigenvalues --   -0.75559  -0.63473  -0.58797  -0.52571  -0.51154
 Alpha  occ. eigenvalues --   -0.48740  -0.47806  -0.40132  -0.32730  -0.25501
 Alpha virt. eigenvalues --    0.03317   0.04067   0.05066   0.05333   0.06460
 Alpha virt. eigenvalues --    0.06996   0.07694   0.07831   0.09173   0.09910
 Alpha virt. eigenvalues --    0.10982   0.11402   0.12359   0.14461   0.14556

 Mulliken charges:
               1
     1  S   -0.721719
     2  Si   6.188803
     3  C   -3.835346
     4  C   -3.390260
     5  H    1.526281
     6  H    1.413409
     7  H    1.347325
     8  H    1.166287
     9  H    1.392228
    10  H   -1.734800
    11  H   -1.669524
    12  H   -1.682684
 Sum of Mulliken charges =  -0.00000

 Dipole moment (field-independent basis, Debye):
    X=              1.3635    Y=             -1.1828    Z=             -0.0385  Tot=              1.8055

 Test job not archived.
 1\1\GINC-SE186\SP\RHF\Aug-CC-pVDZ\C2H8S1Si1\OHZDE\09-Apr-2025\0\\#t hf
  aug-cc-pvdz iop(5/13=1,5/36=2,99/5=2) pseudo=read geom=check guess=(r
 ead,tcheck) scf=(maxcycle=1)\\title\\0,1\S,0,-0.114786,-0.996419,-0.21
 1073\Si,0,-1.620892,0.517478,0.048186\C,0,1.365876,-0.203337,0.575907\
 C,0,2.072072,0.822621,-0.30383\H,0,2.026291,-1.044016,0.796781\H,0,1.0
 61028,0.225942,1.532268\H,0,2.377219,0.379201,-1.253794\H,0,2.967275,1
 .198552,0.202676\H,0,1.428333,1.676998,-0.52436\H,0,-2.877281,-0.09497
 9,-0.43184\H,0,-1.342144,1.747928,-0.729014\H,0,-1.739351,0.892685,1.4

 Normal termination of Gaussian 16 at Wed Apr  9 00:15:42 2025.
