 Gaussian 16, Revision C.01,

 ----------------------------------------------------------------------
 #t hf aug-cc-pvdz symm=none int=(grid=ultrafine) guess=(read,tcheck) s
 table=(opt,rrhf)
 ----------------------------------------------------------------------
 -----
 title
 -----
 Symbolic Z-matrix:
 Charge =  0 Multiplicity = 1

 SCF Done:  E(RHF) =  -780.217421789     A.U. after   14 cycles
 Normal termination of Gaussian 16 at Tue Apr  8 23:42:25 2025.
 Gaussian 16:  ES64L-G16RevC.01  3-Jul-2019

 ----------------------------------------------------------------------
 #t hf aug-cc-pvdz iop(5/13=1,5/36=2,99/5=2) pseudo=read geom=check gue
 ss=(read,tcheck) scf=(maxcycle=1)
 ----------------------------------------------------------------------
 -----
 title
 -----
 Structure from the checkpoint file:  "BDE49_nonexpt_1570_mol1.chk"
 Charge =  0 Multiplicity = 1

                         Standard orientation:
 ---------------------------------------------------------------------
 Center     Atomic      Atomic             Coordinates (Angstroms)
 Number     Number       Type             X           Y           Z
 ---------------------------------------------------------------------
      1          6           0        2.268335    1.490151   -0.128151
      2          6           0        0.901985    1.019195   -0.649629
      3          6           0        3.302469    0.356461   -0.151667
      4          1           0        2.155929    1.856025    0.900578
      5          1           0        2.621059    2.338523   -0.723666
      6          6           0        2.799597   -0.874251    0.615018
      7          1           0        4.253182    0.700510    0.268088
      8          1           0        3.504849    0.074987   -1.193209
      9          6           0        1.431647   -1.347774    0.097720
     10          1           0        2.712668   -0.626540    1.680473
     11          1           0        3.525610   -1.690468    0.542531
     12          6           0        0.392021   -0.209028    0.127387
     13          1           0        1.082001   -2.195757    0.695650
     14          1           0        1.544458   -1.714033   -0.931442
     15          1           0        0.990079    0.761155   -1.713260
     16          1           0        0.171544    1.831039   -0.587575
     17          7           0       -2.291020    0.465490   -0.015891
     18          8           0       -3.608112    0.062016   -0.413188
     19          8           0       -2.289134    0.520216    1.412495
     20          1           0       -2.390521    1.462144    1.597602
     21          1           0       -3.980622    0.870491   -0.784257
     22         15           0       -1.217826   -0.832606   -0.580949
     23          1           0        0.207038    0.075554    1.167841
     24          1           0       -1.491099   -1.779339    0.447599
 ---------------------------------------------------------------------

 SCF Done:  E(RHF) =  -782.472018563     A.U. after    2 cycles

 The electronic state is 1-A.
 Alpha  occ. eigenvalues -- -105.19026 -21.09821 -21.09741 -15.79508 -11.44009
 Alpha  occ. eigenvalues --  -11.43515 -11.42250 -11.37658 -11.37392 -11.34083
 Alpha  occ. eigenvalues --   -2.76462  -1.84986  -1.67583  -1.51681  -1.49091
 Alpha  occ. eigenvalues --   -1.45621  -1.30349  -1.10366  -1.09135  -1.01729
 Alpha  occ. eigenvalues --   -0.88551  -0.86595  -0.78213  -0.70631  -0.65716
 Alpha  occ. eigenvalues --   -0.64608  -0.62088  -0.61264  -0.60947  -0.58109
 Alpha  occ. eigenvalues --   -0.52806  -0.49065  -0.48400  -0.48054  -0.47148
 Alpha  occ. eigenvalues --   -0.46802  -0.44693  -0.42183  -0.39309  -0.32418
 Alpha  occ. eigenvalues --   -0.31217  -0.26332  -0.20343  -0.01486
 Alpha virt. eigenvalues --    0.04261   0.05033   0.05147   0.05302   0.05560
 Alpha virt. eigenvalues --    0.05660   0.06105   0.06621   0.07038   0.07973
 Alpha virt. eigenvalues --    0.08431   0.08719   0.09267   0.09640   0.11447

 Mulliken charges:
               1
     1  C   -3.318647
     2  C   -3.724822
     3  C   -3.140672
     4  H    1.269941
     5  H    1.318196
     6  C   -3.044790
     7  H    1.247590
     8  H    1.408593
     9  C   -3.255573
    10  H    1.292973
    11  H    1.335270
    12  C    0.739097
    13  H    1.526252
    14  H    1.235245
    15  H    1.190245
    16  H    1.578638
    17  N    1.608105
    18  O   -2.119601
    19  O   -2.056257
    20  H    0.743133
    21  H    0.789317
    22  P    2.787192
    23  H    1.787570
    24  H   -1.196993
 Sum of Mulliken charges =   0.00000

 Dipole moment (field-independent basis, Debye):
    X=             -1.0619    Y=              1.1819    Z=              0.1558  Tot=              1.5965

 Test job not archived.
 1\1\GINC-SE049\SP\RHF\Aug-CC-pVDZ\C6H14N1O2P1\OHZDE\08-Apr-2025\0\\#t
 hf aug-cc-pvdz iop(5/13=1,5/36=2,99/5=2) pseudo=read geom=check guess=
 (read,tcheck) scf=(maxcycle=1)\\title\\0,1\C,0,2.268335,1.490151,-0.12
 8151\C,0,0.901985,1.019195,-0.649629\C,0,3.302469,0.356461,-0.151667\H
 ,0,2.155929,1.856025,0.900578\H,0,2.621059,2.338523,-0.723666\C,0,2.79
 9597,-0.874251,0.615018\H,0,4.253182,0.70051,0.268088\H,0,3.504849,0.0
 74987,-1.193209\C,0,1.431647,-1.347774,0.09772\H,0,2.712668,-0.62654,1
 .680473\H,0,3.52561,-1.690468,0.542531\C,0,0.392021,-0.209028,0.127387

 Normal termination of Gaussian 16 at Tue Apr  8 23:42:41 2025.
