 Gaussian 16, Revision C.01,

 ----------------------------------------------------------------------
 #t hf aug-cc-pvdz symm=none int=(grid=ultrafine) guess=(read,tcheck) s
 table=(opt,rrhf)
 ----------------------------------------------------------------------
 -----
 title
 -----
 Symbolic Z-matrix:
 Charge =  0 Multiplicity = 1

 SCF Done:  E(RHF) =  -1396.84068438     A.U. after   14 cycles
 Normal termination of Gaussian 16 at Tue Apr  8 23:46:19 2025.
 Gaussian 16:  ES64L-G16RevC.01  3-Jul-2019

 ----------------------------------------------------------------------
 #t hf aug-cc-pvdz iop(5/13=1,5/36=2,99/5=2) pseudo=read geom=check gue
 ss=(read,tcheck) scf=(maxcycle=1)
 ----------------------------------------------------------------------
 -----
 title
 -----
 Structure from the checkpoint file:  "BDE49_nonexpt_1761_mol1.chk"
 Charge =  0 Multiplicity = 1

                         Standard orientation:
 ---------------------------------------------------------------------
 Center     Atomic      Atomic             Coordinates (Angstroms)
 Number     Number       Type             X           Y           Z
 ---------------------------------------------------------------------
      1          6           0        1.560056   -0.052807    0.039569
      2          8           0        2.283313   -0.888180    0.510463
      3         14           0       -0.283611   -0.103128    0.560495
      4          8           0        2.018271    0.881576   -0.819227
      5         17           0       -1.210408   -1.657062   -0.412638
      6         17           0       -1.183973    1.693356    0.026753
      7          1           0        1.304895    1.488808   -1.061754
      8          1           0       -0.402870   -0.292344    2.007567
 ---------------------------------------------------------------------

 SCF Done:  E(RHF) =  -1398.24057812     A.U. after    2 cycles

 The electronic state is 1-A.
 Alpha  occ. eigenvalues --  -99.92654 -99.91971 -76.33747 -21.14766 -21.08455
 Alpha  occ. eigenvalues --  -11.51468 -10.50061 -10.49419  -9.69943  -9.69351
 Alpha  occ. eigenvalues --   -9.69300  -9.69263  -9.68621  -9.68609  -5.67370
 Alpha  occ. eigenvalues --   -2.30047  -2.29632  -2.28955  -1.83943  -1.68094
 Alpha  occ. eigenvalues --   -1.34251  -1.31468  -0.89703  -0.79186  -0.69270
 Alpha  occ. eigenvalues --   -0.62579  -0.61935  -0.58582  -0.57815  -0.55824
 Alpha  occ. eigenvalues --   -0.54845  -0.54235  -0.53192  -0.47302  -0.35920
 Alpha  occ. eigenvalues --   -0.30903
 Alpha virt. eigenvalues --    0.03656   0.04647   0.05058   0.05453   0.07102
 Alpha virt. eigenvalues --    0.08278   0.08954   0.10469   0.11198   0.11975
 Alpha virt. eigenvalues --    0.12122   0.13399   0.13948   0.14715   0.15900

 Mulliken charges:
               1
     1  C    3.298546
     2  O   -2.501937
     3  Si   4.381073
     4  O   -2.712700
     5  Cl  -0.822272
     6  Cl  -0.796743
     7  H    1.073385
     8  H   -1.919352
 Sum of Mulliken charges =   0.00000

 Dipole moment (field-independent basis, Debye):
    X=              0.0665    Y=              0.8046    Z=              0.1621  Tot=              0.8235

 Test job not archived.
 1\1\GINC-SE336\SP\RHF\Aug-CC-pVDZ\C1H2Cl2O2Si1\OHZDE\08-Apr-2025\0\\#t
  hf aug-cc-pvdz iop(5/13=1,5/36=2,99/5=2) pseudo=read geom=check guess
 =(read,tcheck) scf=(maxcycle=1)\\title\\0,1\C,0,1.560056,-0.052806,0.0
 39569\O,0,2.283314,-0.888179,0.510463\Si,0,-0.283611,-0.103128,0.56049
 5\O,0,2.018271,0.881577,-0.819227\Cl,0,-1.210407,-1.657063,-0.412638\C
 l,0,-1.183974,1.693355,0.026753\H,0,1.304894,1.488808,-1.061754\H,0,-0
 .40287,-0.292344,2.007567\\Version=ES64L-G16RevC.01\State=1-A\HF=-1398
 .2405781\RMSD=5.789e-02\Dipole=0.0261691,0.3165716,0.0637587\Quadrupol

 Normal termination of Gaussian 16 at Tue Apr  8 23:46:22 2025.
