 Gaussian 16, Revision C.01,

 ----------------------------------------------------------------------
 #t hf aug-cc-pvdz symm=none int=(grid=ultrafine) guess=(read,tcheck) s
 table=(opt,rrhf)
 ----------------------------------------------------------------------
 -----
 title
 -----
 Symbolic Z-matrix:
 Charge =  0 Multiplicity = 1

 SCF Done:  E(RHF) =  -671.613814630     A.U. after   12 cycles
 Normal termination of Gaussian 16 at Tue Apr  8 23:42:13 2025.
 Gaussian 16:  ES64L-G16RevC.01  3-Jul-2019

 ----------------------------------------------------------------------
 #t hf aug-cc-pvdz iop(5/13=1,5/36=2,99/5=2) pseudo=read geom=check gue
 ss=(read,tcheck) scf=(maxcycle=1)
 ----------------------------------------------------------------------
 -----
 title
 -----
 Structure from the checkpoint file:  "BDE49_nonexpt_1660_mol1.chk"
 Charge =  0 Multiplicity = 1

                         Standard orientation:
 ---------------------------------------------------------------------
 Center     Atomic      Atomic             Coordinates (Angstroms)
 Number     Number       Type             X           Y           Z
 ---------------------------------------------------------------------
      1         15           0       -0.615019   -0.745330   -0.107410
      2         14           0        1.440311    0.222470    0.006632
      3          6           0       -1.702826    0.777498    0.023695
      4          1           0       -0.623836   -1.113348    1.264494
      5          1           0       -1.669060    1.313770   -0.927059
      6          1           0       -1.415108    1.459286    0.824878
      7          1           0       -2.733308    0.454737    0.185864
      8          1           0        1.712645    0.900415   -1.283378
      9          1           0        2.451909   -0.839698    0.215806
     10          1           0        1.554639    1.225226    1.095527
 ---------------------------------------------------------------------

 SCF Done:  E(RHF) =  -672.192495907     A.U. after    2 cycles

 The electronic state is 1-A.
 Alpha  occ. eigenvalues -- -105.16365 -76.22388 -11.37695  -5.55790  -2.73967
 Alpha  occ. eigenvalues --   -2.17817  -2.17734  -2.17593  -1.45403  -1.42962
 Alpha  occ. eigenvalues --   -1.41239  -1.01008  -0.77678  -0.64936  -0.56760
 Alpha  occ. eigenvalues --   -0.56542  -0.47627  -0.47541  -0.23743  -0.15202
 Alpha  occ. eigenvalues --   -0.02700
 Alpha virt. eigenvalues --    0.04145   0.05305   0.06043   0.06721   0.06955
 Alpha virt. eigenvalues --    0.07669   0.08178   0.09483   0.09614   0.10319
 Alpha virt. eigenvalues --    0.10714   0.12126   0.14001   0.15485   0.16435

 Mulliken charges:
               1
     1  P    2.534613
     2  Si   5.014294
     3  C   -5.378413
     4  H   -0.885809
     5  H    1.223546
     6  H    1.236305
     7  H    1.256484
     8  H   -1.642192
     9  H   -1.702177
    10  H   -1.656651
 Sum of Mulliken charges =  -0.00000

 Dipole moment (field-independent basis, Debye):
    X=             -4.2560    Y=             -2.8355    Z=             -1.5693  Tot=              5.3494

 Test job not archived.
 1\1\GINC-SE329\SP\RHF\Aug-CC-pVDZ\C1H7P1Si1\OHZDE\08-Apr-2025\0\\#t hf
  aug-cc-pvdz iop(5/13=1,5/36=2,99/5=2) pseudo=read geom=check guess=(r
 ead,tcheck) scf=(maxcycle=1)\\title\\0,1\P,0,-0.615019,-0.74533,-0.107
 41\Si,0,1.440311,0.22247,0.006632\C,0,-1.702826,0.777498,0.023695\H,0,
 -0.623836,-1.113348,1.264494\H,0,-1.66906,1.31377,-0.927059\H,0,-1.415
 108,1.459286,0.824878\H,0,-2.733308,0.454737,0.185864\H,0,1.712645,0.9
 00415,-1.283378\H,0,2.451909,-0.839698,0.215806\H,0,1.554639,1.225226,
 1.095527\\Version=ES64L-G16RevC.01\State=1-A\HF=-672.1924959\RMSD=2.39

 Normal termination of Gaussian 16 at Tue Apr  8 23:42:16 2025.
