 Gaussian 16, Revision C.01,

 ----------------------------------------------------------------------
 #t hf aug-cc-pvdz symm=none int=(grid=ultrafine) guess=(read,tcheck) s
 table=(opt,rrhf)
 ----------------------------------------------------------------------
 -----
 title
 -----
 Symbolic Z-matrix:
 Charge =  0 Multiplicity = 1

 SCF Done:  E(RHF) =  -836.076841886     A.U. after   15 cycles
 Normal termination of Gaussian 16 at Tue Apr  8 23:42:15 2025.
 Gaussian 16:  ES64L-G16RevC.01  3-Jul-2019

 ----------------------------------------------------------------------
 #t hf aug-cc-pvdz iop(5/13=1,5/36=2,99/5=2) pseudo=read geom=check gue
 ss=(read,tcheck) scf=(maxcycle=1)
 ----------------------------------------------------------------------
 -----
 title
 -----
 Structure from the checkpoint file:  "BDE49_nonexpt_1671_mol1.chk"
 Charge =  0 Multiplicity = 1

                         Standard orientation:
 ---------------------------------------------------------------------
 Center     Atomic      Atomic             Coordinates (Angstroms)
 Number     Number       Type             X           Y           Z
 ---------------------------------------------------------------------
      1         15           0        0.124817   -1.033315   -0.360546
      2         14           0        1.873905    0.335546    0.195884
      3          7           0       -1.230127    0.210153   -0.007137
      4          8           0       -1.033906    1.352294   -0.403236
      5          8           0       -2.248182   -0.195325    0.518961
      6          1           0        0.004142   -1.665089    0.898977
      7          1           0        2.182914    1.188100   -0.966533
      8          1           0        3.002117   -0.587870    0.461445
      9          1           0        1.571488    1.140119    1.396083
 ---------------------------------------------------------------------

 SCF Done:  E(RHF) =  -837.273730733     A.U. after    2 cycles

 The electronic state is 1-A.
 Alpha  occ. eigenvalues -- -105.24317 -76.25882 -21.10313 -21.09843 -15.98748
 Alpha  occ. eigenvalues --   -5.59269  -2.81564  -2.21341  -2.21265  -2.20875
 Alpha  occ. eigenvalues --   -1.99136  -1.69615  -1.50983  -1.50691  -1.48559
 Alpha  occ. eigenvalues --   -0.95358  -0.80493  -0.72585  -0.65729  -0.60795
 Alpha  occ. eigenvalues --   -0.55581  -0.50462  -0.50209  -0.33851  -0.32116
 Alpha  occ. eigenvalues --   -0.26456  -0.19458  -0.06344
 Alpha virt. eigenvalues --    0.03925   0.04843   0.05791   0.07182   0.07659
 Alpha virt. eigenvalues --    0.08401   0.08986   0.09408   0.10344   0.11782
 Alpha virt. eigenvalues --    0.13993   0.14312   0.16048   0.16786   0.17202

 Mulliken charges:
               1
     1  P    1.734680
     2  Si   5.194410
     3  N    4.189135
     4  O   -2.457622
     5  O   -2.526952
     6  H   -1.126127
     7  H   -1.653343
     8  H   -1.735013
     9  H   -1.619168
 Sum of Mulliken charges =  -0.00000

 Dipole moment (field-independent basis, Debye):
    X=             -0.7529    Y=             -4.2936    Z=             -4.1405  Tot=              6.0121

 Test job not archived.
 1\1\GINC-SE460\SP\RHF\Aug-CC-pVDZ\H4N1O2P1Si1\OHZDE\08-Apr-2025\0\\#t
 hf aug-cc-pvdz iop(5/13=1,5/36=2,99/5=2) pseudo=read geom=check guess=
 (read,tcheck) scf=(maxcycle=1)\\title\\0,1\P,0,0.124817,-1.033315,-0.3
 60546\Si,0,1.873905,0.335546,0.195884\N,0,-1.230127,0.210153,-0.007137
 \O,0,-1.033906,1.352294,-0.403236\O,0,-2.248182,-0.195325,0.518961\H,0
 ,0.004142,-1.665089,0.898977\H,0,2.182914,1.1881,-0.966533\H,0,3.00211
 7,-0.58787,0.461445\H,0,1.571488,1.140119,1.396083\\Version=ES64L-G16R
 evC.01\State=1-A\HF=-837.2737307\RMSD=1.903e-01\Dipole=-0.2962024,-1.6

 Normal termination of Gaussian 16 at Tue Apr  8 23:42:18 2025.
