 Gaussian 16, Revision C.01,

 ----------------------------------------------------------------------
 #t hf aug-cc-pvdz symm=none int=(grid=ultrafine) guess=(read,tcheck) s
 table=(opt,rrhf)
 ----------------------------------------------------------------------
 -----
 title
 -----
 Symbolic Z-matrix:
 Charge =  0 Multiplicity = 1

 SCF Done:  E(RHF) =  -479.919181550     A.U. after   14 cycles
 Normal termination of Gaussian 16 at Tue Apr  8 23:51:19 2025.
 Gaussian 16:  ES64L-G16RevC.01  3-Jul-2019

 ----------------------------------------------------------------------
 #t hf aug-cc-pvdz iop(5/13=1,5/36=2,99/5=2) pseudo=read geom=check gue
 ss=(read,tcheck) scf=(maxcycle=1)
 ----------------------------------------------------------------------
 -----
 title
 -----
 Structure from the checkpoint file:  "BDE49_nonexpt_1885_mol1.chk"
 Charge =  0 Multiplicity = 1

                         Standard orientation:
 ---------------------------------------------------------------------
 Center     Atomic      Atomic             Coordinates (Angstroms)
 Number     Number       Type             X           Y           Z
 ---------------------------------------------------------------------
      1          6           0       -0.080073    0.614050    0.025053
      2         14           0        1.681708   -0.101032    0.002557
      3          8           0       -0.963713   -0.488319   -0.041373
      4          1           0        2.615147    1.046486    0.089185
      5          1           0        1.926489   -0.845494   -1.251028
      6          8           0       -2.327950    0.043014   -0.082401
      7          1           0       -2.697222   -0.393581    0.697502
      8          1           0        1.892049   -0.994581    1.162705
      9          1           0       -0.222731    1.281094   -0.834889
     10          1           0       -0.243894    1.198671    0.940603
 ---------------------------------------------------------------------

 SCF Done:  E(RHF) =  -480.890913970     A.U. after    2 cycles

 The electronic state is 1-A.
 Alpha  occ. eigenvalues --  -76.21989 -21.11694 -21.10155 -11.39363  -5.55543
 Alpha  occ. eigenvalues --   -2.19248  -2.17805  -2.17706  -1.92722  -1.44815
 Alpha  occ. eigenvalues --   -0.96914  -0.76280  -0.64936  -0.60919  -0.55418
 Alpha  occ. eigenvalues --   -0.50488  -0.47286  -0.47149  -0.38313  -0.35484
 Alpha  occ. eigenvalues --   -0.29221
 Alpha virt. eigenvalues --    0.03899   0.04876   0.05623   0.05802   0.07012
 Alpha virt. eigenvalues --    0.07965   0.08472   0.09399   0.10275   0.13463
 Alpha virt. eigenvalues --    0.15056   0.15439   0.15727   0.17310   0.17549

 Mulliken charges:
               1
     1  C   -2.310517
     2  Si   5.850357
     3  O   -1.468128
     4  H   -1.595277
     5  H   -1.692252
     6  O   -0.849313
     7  H    0.904321
     8  H   -1.675708
     9  H    1.422363
    10  H    1.414155
 Sum of Mulliken charges =  -0.00000

 Dipole moment (field-independent basis, Debye):
    X=             -0.3148    Y=              0.3809    Z=              0.6402  Tot=              0.8087

 Test job not archived.
 1\1\GINC-SE331\SP\RHF\Aug-CC-pVDZ\C1H6O2Si1\OHZDE\08-Apr-2025\0\\#t hf
  aug-cc-pvdz iop(5/13=1,5/36=2,99/5=2) pseudo=read geom=check guess=(r
 ead,tcheck) scf=(maxcycle=1)\\title\\0,1\C,0,-0.080073,0.61405,0.02505
 3\Si,0,1.681708,-0.101032,0.002557\O,0,-0.963713,-0.488319,-0.041373\H
 ,0,2.615147,1.046486,0.089185\H,0,1.926489,-0.845494,-1.251028\O,0,-2.
 32795,0.043014,-0.082401\H,0,-2.697222,-0.393581,0.697502\H,0,1.892049
 ,-0.994581,1.162705\H,0,-0.222731,1.281094,-0.834889\H,0,-0.243894,1.1
 98671,0.940603\\Version=ES64L-G16RevC.01\State=1-A\HF=-480.890914\RMSD

 Normal termination of Gaussian 16 at Tue Apr  8 23:51:22 2025.
