 Gaussian 16, Revision C.01,

 ----------------------------------------------------------------------
 #t hf aug-cc-pvdz symm=none int=(grid=ultrafine) guess=(read,tcheck) s
 table=(opt,rrhf)
 ----------------------------------------------------------------------
 -----
 title
 -----
 Symbolic Z-matrix:
 Charge =  0 Multiplicity = 1

 SCF Done:  E(RHF) =  -984.485378833     A.U. after   11 cycles
 Normal termination of Gaussian 16 at Tue Apr  8 23:46:28 2025.
 Gaussian 16:  ES64L-G16RevC.01  3-Jul-2019

 ----------------------------------------------------------------------
 #t hf aug-cc-pvdz iop(5/13=1,5/36=2,99/5=2) pseudo=read geom=check gue
 ss=(read,tcheck) scf=(maxcycle=1)
 ----------------------------------------------------------------------
 -----
 title
 -----
 Structure from the checkpoint file:  "BDE49_nonexpt_1742_mol1.chk"
 Charge =  0 Multiplicity = 1

                         Standard orientation:
 ---------------------------------------------------------------------
 Center     Atomic      Atomic             Coordinates (Angstroms)
 Number     Number       Type             X           Y           Z
 ---------------------------------------------------------------------
      1         14           0        1.893820   -0.379826    0.401130
      2          6           0        0.186907   -0.844299   -0.218916
      3          6           0       -0.973448    0.021690    0.303541
      4          1           0        0.025723   -1.894516    0.063814
      5          1           0        0.205657   -0.828204   -1.315914
      6          6           0        3.229369   -1.508688   -0.256716
      7          1           0        3.055121   -2.536507    0.077884
      8          1           0        4.213629   -1.197316    0.101175
      9          1           0        3.247155   -1.503215   -1.349686
     10         17           0        2.332401    1.582597   -0.214596
     11          6           0       -2.345729   -0.423654   -0.217870
     12          1           0       -0.803245    1.066682    0.021962
     13          1           0       -0.982404    0.000539    1.400207
     14          6           0       -3.504871    0.436460    0.298214
     15          1           0       -2.517979   -1.470851    0.063412
     16          1           0       -2.338368   -0.401147   -1.315312
     17          6           0       -4.871391   -0.012513   -0.227240
     18          1           0       -3.330616    1.481884    0.016797
     19          1           0       -3.510022    0.414310    1.394736
     20          1           0       -4.909308    0.032785   -1.320138
     21          1           0       -5.675221    0.620144    0.158773
     22          1           0       -5.089775   -1.043633    0.067979
     23          1           0        1.920328   -0.341518    1.880537
 ---------------------------------------------------------------------

 SCF Done:  E(RHF) =  -986.135085596     A.U. after    2 cycles

 The electronic state is 1-A.
 Alpha  occ. eigenvalues --  -99.86797 -76.23915 -11.42590 -11.41174 -11.38083
 Alpha  occ. eigenvalues --  -11.36190 -11.35726 -11.34157 -10.44167  -9.64106
 Alpha  occ. eigenvalues --   -9.63611  -9.63496  -5.57731  -2.21911  -2.20652
 Alpha  occ. eigenvalues --   -2.19738  -1.27758  -1.25305  -1.12672  -1.04698
 Alpha  occ. eigenvalues --   -0.98746  -0.87488  -0.82376  -0.72334  -0.66077
 Alpha  occ. eigenvalues --   -0.60761  -0.58732  -0.57714  -0.57339  -0.55524
 Alpha  occ. eigenvalues --   -0.54072  -0.52342  -0.52116  -0.51754  -0.49051
 Alpha  occ. eigenvalues --   -0.47673  -0.46028  -0.45273  -0.44444  -0.42869
 Alpha  occ. eigenvalues --   -0.36377
 Alpha virt. eigenvalues --    0.03504   0.04535   0.05135   0.05397   0.05572
 Alpha virt. eigenvalues --    0.05752   0.06007   0.06507   0.07307   0.07540
 Alpha virt. eigenvalues --    0.07727   0.08186   0.08419   0.08932   0.09873

 Mulliken charges:
               1
     1  Si   5.163517
     2  C   -4.256257
     3  C   -2.863927
     4  H    1.608976
     5  H    1.511146
     6  C   -5.191987
     7  H    1.404361
     8  H    1.229742
     9  H    1.300592
    10  Cl  -0.919858
    11  C   -1.935581
    12  H    1.561209
    13  H    1.668827
    14  C   -3.042830
    15  H    1.524335
    16  H    1.539063
    17  C   -4.619605
    18  H    1.466737
    19  H    1.454213
    20  H    1.340596
    21  H    1.083297
    22  H    1.329886
    23  H   -2.356453
 Sum of Mulliken charges =  -0.00000

 Dipole moment (field-independent basis, Debye):
    X=             -0.8128    Y=             -2.1733    Z=             -0.0965  Tot=              2.3223

 Test job not archived.
 1\1\GINC-SE361\SP\RHF\Aug-CC-pVDZ\C6H15Cl1Si1\OHZDE\08-Apr-2025\0\\#t
 hf aug-cc-pvdz iop(5/13=1,5/36=2,99/5=2) pseudo=read geom=check guess=
 (read,tcheck) scf=(maxcycle=1)\\title\\0,1\Si,0,1.89382,-0.379826,0.40
 113\C,0,0.186907,-0.844299,-0.218916\C,0,-0.973448,0.02169,0.303541\H,
 0,0.025723,-1.894516,0.063814\H,0,0.205657,-0.828204,-1.315914\C,0,3.2
 29369,-1.508688,-0.256716\H,0,3.055121,-2.536507,0.077884\H,0,4.213629
 ,-1.197316,0.101175\H,0,3.247155,-1.503215,-1.349686\Cl,0,2.332401,1.5
 82597,-0.214596\C,0,-2.345729,-0.423654,-0.21787\H,0,-0.803245,1.06668

 Normal termination of Gaussian 16 at Tue Apr  8 23:46:40 2025.
