 Gaussian 16, Revision C.01,

 ----------------------------------------------------------------------
 #t hf aug-cc-pvdz symm=none int=(grid=ultrafine) guess=(read,tcheck) s
 table=(opt,rrhf)
 ----------------------------------------------------------------------
 -----
 title
 -----
 Symbolic Z-matrix:
 Charge =  0 Multiplicity = 1

 SCF Done:  E(RHF) =  -784.657675390     A.U. after   15 cycles
 Normal termination of Gaussian 16 at Wed Apr  9 00:05:29 2025.
 Gaussian 16:  ES64L-G16RevC.01  3-Jul-2019

 ----------------------------------------------------------------------
 #t hf aug-cc-pvdz iop(5/13=1,5/36=2,99/5=2) pseudo=read geom=check gue
 ss=(read,tcheck) scf=(maxcycle=1)
 ----------------------------------------------------------------------
 -----
 title
 -----
 Structure from the checkpoint file:  "BDE49_nonexpt_2177_mol1.chk"
 Charge =  0 Multiplicity = 1

                         Standard orientation:
 ---------------------------------------------------------------------
 Center     Atomic      Atomic             Coordinates (Angstroms)
 Number     Number       Type             X           Y           Z
 ---------------------------------------------------------------------
      1         14           0       -1.841047    0.015070   -0.073667
      2          8           0       -1.850333    1.545969   -0.658539
      3          8           0       -1.535531   -1.132782   -1.216674
      4          1           0       -2.529700    1.777582   -1.296769
      5          6           0        0.871167    0.006074    0.682174
      6          6           0        1.528793   -1.200150    0.404828
      7          6           0        2.803068   -1.210628   -0.159802
      8          6           0        1.527048    1.203137    0.367669
      9          6           0        2.800364    1.194379   -0.195338
     10          6           0        3.444941   -0.012187   -0.462559
     11          1           0        1.029551    2.147104    0.561937
     12          1           0        3.290936    2.133872   -0.425411
     13          1           0        4.437551   -0.017834   -0.898196
     14          1           0        1.042919   -2.139526    0.650367
     15          1           0        3.296256   -2.156548   -0.355847
     16          6           0       -0.526191    0.008835    1.258949
     17          1           0       -0.684060    0.884771    1.894625
     18          1           0       -0.683309   -0.874909    1.885125
     19          1           0       -0.635515   -1.190408   -1.549861
     20          8           0       -3.342907   -0.346959    0.482835
     21          1           0       -3.654955   -1.241672    0.328862
 ---------------------------------------------------------------------

 SCF Done:  E(RHF) =  -787.050265984     A.U. after    2 cycles

 The electronic state is 1-A.
 Alpha  occ. eigenvalues --  -76.24115 -21.07303 -21.07244 -21.07197 -11.51803
 Alpha  occ. eigenvalues --  -11.44004 -11.43092 -11.40646 -11.40408 -11.38061
 Alpha  occ. eigenvalues --  -11.35788  -5.59203  -2.27213  -2.26154  -2.23202
 Alpha  occ. eigenvalues --   -1.70282  -1.64025  -1.63603  -1.34881  -1.14431
 Alpha  occ. eigenvalues --   -1.08897  -0.99446  -0.86194  -0.83247  -0.72055
 Alpha  occ. eigenvalues --   -0.70070  -0.64593  -0.62910  -0.61481  -0.60082
 Alpha  occ. eigenvalues --   -0.57660  -0.56182  -0.53834  -0.51806  -0.48256
 Alpha  occ. eigenvalues --   -0.47457  -0.44491  -0.43858  -0.42709  -0.39893
 Alpha  occ. eigenvalues --   -0.39044  -0.37067  -0.35350  -0.32959  -0.30121
 Alpha virt. eigenvalues --    0.03290   0.04891   0.05029   0.05432   0.06188
 Alpha virt. eigenvalues --    0.06356   0.06542   0.07252   0.07428   0.08073
 Alpha virt. eigenvalues --    0.08382   0.09419   0.09659   0.11188   0.11756

 Mulliken charges:
               1
     1  Si   8.208835
     2  O   -3.216250
     3  O   -3.374663
     4  H    1.100927
     5  C    4.289666
     6  C   -2.124449
     7  C   -1.805166
     8  C   -2.094241
     9  C   -1.548214
    10  C   -2.773992
    11  H    1.793946
    12  H    1.514395
    13  H    1.537751
    14  H    1.791268
    15  H    1.500324
    16  C   -6.064305
    17  H    1.179344
    18  H    1.160699
    19  H    1.130113
    20  O   -3.216156
    21  H    1.010168
 Sum of Mulliken charges =   0.00000

 Dipole moment (field-independent basis, Debye):
    X=             -0.0507    Y=             -0.2528    Z=             -0.3147  Tot=              0.4068

 Test job not archived.
 1\1\GINC-SE335\SP\RHF\Aug-CC-pVDZ\C7H10O3Si1\OHZDE\09-Apr-2025\0\\#t h
 f aug-cc-pvdz iop(5/13=1,5/36=2,99/5=2) pseudo=read geom=check guess=(
 read,tcheck) scf=(maxcycle=1)\\title\\0,1\Si,0,-1.841047,0.01507,-0.07
 3667\O,0,-1.850333,1.545969,-0.658539\O,0,-1.535531,-1.132782,-1.21667
 4\H,0,-2.5297,1.777582,-1.296769\C,0,0.871167,0.006074,0.682174\C,0,1.
 528793,-1.20015,0.404828\C,0,2.803068,-1.210628,-0.159802\C,0,1.527048
 ,1.203137,0.367669\C,0,2.800364,1.194379,-0.195338\C,0,3.444941,-0.012
 187,-0.462559\H,0,1.029551,2.147104,0.561937\H,0,3.290936,2.133872,-0.

 Normal termination of Gaussian 16 at Wed Apr  9 00:05:41 2025.
