 Gaussian 16, Revision C.01,

 ----------------------------------------------------------------------
 #t hf aug-cc-pvdz symm=none int=(grid=ultrafine) guess=(read,tcheck) s
 table=(opt,rrhf)
 ----------------------------------------------------------------------
 -----
 title
 -----
 Symbolic Z-matrix:
 Charge =  0 Multiplicity = 1

 SCF Done:  E(RHF) =  -896.126062217     A.U. after   16 cycles
 Normal termination of Gaussian 16 at Tue Apr  8 23:56:31 2025.
 Gaussian 16:  ES64L-G16RevC.01  3-Jul-2019

 ----------------------------------------------------------------------
 #t hf aug-cc-pvdz iop(5/13=1,5/36=2,99/5=2) pseudo=read geom=check gue
 ss=(read,tcheck) scf=(maxcycle=1)
 ----------------------------------------------------------------------
 -----
 title
 -----
 Structure from the checkpoint file:  "BDE49_nonexpt_1997_mol1.chk"
 Charge =  0 Multiplicity = 1

                         Standard orientation:
 ---------------------------------------------------------------------
 Center     Atomic      Atomic             Coordinates (Angstroms)
 Number     Number       Type             X           Y           Z
 ---------------------------------------------------------------------
      1          9           0       -0.068905    1.461383    1.290888
      2         14           0        0.000000    0.578538   -0.000000
      3          7           0       -1.458216   -0.509781   -0.131314
      4          7           0        1.458212   -0.509788    0.131306
      5          8           0        2.431317   -0.365580   -0.584870
      6          8           0        1.315946   -1.338638    1.029322
      7          8           0       -1.315946   -1.338638   -1.029322
      8          8           0       -2.431317   -0.365581    0.584871
      9          9           0        0.068908    1.461390   -1.290882
 ---------------------------------------------------------------------

 SCF Done:  E(RHF) =  -898.634429513     A.U. after    2 cycles

 The electronic state is 1-A.
 Alpha  occ. eigenvalues --  -76.42656 -29.37682 -29.37676 -21.15783 -21.15772
 Alpha  occ. eigenvalues --  -21.14990 -21.14979 -16.02828 -16.02804  -5.78815
 Alpha  occ. eigenvalues --   -2.44908  -2.42870  -2.40994  -2.03351  -2.03265
 Alpha  occ. eigenvalues --   -1.74627  -1.74255  -1.15616  -1.03129  -0.92604
 Alpha  occ. eigenvalues --   -0.80260  -0.76597  -0.75931  -0.71591  -0.69356
 Alpha  occ. eigenvalues --   -0.65948  -0.65401  -0.49670  -0.48397  -0.47188
 Alpha  occ. eigenvalues --   -0.44475  -0.43984  -0.38002  -0.37739  -0.36404
 Alpha  occ. eigenvalues --   -0.36188  -0.35334  -0.35293  -0.35082
 Alpha virt. eigenvalues --    0.05789   0.06022   0.06969   0.07340   0.09280
 Alpha virt. eigenvalues --    0.09777   0.14315   0.15281   0.16152   0.16248
 Alpha virt. eigenvalues --    0.18244   0.18806   0.19460   0.20052   0.20693

 Mulliken charges:
               1
     1  F   -1.049855
     2  Si   3.079713
     3  N    4.289086
     4  N    4.289094
     5  O   -2.367896
     6  O   -2.411197
     7  O   -2.411199
     8  O   -2.367890
     9  F   -1.049856
 Sum of Mulliken charges =  -0.00000

 Dipole moment (field-independent basis, Debye):
    X=              0.0000    Y=              4.3514    Z=              0.0000  Tot=              4.3514

 Test job not archived.
 1\1\GINC-SE331\SP\RHF\Aug-CC-pVDZ\F2N2O4Si1\OHZDE\08-Apr-2025\0\\#t hf
  aug-cc-pvdz iop(5/13=1,5/36=2,99/5=2) pseudo=read geom=check guess=(r
 ead,tcheck) scf=(maxcycle=1)\\title\\0,1\F,0,0.068905,1.461383,-1.2908
 88\Si,0,0.,0.578538,0.\N,0,1.458216,-0.509781,0.131314\N,0,-1.458212,-
 0.509788,-0.131306\O,0,-2.431317,-0.36558,0.58487\O,0,-1.315946,-1.338
 638,-1.029322\O,0,1.315946,-1.338638,1.029322\O,0,2.431317,-0.365581,-
 0.584871\F,0,-0.068908,1.46139,1.290882\\Version=ES64L-G16RevC.01\Stat
 e=1-A\HF=-898.6344295\RMSD=7.746e-02\Dipole=-0.0000048,1.7119733,-0.00

 Normal termination of Gaussian 16 at Tue Apr  8 23:56:35 2025.
