 Gaussian 16, Revision C.01,

 ----------------------------------------------------------------------
 #t hf aug-cc-pvdz symm=none int=(grid=ultrafine) guess=(read,tcheck) s
 table=opt
 ----------------------------------------------------------------------
 -----
 title
 -----
 Symbolic Z-matrix:
 Charge =  0 Multiplicity = 2

 SCF Done:  E(UHF) =  -404.597406752     A.U. after   14 cycles
 Normal termination of Gaussian 16 at Wed Apr  9 00:07:58 2025.
 Gaussian 16:  ES64L-G16RevC.01  3-Jul-2019

 ----------------------------------------------------------------------
 #t hf aug-cc-pvdz iop(5/13=1,5/36=2,99/5=2) pseudo=read geom=check gue
 ss=(read,tcheck) scf=(maxcycle=1)
 ----------------------------------------------------------------------
 -----
 title
 -----
 Structure from the checkpoint file:  "BDE49_nonexpt_2273_mol2.chk"
 Charge =  0 Multiplicity = 2

                         Standard orientation:
 ---------------------------------------------------------------------
 Center     Atomic      Atomic             Coordinates (Angstroms)
 Number     Number       Type             X           Y           Z
 ---------------------------------------------------------------------
      1         14           0        0.118723    0.537278   -0.136499
      2          8           0        1.308652   -0.610912    0.053954
      3          1           0        2.222317   -0.315464    0.058629
      4          6           0       -1.510987   -0.373024    0.041801
      5          1           0       -1.656477   -1.089341   -0.769880
      6          1           0       -2.345308    0.333483    0.031376
      7          1           0       -1.530794   -0.920459    0.990228
      8          1           0        0.244856    1.595324    0.918190
 ---------------------------------------------------------------------

 SCF Done:  E(UHF) =  -405.259896136     A.U. after    2 cycles

 The electronic state is 2-A.
 Alpha  occ. eigenvalues --  -76.23519 -21.07671 -11.35062  -5.57194  -2.23105
 Alpha  occ. eigenvalues --   -2.19701  -2.17733  -1.65868  -1.03919  -0.71434
 Alpha  occ. eigenvalues --   -0.59284  -0.56273  -0.54181  -0.44403  -0.43066
 Alpha  occ. eigenvalues --   -0.38908  -0.25194
 Alpha virt. eigenvalues --    0.03744   0.04696   0.05947   0.06625   0.07424
 Alpha virt. eigenvalues --    0.08203   0.08578   0.09193   0.13882   0.14921
 Alpha virt. eigenvalues --    0.16371   0.16822   0.17753   0.18318   0.21174

  Beta  occ. eigenvalues --  -76.23014 -21.07303 -11.34936  -5.56383  -2.22557
  Beta  occ. eigenvalues --   -2.19020  -2.14661  -1.65021  -1.03223  -0.68279
  Beta  occ. eigenvalues --   -0.58291  -0.55475  -0.53697  -0.42528  -0.40800
  Beta  occ. eigenvalues --   -0.37960
  Beta virt. eigenvalues --    0.02970   0.04899   0.05893   0.06244   0.07087
  Beta virt. eigenvalues --    0.07511   0.08468   0.09159   0.10588   0.15504
  Beta virt. eigenvalues --    0.15670   0.16806   0.17551   0.18088   0.19982

 Mulliken charges and spin densities:
               1          2
     1  Si   4.166816   0.890045
     2  O   -2.584005   0.063176
     3  H    1.115717  -0.001621
     4  C   -4.945864   0.014079
     5  H    1.320074  -0.012716
     6  H    1.265899  -0.009456
     7  H    1.241700   0.006001
     8  H   -1.580338   0.050492
 Sum of Mulliken charges =  -0.00000   1.00000

 Dipole moment (field-independent basis, Debye):
    X=              0.2891    Y=             -0.4077    Z=             -0.1667  Tot=              0.5269
                          Isotropic Fermi Contact Couplings
        Atom                 a.u.       MegaHertz       Gauss      10(-4) cm-1
     1  Si(29)             0.48436    -430.46528    -153.60072    -143.58776
     2  O(17)              0.03233     -19.60107      -6.99415      -6.53821
     3  H(1)              -0.00092      -4.12444      -1.47170      -1.37576
     4  C(13)              0.03192      35.88494      12.80464      11.96993
     5  H(1)               0.00021       0.91708       0.32724       0.30591
     6  H(1)              -0.00071      -3.15336      -1.12520      -1.05185
     7  H(1)               0.00568      25.40455       9.06497       8.47404
     8  H(1)               0.01780      79.57149      28.39309      26.54219

 Normal termination of Gaussian 16 at Wed Apr  9 00:08:00 2025.
