 Gaussian 16, Revision C.01,

 ----------------------------------------------------------------------
 #t hf aug-cc-pvdz symm=none int=(grid=ultrafine) guess=(read,tcheck) s
 table=opt
 ----------------------------------------------------------------------
 -----
 title
 -----
 Symbolic Z-matrix:
 Charge =  0 Multiplicity = 2

 SCF Done:  E(UHF) =  -749.607702180     A.U. after   14 cycles
 Normal termination of Gaussian 16 at Tue Apr  8 23:48:13 2025.
 Gaussian 16:  ES64L-G16RevC.01  3-Jul-2019

 ----------------------------------------------------------------------
 #t hf aug-cc-pvdz iop(5/13=1,5/36=2,99/5=2) pseudo=read geom=check gue
 ss=(read,tcheck) scf=(maxcycle=1)
 ----------------------------------------------------------------------
 -----
 title
 -----
 Structure from the checkpoint file:  "BDE49_nonexpt_1809_mol2.chk"
 Charge =  0 Multiplicity = 2

                         Standard orientation:
 ---------------------------------------------------------------------
 Center     Atomic      Atomic             Coordinates (Angstroms)
 Number     Number       Type             X           Y           Z
 ---------------------------------------------------------------------
      1         14           0       -1.041174   -0.000002   -0.101779
      2         17           0        1.038154   -0.000007    0.016115
      3          1           0       -1.535964    1.223928    0.575451
      4          1           0       -1.536207   -1.223795    0.575513
 ---------------------------------------------------------------------

 SCF Done:  E(UHF) =  -749.987449872     A.U. after    2 cycles

 The electronic state is 2-A.
 Alpha  occ. eigenvalues --  -99.88949 -76.28192 -10.46341  -9.66212  -9.65534
 Alpha  occ. eigenvalues --   -9.65477  -5.61412  -2.23374  -2.22860  -2.21659
 Alpha  occ. eigenvalues --   -1.29439  -0.79094  -0.56320  -0.55685  -0.53985
 Alpha  occ. eigenvalues --   -0.48137  -0.30823
 Alpha virt. eigenvalues --    0.03906   0.04755   0.06057   0.06935   0.09499
 Alpha virt. eigenvalues --    0.11468   0.13119   0.13544   0.14570   0.15607
 Alpha virt. eigenvalues --    0.16834   0.17408   0.19754   0.20171   0.24387

  Beta  occ. eigenvalues --  -99.88857 -76.27617 -10.46242  -9.66083  -9.65430
  Beta  occ. eigenvalues --   -9.65231  -5.60486  -2.22720  -2.22247  -2.18072
  Beta  occ. eigenvalues --   -1.28690  -0.74695  -0.55251  -0.54656  -0.52867
  Beta  occ. eigenvalues --   -0.47041
  Beta virt. eigenvalues --    0.02224   0.04355   0.05166   0.06237   0.08280
  Beta virt. eigenvalues --    0.09794   0.12308   0.13723   0.14956   0.15754
  Beta virt. eigenvalues --    0.16052   0.17668   0.18620   0.21009   0.22070

 Mulliken charges and spin densities:
               1          2
     1  Si   3.792521   0.862519
     2  Cl  -0.863757   0.058285
     3  H   -1.464390   0.039595
     4  H   -1.464374   0.039601
 Sum of Mulliken charges =   0.00000   1.00000

 Dipole moment (field-independent basis, Debye):
    X=             -1.6692    Y=             -0.0002    Z=             -0.4868  Tot=              1.7387
                          Isotropic Fermi Contact Couplings
        Atom                 a.u.       MegaHertz       Gauss      10(-4) cm-1
     1  Si(29)             0.62626    -556.57259    -198.59894    -185.65263
     2  Cl(35)             0.06517      28.57506      10.19629       9.53162
     3  H(1)               0.01319      58.93539      21.02961      19.65873
     4  H(1)               0.01319      58.94969      21.03471      19.66350
 --------------------------------------------------------
       Center         ----  Spin Dipole Couplings  ----
                      3XX-RR        3YY-RR        3ZZ-RR
 --------------------------------------------------------

 Normal termination of Gaussian 16 at Tue Apr  8 23:48:14 2025.
