 Gaussian 16, Revision C.01,

 ----------------------------------------------------------------------
 #t hf aug-cc-pvdz symm=none int=(grid=ultrafine) guess=(read,tcheck) s
 table=opt
 ----------------------------------------------------------------------
 -----
 title
 -----
 Symbolic Z-matrix:
 Charge =  0 Multiplicity = 2

 SCF Done:  E(UHF) =  -1544.75457352     A.U. after   16 cycles
 Normal termination of Gaussian 16 at Tue Apr  8 23:48:18 2025.
 Gaussian 16:  ES64L-G16RevC.01  3-Jul-2019

 ----------------------------------------------------------------------
 #t hf aug-cc-pvdz iop(5/13=1,5/36=2,99/5=2) pseudo=read geom=check gue
 ss=(read,tcheck) scf=(maxcycle=1)
 ----------------------------------------------------------------------
 -----
 title
 -----
 Structure from the checkpoint file:  "BDE49_nonexpt_1801_mol2.chk"
 Charge =  0 Multiplicity = 2

                         Standard orientation:
 ---------------------------------------------------------------------
 Center     Atomic      Atomic             Coordinates (Angstroms)
 Number     Number       Type             X           Y           Z
 ---------------------------------------------------------------------
      1         14           0        0.019398   -0.053358    0.556229
      2         16           0        0.148693    1.989588   -0.130620
      3         17           0        1.649757   -1.169888   -0.171981
      4          1           0        1.492485    2.019098   -0.068214
      5         16           0       -1.890511   -0.713737   -0.205991
      6          1           0       -1.940849   -1.797611    0.590460
 ---------------------------------------------------------------------

 SCF Done:  E(UHF) =  -1545.57286090     A.U. after    2 cycles

 The electronic state is 2-A.
 Alpha  occ. eigenvalues --  -99.89997 -76.32474 -75.71208 -75.71157 -13.15436
 Alpha  occ. eigenvalues --  -13.14879 -13.09014 -13.08824 -13.04485 -13.03925
 Alpha  occ. eigenvalues --  -10.47310  -9.67323  -9.66534  -9.66514  -8.05154
 Alpha  occ. eigenvalues --   -8.05127  -5.65670  -2.27122  -2.26458  -2.25041
 Alpha  occ. eigenvalues --   -1.30636  -1.14860  -1.11164  -0.73531  -0.57735
 Alpha  occ. eigenvalues --   -0.55462  -0.54955  -0.50613  -0.48111  -0.36147
 Alpha  occ. eigenvalues --   -0.33302  -0.29070  -0.24815
 Alpha virt. eigenvalues --    0.02395   0.03371   0.04440   0.05502   0.08325
 Alpha virt. eigenvalues --    0.09151   0.10100   0.10430   0.11918   0.12949
 Alpha virt. eigenvalues --    0.13230   0.14087   0.14603   0.15021   0.15774

  Beta  occ. eigenvalues --  -99.89855 -76.31911 -75.71082 -75.71028 -13.15278
  Beta  occ. eigenvalues --  -13.14751 -13.08665 -13.08308 -13.04231 -13.03515
  Beta  occ. eigenvalues --  -10.47152  -9.66918  -9.66458  -9.66258  -8.05014
  Beta  occ. eigenvalues --   -8.04982  -5.64718  -2.26587  -2.25857  -2.21942
  Beta  occ. eigenvalues --   -1.29426  -1.13773  -1.10249  -0.69695  -0.56924
  Beta  occ. eigenvalues --   -0.54894  -0.54055  -0.50072  -0.44171  -0.34898
  Beta  occ. eigenvalues --   -0.31549  -0.28461
  Beta virt. eigenvalues --   -0.00012   0.03646   0.04543   0.04983   0.05771
  Beta virt. eigenvalues --    0.08699   0.09592   0.10561   0.11006   0.12422
  Beta virt. eigenvalues --    0.13274   0.13781   0.14440   0.15113   0.15553

 Mulliken charges and spin densities:
               1          2
     1  Si   3.240538   0.686966
     2  S   -2.067063   0.135947
     3  Cl  -0.922117   0.066182
     4  H    0.910711  -0.007925
     5  S   -2.159102   0.137229
     6  H    0.997033  -0.018398
 Sum of Mulliken charges =   0.00000   1.00000

 Dipole moment (field-independent basis, Debye):
    X=             -3.6205    Y=              2.7368    Z=             -1.0057  Tot=              4.6486
                          Isotropic Fermi Contact Couplings
        Atom                 a.u.       MegaHertz       Gauss      10(-4) cm-1
     1  Si(29)             0.62727    -557.46976    -198.91907    -185.95190
     2  S(33)              0.04581      15.73407       5.61431       5.24832
     3  Cl(35)             0.11799      51.73260      18.45948      17.25614
     4  H(1)              -0.00068      -3.02961      -1.08104      -1.01057
     5  S(33)              0.00869       2.98584       1.06542       0.99597
     6  H(1)               0.00276      12.32732       4.39869       4.11195
 --------------------------------------------------------
       Center         ----  Spin Dipole Couplings  ----

 Normal termination of Gaussian 16 at Tue Apr  8 23:48:20 2025.
