 Gaussian 16, Revision C.01,

 ----------------------------------------------------------------------
 #t hf aug-cc-pvdz symm=none int=(grid=ultrafine) guess=(read,tcheck) s
 table=(opt,rrhf)
 ----------------------------------------------------------------------
 -----
 title
 -----
 Symbolic Z-matrix:
 Charge =  0 Multiplicity = 1

 SCF Done:  E(RHF) =  -567.776170271     A.U. after   15 cycles
 Normal termination of Gaussian 16 at Wed Apr  9 00:35:47 2025.
 Gaussian 16:  ES64L-G16RevC.01  3-Jul-2019

 ----------------------------------------------------------------------
 #t hf aug-cc-pvdz iop(5/13=1,5/36=2,99/5=2) pseudo=read geom=check gue
 ss=(read,tcheck) scf=(maxcycle=1)
 ----------------------------------------------------------------------
 -----
 title
 -----
 Structure from the checkpoint file:  "BDE49_nonexpt_433_mol1.chk"
 Charge =  0 Multiplicity = 1

                         Standard orientation:
 ---------------------------------------------------------------------
 Center     Atomic      Atomic             Coordinates (Angstroms)
 Number     Number       Type             X           Y           Z
 ---------------------------------------------------------------------
      1          9           0        3.221916   -1.315568    0.000026
      2          9           0        3.435975    0.934515    0.000029
      3          5           0        2.623791   -0.123171   -0.000022
      4          6           0        1.097222    0.021999   -0.000015
      5          6           0        0.483109    1.290539   -0.000011
      6          6           0       -0.891985    1.423486   -0.000006
      7          6           0       -1.706553    0.280428   -0.000005
      8          6           0        0.263851   -1.105419   -0.000014
      9          1           0        0.709297   -2.094124   -0.000017
     10          6           0       -1.121973   -0.992094   -0.000009
     11          1           0       -1.731560   -1.885214   -0.000008
     12          1           0        1.102553    2.180465   -0.000012
     13          8           0       -3.042374    0.513778    0.000000
     14          6           0       -3.934933   -0.596412    0.000001
     15          1           0       -3.803450   -1.213542   -0.894665
     16          1           0       -4.935649   -0.168870    0.000005
     17          1           0       -3.803444   -1.213544    0.894665
     18          1           0       -1.371142    2.394780   -0.000003
 ---------------------------------------------------------------------

 SCF Done:  E(RHF) =  -570.152043442     A.U. after    2 cycles

 The electronic state is 1-A.
 Alpha  occ. eigenvalues --  -29.24618 -29.24514 -21.09036 -11.54406 -11.47412
 Alpha  occ. eigenvalues --  -11.44505 -11.42880 -11.41673 -11.41338 -11.36902
 Alpha  occ. eigenvalues --   -7.71442  -1.80425  -1.34682  -1.16745  -1.11110
 Alpha  occ. eigenvalues --   -1.06137  -0.98965  -0.89081  -0.83958  -0.73211
 Alpha  occ. eigenvalues --   -0.71789  -0.66836  -0.64098  -0.63638  -0.60869
 Alpha  occ. eigenvalues --   -0.59158  -0.55119  -0.54375  -0.50149  -0.49397
 Alpha  occ. eigenvalues --   -0.47228  -0.43726  -0.42839  -0.40729  -0.40296
 Alpha  occ. eigenvalues --   -0.34609  -0.32806  -0.31723  -0.27477  -0.25838
 Alpha virt. eigenvalues --    0.02955   0.04479   0.04667   0.05010   0.05328
 Alpha virt. eigenvalues --    0.06002   0.06261   0.07241   0.07865   0.08959
 Alpha virt. eigenvalues --    0.09486   0.10488   0.10546   0.11395   0.11585

 Mulliken charges:
               1
     1  F   -0.795857
     2  F   -0.796020
     3  B    0.119373
     4  C   -3.169477
     5  C    0.881804
     6  C   -4.173856
     7  C    6.243680
     8  C    1.129540
     9  H    1.974720
    10  C   -2.936330
    11  H    1.933616
    12  H    1.971489
    13  O   -4.701916
    14  C   -3.762134
    15  H    1.387326
    16  H    1.397319
    17  H    1.387325
    18  H    1.909398
 Sum of Mulliken charges =  -0.00000

 Dipole moment (field-independent basis, Debye):
    X=             -0.0475    Y=             -0.6110    Z=              0.0001  Tot=              0.6128

 Test job not archived.
 1\1\GINC-SE159\SP\RHF\Aug-CC-pVDZ\C7H7B1F2O1\OHZDE\09-Apr-2025\0\\#t h
 f aug-cc-pvdz iop(5/13=1,5/36=2,99/5=2) pseudo=read geom=check guess=(
 read,tcheck) scf=(maxcycle=1)\\title\\0,1\F,0,-3.221916,-1.315568,-0.0
 00026\F,0,-3.435975,0.934515,-0.000029\B,0,-2.623791,-0.123171,0.00002
 2\C,0,-1.097222,0.021999,0.000015\C,0,-0.483109,1.290539,0.000011\C,0,
 0.891985,1.423486,0.000006\C,0,1.706553,0.280428,0.000005\C,0,-0.26385
 1,-1.105419,0.000014\H,0,-0.709297,-2.094124,0.000017\C,0,1.121973,-0.
 992094,0.000009\H,0,1.73156,-1.885214,0.000008\H,0,-1.102553,2.180465,

 Normal termination of Gaussian 16 at Wed Apr  9 00:35:57 2025.
