 Gaussian 16, Revision C.01,

 ----------------------------------------------------------------------
 #t hf aug-cc-pvdz symm=none int=(grid=ultrafine) guess=(read,tcheck) s
 table=opt
 ----------------------------------------------------------------------
 -----
 title
 -----
 Symbolic Z-matrix:
 Charge =  0 Multiplicity = 2

 SCF Done:  E(UHF) =  -523.701309899     A.U. after   15 cycles
 Normal termination of Gaussian 16 at Wed Apr  9 00:48:31 2025.
 Gaussian 16:  ES64L-G16RevC.01  3-Jul-2019

 ----------------------------------------------------------------------
 #t hf aug-cc-pvdz iop(5/13=1,5/36=2,99/5=2) pseudo=read geom=check gue
 ss=(read,tcheck) scf=(maxcycle=1)
 ----------------------------------------------------------------------
 -----
 title
 -----
 Structure from the checkpoint file:  "BDE49_nonexpt_808_mol2.chk"
 Charge =  0 Multiplicity = 2

                         Standard orientation:
 ---------------------------------------------------------------------
 Center     Atomic      Atomic             Coordinates (Angstroms)
 Number     Number       Type             X           Y           Z
 ---------------------------------------------------------------------
      1          6           0        0.640483   -0.040736   -0.385878
      2          6           0       -0.109697   -1.293825    0.117148
      3          6           0       -1.610640   -1.235114   -0.209258
      4          6           0       -2.259062    0.048311    0.326817
      5          6           0       -1.526505    1.298674   -0.177325
      6          6           0       -0.024808    1.249726    0.154886
      7          1           0        0.015875   -1.378375    1.204931
      8          1           0        0.330109   -2.198333   -0.315362
      9          1           0       -2.115886   -2.115585    0.201455
     10          1           0       -1.742224   -1.279154   -1.298149
     11          1           0       -2.234132    0.033981    1.424305
     12          1           0       -3.315120    0.087228    0.040775
     13          1           0       -1.971806    2.201091    0.254894
     14          1           0       -1.650312    1.378306   -1.264957
     15          1           0        0.475086    2.134825   -0.251053
     16          1           0        0.101301    1.293122    1.244597
     17         14           0        2.496879   -0.088670    0.021670
     18          1           0        0.569320   -0.019940   -1.483029
     19          1           0        2.725074   -0.169957    1.491530
     20          1           0        3.197787    1.111964   -0.511664
 ---------------------------------------------------------------------

 SCF Done:  E(UHF) =  -525.052948233     A.U. after    2 cycles

 The electronic state is 2-A.
 Alpha  occ. eigenvalues --  -76.21403 -11.43397 -11.42556 -11.41781 -11.37316
 Alpha  occ. eigenvalues --  -11.36856 -11.33683  -5.54794  -2.19086  -2.17250
 Alpha  occ. eigenvalues --   -2.16724  -1.31202  -1.10042  -1.10015  -0.88231
 Alpha  occ. eigenvalues --   -0.88092  -0.78343  -0.73604  -0.64959  -0.61145
 Alpha  occ. eigenvalues --   -0.60716  -0.58853  -0.52627  -0.49272  -0.48309
 Alpha  occ. eigenvalues --   -0.47247  -0.46793  -0.45556  -0.43757  -0.39215
 Alpha  occ. eigenvalues --   -0.35586  -0.25943
 Alpha virt. eigenvalues --    0.04185   0.05040   0.05114   0.05516   0.05635
 Alpha virt. eigenvalues --    0.05661   0.05796   0.06256   0.06606   0.07807
 Alpha virt. eigenvalues --    0.08579   0.08695   0.09184   0.09411   0.10855

  Beta  occ. eigenvalues --  -76.20862 -11.43367 -11.42537 -11.41752 -11.37290
  Beta  occ. eigenvalues --  -11.36832 -11.33658  -5.53949  -2.18343  -2.16484
  Beta  occ. eigenvalues --   -2.13498  -1.31062  -1.09963  -1.09793  -0.88120
  Beta  occ. eigenvalues --   -0.87664  -0.78081  -0.70124  -0.64645  -0.61105
  Beta  occ. eigenvalues --   -0.60664  -0.58444  -0.52537  -0.48856  -0.48015
  Beta  occ. eigenvalues --   -0.46931  -0.46751  -0.45115  -0.43704  -0.39049
  Beta  occ. eigenvalues --   -0.34410
  Beta virt. eigenvalues --    0.03623   0.04491   0.05183   0.05218   0.05539
  Beta virt. eigenvalues --    0.05681   0.05685   0.05982   0.06548   0.07796
  Beta virt. eigenvalues --    0.08398   0.08704   0.08766   0.09343   0.10230

 Mulliken charges and spin densities:
               1          2
     1  C   -1.586926  -0.149416
     2  C   -2.843617   0.143437
     3  C   -2.901423  -0.014239
     4  C   -2.706779   0.010655
     5  C   -2.934723   0.011450
     6  C   -2.854097  -0.050843
     7  H    1.402245  -0.014270
     8  H    1.401100  -0.002173
     9  H    1.290683  -0.004854
    10  H    1.353216   0.005352
    11  H    1.385280   0.001834
    12  H    1.312229  -0.000924
    13  H    1.255719  -0.003636
    14  H    1.337218   0.003167
    15  H    1.530580  -0.027652
    16  H    1.522673  -0.033883
    17  Si   3.404034   1.199560
    18  H    1.913738  -0.044300
    19  H   -1.680213  -0.018536
    20  H   -1.600937  -0.010730
 Sum of Mulliken charges =   0.00000   1.00000

 Dipole moment (field-independent basis, Debye):
    X=             -1.2458    Y=             -0.1872    Z=             -0.4107  Tot=              1.3251
                          Isotropic Fermi Contact Couplings
        Atom                 a.u.       MegaHertz       Gauss      10(-4) cm-1
     1  C(13)              0.01143      12.84644       4.58393       4.28511
     2  C(13)              0.00160       1.79558       0.64071       0.59894
     3  C(13)             -0.00092      -1.02971      -0.36743      -0.34348
     4  C(13)              0.00009       0.10611       0.03786       0.03539
     5  C(13)              0.00651       7.32369       2.61327       2.44292
     6  C(13)              0.01800      20.23082       7.21886       6.74828
     7  H(1)              -0.00009      -0.40914      -0.14599      -0.13647
     8  H(1)              -0.00024      -1.09188      -0.38961      -0.36421

 Normal termination of Gaussian 16 at Wed Apr  9 00:48:41 2025.
