 Gaussian 16, Revision C.01,

 ----------------------------------------------------------------------
 #t hf aug-cc-pvdz symm=none int=(grid=ultrafine) guess=(read,tcheck) s
 table=(opt,rrhf)
 ----------------------------------------------------------------------
 -----
 title
 -----
 Symbolic Z-matrix:
 Charge =  0 Multiplicity = 1

 SCF Done:  E(RHF) =  -519.511047838     A.U. after   15 cycles
 Normal termination of Gaussian 16 at Wed Apr  9 00:42:57 2025.
 Gaussian 16:  ES64L-G16RevC.01  3-Jul-2019

 ----------------------------------------------------------------------
 #t hf aug-cc-pvdz iop(5/13=1,5/36=2,99/5=2) pseudo=read geom=check gue
 ss=(read,tcheck) scf=(maxcycle=1)
 ----------------------------------------------------------------------
 -----
 title
 -----
 Structure from the checkpoint file:  "BDE49_nonexpt_709_mol1.chk"
 Charge =  0 Multiplicity = 1

                         Standard orientation:
 ---------------------------------------------------------------------
 Center     Atomic      Atomic             Coordinates (Angstroms)
 Number     Number       Type             X           Y           Z
 ---------------------------------------------------------------------
      1          6           0        1.340731    1.290316    0.135818
      2          6           0        0.869850   -0.138238   -0.033460
      3          1           0        2.430831    1.305298    0.141795
      4          1           0        0.949991    1.730220    1.056358
      5          1           0        0.974874    1.894320   -0.699436
      6          5           0       -2.076657    0.719738   -0.418853
      7          8           0        1.593415   -1.044983   -0.355404
      8         15           0       -0.929812   -0.503636    0.352798
      9          1           0       -3.141791    0.351587   -0.794745
     10          1           0       -1.797462    1.875039   -0.403902
     11          1           0       -1.096786   -1.753211   -0.268692
 ---------------------------------------------------------------------

 SCF Done:  E(RHF) =  -520.504367521     A.U. after    2 cycles

 The electronic state is 1-A.
 Alpha  occ. eigenvalues -- -105.17385 -21.06845 -11.49789 -11.39872  -7.63593
 Alpha  occ. eigenvalues --   -2.76021  -1.72555  -1.54314  -1.47995  -1.42173
 Alpha  occ. eigenvalues --   -1.11657  -0.87778  -0.75025  -0.66606  -0.60424
 Alpha  occ. eigenvalues --   -0.58589  -0.53268  -0.50955  -0.44248  -0.39615
 Alpha  occ. eigenvalues --   -0.22570  -0.12340  -0.06031
 Alpha virt. eigenvalues --    0.03415   0.03750   0.04283   0.05450   0.06502
 Alpha virt. eigenvalues --    0.07778   0.08734   0.09303   0.10083   0.10475
 Alpha virt. eigenvalues --    0.11455   0.12527   0.13065   0.13619   0.15099

 Mulliken charges:
               1
     1  C   -3.853877
     2  C    0.879831
     3  H    1.223000
     4  H    1.356659
     5  H    1.372062
     6  B    4.703126
     7  O   -2.773977
     8  P    2.769335
     9  H   -2.860403
    10  H   -2.155569
    11  H   -0.660187
 Sum of Mulliken charges =   0.00000

 Dipole moment (field-independent basis, Debye):
    X=              2.8967    Y=             -3.9277    Z=              6.3780  Tot=              8.0309

 Test job not archived.
 1\1\GINC-SE219\SP\RHF\Aug-CC-pVDZ\C2H6B1O1P1\OHZDE\09-Apr-2025\0\\#t h
 f aug-cc-pvdz iop(5/13=1,5/36=2,99/5=2) pseudo=read geom=check guess=(
 read,tcheck) scf=(maxcycle=1)\\title\\0,1\C,0,-1.340731,1.290316,-0.13
 5818\C,0,-0.86985,-0.138238,0.03346\H,0,-2.430831,1.305298,-0.141795\H
 ,0,-0.949991,1.73022,-1.056358\H,0,-0.974874,1.89432,0.699436\B,0,2.07
 6657,0.719738,0.418853\O,0,-1.593415,-1.044983,0.355404\P,0,0.929812,-
 0.503636,-0.352798\H,0,3.141791,0.351587,0.794745\H,0,1.797462,1.87503
 9,0.403902\H,0,1.096786,-1.753211,0.268692\\Version=ES64L-G16RevC.01\S

 Normal termination of Gaussian 16 at Wed Apr  9 00:43:01 2025.
