 Gaussian 16, Revision C.01,

 ----------------------------------------------------------------------
 #t hf aug-cc-pvdz symm=none int=(grid=ultrafine) guess=(read,tcheck) s
 table=(opt,rrhf)
 ----------------------------------------------------------------------
 -----
 title
 -----
 Symbolic Z-matrix:
 Charge =  0 Multiplicity = 1

 SCF Done:  E(RHF) =  -995.800796558     A.U. after   14 cycles
 Normal termination of Gaussian 16 at Tue Apr  8 23:48:53 2025.
 Gaussian 16:  ES64L-G16RevC.01  3-Jul-2019

 ----------------------------------------------------------------------
 #t hf aug-cc-pvdz iop(5/13=1,5/36=2,99/5=2) pseudo=read geom=check gue
 ss=(read,tcheck) scf=(maxcycle=1)
 ----------------------------------------------------------------------
 -----
 title
 -----
 Structure from the checkpoint file:  "BDE49_nonexpt_1796_mol1.chk"
 Charge =  0 Multiplicity = 1

                         Standard orientation:
 ---------------------------------------------------------------------
 Center     Atomic      Atomic             Coordinates (Angstroms)
 Number     Number       Type             X           Y           Z
 ---------------------------------------------------------------------
      1          6           0       -2.073919    1.429524   -0.000000
      2          6           0       -0.717140    1.113447   -0.000002
      3          6           0       -3.003015    0.395019    0.000004
      4          6           0       -2.537839   -0.920043    0.000007
      5          7           0       -1.242037   -1.235123    0.000005
      6          6           0       -0.341840   -0.231569    0.000001
      7          1           0       -2.398856    2.464016   -0.000002
      8          1           0        0.037698    1.890707   -0.000005
      9         14           0        1.403915   -0.919695   -0.000000
     10         17           0        2.790785    0.649495   -0.000006
     11          1           0       -4.067831    0.595870    0.000006
     12          1           0       -3.234754   -1.753384    0.000010
     13          1           0        1.651179   -1.717649   -1.213883
     14          1           0        1.651183   -1.717643    1.213886
 ---------------------------------------------------------------------

 SCF Done:  E(RHF) =  -997.356596419     A.U. after    2 cycles

 The electronic state is 1-A.
 Alpha  occ. eigenvalues --  -99.87974 -76.25957 -15.75205 -11.49202 -11.45370
 Alpha  occ. eigenvalues --  -11.44028 -11.42223 -11.38732 -10.45358  -9.65302
 Alpha  occ. eigenvalues --   -9.64702  -9.64577  -5.59516  -2.23816  -2.22199
 Alpha  occ. eigenvalues --   -2.21247  -1.45579  -1.28307  -1.19867  -1.12172
 Alpha  occ. eigenvalues --   -0.90322  -0.89612  -0.78784  -0.71370  -0.64834
 Alpha  occ. eigenvalues --   -0.61575  -0.58161  -0.56349  -0.55834  -0.54345
 Alpha  occ. eigenvalues --   -0.54131  -0.50940  -0.46987  -0.43716  -0.37889
 Alpha  occ. eigenvalues --   -0.35926  -0.35547
 Alpha virt. eigenvalues --    0.02965   0.04891   0.05122   0.05603   0.06123
 Alpha virt. eigenvalues --    0.06733   0.07003   0.08352   0.08364   0.09902
 Alpha virt. eigenvalues --    0.10686   0.11296   0.11543   0.12758   0.12836

 Mulliken charges:
               1
     1  C    0.422618
     2  C   -0.626278
     3  C   -0.635840
     4  C   -0.989941
     5  N   -3.135695
     6  C   -2.189427
     7  H    1.546571
     8  H    1.712992
     9  Si   5.546375
    10  Cl  -0.924329
    11  H    1.435718
    12  H    1.626448
    13  H   -1.894606
    14  H   -1.894607
 Sum of Mulliken charges =  -0.00000

 Dipole moment (field-independent basis, Debye):
    X=             -3.0698    Y=              0.9796    Z=              0.0000  Tot=              3.2223

 Test job not archived.
 1\1\GINC-SE329\SP\RHF\Aug-CC-pVDZ\C5H6Cl1N1Si1\OHZDE\08-Apr-2025\0\\#t
  hf aug-cc-pvdz iop(5/13=1,5/36=2,99/5=2) pseudo=read geom=check guess
 =(read,tcheck) scf=(maxcycle=1)\\title\\0,1\C,0,-2.073919,1.429524,0.\
 C,0,-0.71714,1.113447,-0.000002\C,0,-3.003015,0.395019,0.000004\C,0,-2
 .537839,-0.920043,0.000007\N,0,-1.242037,-1.235123,0.000005\C,0,-0.341
 84,-0.231569,0.000001\H,0,-2.398856,2.464016,-0.000002\H,0,0.037698,1.
 890707,-0.000005\Si,0,1.403915,-0.919695,0.\Cl,0,2.790785,0.649495,-0.
 000006\H,0,-4.067831,0.59587,0.000006\H,0,-3.234754,-1.753384,0.00001\

 Normal termination of Gaussian 16 at Tue Apr  8 23:49:00 2025.
