 Gaussian 16, Revision C.01,

 ----------------------------------------------------------------------
 #t hf aug-cc-pvdz symm=none int=(grid=ultrafine) guess=(read,tcheck) s
 table=(opt,rrhf)
 ----------------------------------------------------------------------
 -----
 title
 -----
 Symbolic Z-matrix:
 Charge =  0 Multiplicity = 1

 SCF Done:  E(RHF) =  -1438.78958099     A.U. after   15 cycles
 Normal termination of Gaussian 16 at Tue Apr  8 23:50:01 2025.
 Gaussian 16:  ES64L-G16RevC.01  3-Jul-2019

 ----------------------------------------------------------------------
 #t hf aug-cc-pvdz iop(5/13=1,5/36=2,99/5=2) pseudo=read geom=check gue
 ss=(read,tcheck) scf=(maxcycle=1)
 ----------------------------------------------------------------------
 -----
 title
 -----
 Structure from the checkpoint file:  "BDE49_nonexpt_1810_mol1.chk"
 Charge =  0 Multiplicity = 1

                         Standard orientation:
 ---------------------------------------------------------------------
 Center     Atomic      Atomic             Coordinates (Angstroms)
 Number     Number       Type             X           Y           Z
 ---------------------------------------------------------------------
      1          6           0       -1.588368   -0.646043   -1.079701
      2          6           0       -2.960472   -0.577879   -0.847713
      3          6           0       -3.443006    0.103586    0.266570
      4          6           0       -2.554266    0.718576    1.148505
      5          6           0       -1.184554    0.651411    0.917211
      6          6           0       -0.682315   -0.033749   -0.200399
      7          1           0       -1.224821   -1.177448   -1.953670
      8          1           0       -3.649568   -1.053707   -1.536132
      9         14           0        1.132434   -0.180101   -0.544832
     10          1           0       -0.503929    1.138860    1.606939
     11         17           0        2.033686   -1.549895    0.728196
     12         17           0        2.087176    1.640502   -0.272842
     13          1           0       -2.930253    1.251660    2.014333
     14          1           0       -4.510582    0.158518    0.447759
     15          1           0        1.388317   -0.632199   -1.919432
 ---------------------------------------------------------------------

 SCF Done:  E(RHF) =  -1440.53711891     A.U. after    2 cycles

 The electronic state is 1-A.
 Alpha  occ. eigenvalues --  -99.89126 -99.88888 -76.29984 -11.52743 -11.44465
 Alpha  occ. eigenvalues --  -11.43997 -11.42010 -11.41684 -11.37682 -10.46557
 Alpha  occ. eigenvalues --  -10.46301  -9.66473  -9.66217  -9.65866  -9.65822
 Alpha  occ. eigenvalues --   -9.65602  -9.65531  -5.63665  -2.27738  -2.26373
 Alpha  occ. eigenvalues --   -2.25592  -1.35562  -1.30457  -1.28221  -1.10807
 Alpha  occ. eigenvalues --   -1.10622  -0.88070  -0.87749  -0.78748  -0.71754
 Alpha  occ. eigenvalues --   -0.65278  -0.60535  -0.59241  -0.59058  -0.58426
 Alpha  occ. eigenvalues --   -0.56943  -0.53904  -0.53426  -0.51648  -0.50923
 Alpha  occ. eigenvalues --   -0.49794  -0.46226  -0.41460  -0.35446  -0.34415
 Alpha virt. eigenvalues --    0.02899   0.04635   0.04808   0.05683   0.06089
 Alpha virt. eigenvalues --    0.06493   0.07060   0.08155   0.08846   0.09003
 Alpha virt. eigenvalues --    0.09831   0.10348   0.10980   0.12370   0.12687

 Mulliken charges:
               1
     1  C   -3.373113
     2  C   -0.704583
     3  C   -1.979627
     4  C    0.065936
     5  C   -2.276688
     6  C   -0.093339
     7  H    1.829701
     8  H    1.534090
     9  Si   4.052604
    10  H    1.718652
    11  Cl  -0.954379
    12  Cl  -0.915908
    13  H    1.525094
    14  H    1.523874
    15  H   -1.952314
 Sum of Mulliken charges =   0.00000

 Dipole moment (field-independent basis, Debye):
    X=             -3.3079    Y=             -0.0429    Z=             -0.4626  Tot=              3.3404

 Test job not archived.
 1\1\GINC-SE094\SP\RHF\Aug-CC-pVDZ\C6H6Cl2Si1\OHZDE\08-Apr-2025\0\\#t h
 f aug-cc-pvdz iop(5/13=1,5/36=2,99/5=2) pseudo=read geom=check guess=(
 read,tcheck) scf=(maxcycle=1)\\title\\0,1\C,0,-1.588368,-0.646043,-1.0
 79701\C,0,-2.960472,-0.577879,-0.847713\C,0,-3.443006,0.103586,0.26657
 \C,0,-2.554266,0.718576,1.148505\C,0,-1.184554,0.651411,0.917211\C,0,-
 0.682315,-0.033749,-0.200399\H,0,-1.224821,-1.177448,-1.95367\H,0,-3.6
 49568,-1.053707,-1.536132\Si,0,1.132434,-0.180101,-0.544832\H,0,-0.503
 929,1.13886,1.606939\Cl,0,2.033686,-1.549895,0.728196\Cl,0,2.087176,1.

 Normal termination of Gaussian 16 at Tue Apr  8 23:50:08 2025.
