 Gaussian 16, Revision C.01,

 ----------------------------------------------------------------------
 #t hf aug-cc-pvdz symm=none int=(grid=ultrafine) guess=(read,tcheck) s
 table=opt
 ----------------------------------------------------------------------
 -----
 title
 -----
 Symbolic Z-matrix:
 Charge =  0 Multiplicity = 2

 SCF Done:  E(UHF) =  -237.389635904     A.U. after   21 cycles
 Normal termination of Gaussian 16 at Wed Apr  9 00:32:45 2025.
 Gaussian 16:  ES64L-G16RevC.01  3-Jul-2019

 ----------------------------------------------------------------------
 #t hf aug-cc-pvdz iop(5/13=1,5/36=2,99/5=2) pseudo=read geom=check gue
 ss=(read,tcheck) scf=(maxcycle=1)
 ----------------------------------------------------------------------
 -----
 title
 -----
 Structure from the checkpoint file:  "BDE49_nonexpt_38_mol2.chk"
 Charge =  0 Multiplicity = 2

                         Standard orientation:
 ---------------------------------------------------------------------
 Center     Atomic      Atomic             Coordinates (Angstroms)
 Number     Number       Type             X           Y           Z
 ---------------------------------------------------------------------
      1          5           0       -1.437863   -0.517284   -0.134859
      2          6           0       -0.059186    0.088167   -0.004518
      3          8           0        0.143905    1.267913    0.013465
      4          9           0        0.977429   -0.807859    0.014472
      5          1           0       -2.403664   -0.815148    0.463440
 ---------------------------------------------------------------------

 SCF Done:  E(UHF) =  -238.271796460     A.U. after    2 cycles

 The electronic state is 2-A.
 Alpha  occ. eigenvalues --  -29.30502 -21.10807 -11.51438  -7.69926  -1.77599
 Alpha  occ. eigenvalues --   -1.09949  -0.85829  -0.66107  -0.59642  -0.57594
 Alpha  occ. eigenvalues --   -0.43477  -0.34314  -0.31804  -0.29945  -0.28654
 Alpha virt. eigenvalues --    0.02629   0.03753   0.04243   0.06141   0.08620
 Alpha virt. eigenvalues --    0.10506   0.13222   0.15075   0.15154   0.17719
 Alpha virt. eigenvalues --    0.19171   0.22147   0.22779   0.23710   0.25024

  Beta  occ. eigenvalues --  -29.30576 -21.09596 -11.51955  -7.68241  -1.75525
  Beta  occ. eigenvalues --   -1.08449  -0.82853  -0.65757  -0.58897  -0.55477
  Beta  occ. eigenvalues --   -0.43429  -0.30033  -0.29041  -0.28514
  Beta virt. eigenvalues --    0.02693   0.03161   0.03953   0.06167   0.07321
  Beta virt. eigenvalues --    0.10201   0.11699   0.13619   0.15118   0.15304
  Beta virt. eigenvalues --    0.18867   0.21209   0.22947   0.23861   0.24314

 Mulliken charges and spin densities:
               1          2
     1  B    2.850159   0.897770
     2  C    0.777537  -0.181228
     3  O   -2.471509   0.315033
     4  F    0.533707  -0.023151
     5  H   -1.689895  -0.008424
 Sum of Mulliken charges =  -0.00000   1.00000

 Dipole moment (field-independent basis, Debye):
    X=              1.0643    Y=             -2.8289    Z=              0.5050  Tot=              3.0644
                          Isotropic Fermi Contact Couplings
        Atom                 a.u.       MegaHertz       Gauss      10(-4) cm-1
     1  B(11)              0.13095     187.83188      67.02309      62.65397
     2  C(13)             -0.02911     -32.72907     -11.67855     -10.91724
     3  O(17)              0.06716     -40.71013     -14.52639     -13.57944
     4  F(19)             -0.00950     -39.98313     -14.26697     -13.33694
     5  H(1)              -0.00840     -37.54054     -13.39540     -12.52218
 --------------------------------------------------------
       Center         ----  Spin Dipole Couplings  ----
                      3XX-RR        3YY-RR        3ZZ-RR

 Normal termination of Gaussian 16 at Wed Apr  9 00:32:53 2025.
