 Gaussian 16, Revision C.01,

 ----------------------------------------------------------------------
 #t hf aug-cc-pvdz symm=none int=(grid=ultrafine) guess=(read,tcheck) s
 table=(opt,rrhf)
 ----------------------------------------------------------------------
 -----
 title
 -----
 Symbolic Z-matrix:
 Charge =  0 Multiplicity = 1

 SCF Done:  E(RHF) =  -1219.46442543     A.U. after   14 cycles
 Normal termination of Gaussian 16 at Wed Apr  9 00:25:49 2025.
 Gaussian 16:  ES64L-G16RevC.01  3-Jul-2019

 ----------------------------------------------------------------------
 #t hf aug-cc-pvdz iop(5/13=1,5/36=2,99/5=2) pseudo=read geom=check gue
 ss=(read,tcheck) scf=(maxcycle=1)
 ----------------------------------------------------------------------
 -----
 title
 -----
 Structure from the checkpoint file:  "BDE49_nonexpt_2726_mol1.chk"
 Charge =  0 Multiplicity = 1

                         Standard orientation:
 ---------------------------------------------------------------------
 Center     Atomic      Atomic             Coordinates (Angstroms)
 Number     Number       Type             X           Y           Z
 ---------------------------------------------------------------------
      1         16           0       -0.880328    0.933587    0.544640
      2         16           0        0.880297    0.933509   -0.544849
      3          6           0        1.784984   -0.381344    0.275816
      4          6           0       -1.784942   -0.381549   -0.275669
      5          9           0       -2.994461   -0.428662    0.322607
      6          8           0       -1.460283   -1.098938   -1.148104
      7          8           0        1.460479   -1.098319    1.148647
      8          9           0        2.994315   -0.428907   -0.322818
 ---------------------------------------------------------------------

 SCF Done:  E(RHF) =  -1221.49058038     A.U. after    2 cycles

 The electronic state is 1-A.
 Alpha  occ. eigenvalues --  -75.78253 -75.78053 -29.34362 -29.34361 -21.12470
 Alpha  occ. eigenvalues --  -21.12470 -13.22616 -13.19331 -13.18753 -13.16122
 Alpha  occ. eigenvalues --  -13.11561 -13.10874 -11.59282 -11.59236  -8.12305
 Alpha  occ. eigenvalues --   -8.12177  -1.80132  -1.79559  -1.32287  -1.19758
 Alpha  occ. eigenvalues --   -1.06048  -0.96301  -0.71804  -0.68985  -0.63422
 Alpha  occ. eigenvalues --   -0.61804  -0.60993  -0.59795  -0.47561  -0.46149
 Alpha  occ. eigenvalues --   -0.42820  -0.36287  -0.34164  -0.33002  -0.32984
 Alpha  occ. eigenvalues --   -0.31578  -0.30041  -0.29422  -0.28082
 Alpha virt. eigenvalues --    0.04633   0.05893   0.08590   0.08965   0.10722
 Alpha virt. eigenvalues --    0.10944   0.12351   0.12478   0.12577   0.13236
 Alpha virt. eigenvalues --    0.13443   0.14309   0.15504   0.16212   0.16274

 Mulliken charges:
               1
     1  S    0.324086
     2  S    0.324082
     3  C    1.169540
     4  C    1.169476
     5  F    0.908367
     6  O   -2.401940
     7  O   -2.401955
     8  F    0.908343
 Sum of Mulliken charges =  -0.00000

 Dipole moment (field-independent basis, Debye):
    X=             -0.0005    Y=              1.9823    Z=             -0.0012  Tot=              1.9823

 Test job not archived.
 1\1\GINC-SE072\SP\RHF\Aug-CC-pVDZ\C2F2O2S2\OHZDE\09-Apr-2025\0\\#t hf
 aug-cc-pvdz iop(5/13=1,5/36=2,99/5=2) pseudo=read geom=check guess=(re
 ad,tcheck) scf=(maxcycle=1)\\title\\0,1\S,0,0.880328,0.933587,-0.54464
 \S,0,-0.880297,0.933509,0.544849\C,0,-1.784984,-0.381344,-0.275816\C,0
 ,1.784942,-0.381549,0.275669\F,0,2.994461,-0.428663,-0.322607\O,0,1.46
 0283,-1.098938,1.148104\O,0,-1.460479,-1.098319,-1.148647\F,0,-2.99431
 5,-0.428907,0.322818\\Version=ES64L-G16RevC.01\State=1-A\HF=-1221.4905
 804\RMSD=6.248e-02\Dipole=0.0002161,0.7798883,0.0004803\Quadrupole=13.

 Normal termination of Gaussian 16 at Wed Apr  9 00:25:53 2025.
