 Gaussian 16, Revision C.01,

 ----------------------------------------------------------------------
 #t hf aug-cc-pvdz symm=none int=(grid=ultrafine) guess=(read,tcheck) s
 table=(opt,rrhf)
 ----------------------------------------------------------------------
 -----
 title
 -----
 Symbolic Z-matrix:
 Charge =  0 Multiplicity = 1

 SCF Done:  E(RHF) =  -488.595348302     A.U. after   13 cycles
 Normal termination of Gaussian 16 at Tue Apr  8 23:02:47 2025.
 Gaussian 16:  ES64L-G16RevC.01  3-Jul-2019

 ----------------------------------------------------------------------
 #t hf aug-cc-pvdz iop(5/13=1,5/36=2,99/5=2) pseudo=read geom=check gue
 ss=(read,tcheck) scf=(maxcycle=1)
 ----------------------------------------------------------------------
 -----
 title
 -----
 Structure from the checkpoint file:  "BDE49_expt_221_mol1.chk"
 Charge =  0 Multiplicity = 1

                         Standard orientation:
 ---------------------------------------------------------------------
 Center     Atomic      Atomic             Coordinates (Angstroms)
 Number     Number       Type             X           Y           Z
 ---------------------------------------------------------------------
      1          6           0       -0.610409   -0.035299    0.000016
      2          6           0        0.907212    0.308010    0.000231
      3          8           0        1.249367    1.457917   -0.000001
      4          6           0        1.827571   -0.882780   -0.000018
      5          1           0        1.634170   -1.503450   -0.879226
      6          1           0        1.634433   -1.503586    0.879149
      7          1           0        2.861062   -0.541747   -0.000148
      8          9           0       -0.917581   -0.774074    1.089849
      9          9           0       -0.917254   -0.774227   -1.089806
     10          9           0       -1.373037    1.053396   -0.000170
 ---------------------------------------------------------------------

 SCF Done:  E(RHF) =  -490.440068695     A.U. after    2 cycles

 The electronic state is 1-A.
 Alpha  occ. eigenvalues --  -29.32700 -29.32666 -29.32405 -21.10230 -11.61609
 Alpha  occ. eigenvalues --  -11.52381 -11.41554  -1.75790  -1.42595  -1.14410
 Alpha  occ. eigenvalues --   -0.90625  -0.89845  -0.89296  -0.69780  -0.62368
 Alpha  occ. eigenvalues --   -0.59686  -0.54976  -0.49432  -0.47981  -0.44848
 Alpha  occ. eigenvalues --   -0.44188  -0.39720  -0.37270  -0.37079  -0.27889
 Alpha  occ. eigenvalues --   -0.27225  -0.26097  -0.22947
 Alpha virt. eigenvalues --    0.03640   0.05978   0.06016   0.09549   0.09858
 Alpha virt. eigenvalues --    0.11671   0.12197   0.12985   0.13059   0.14192
 Alpha virt. eigenvalues --    0.15404   0.15700   0.17371   0.17913   0.19753

 Mulliken charges:
               1
     1  C   -0.351680
     2  C    2.340513
     3  O   -3.084076
     4  C   -3.997720
     5  H    1.290331
     6  H    1.290376
     7  H    1.211658
     8  F    0.340295
     9  F    0.340383
    10  F    0.619920
 Sum of Mulliken charges =  -0.00000

 Dipole moment (field-independent basis, Debye):
    X=             -1.2705    Y=             -1.4808    Z=             -0.0005  Tot=              1.9512

 Test job not archived.
 1\1\GINC-SE059\SP\RHF\Aug-CC-pVDZ\C3H3F3O1\OHZDE\08-Apr-2025\0\\#t hf
 aug-cc-pvdz iop(5/13=1,5/36=2,99/5=2) pseudo=read geom=check guess=(re
 ad,tcheck) scf=(maxcycle=1)\\title\\0,1\C,0,-0.610409,-0.035299,0.0000
 16\C,0,0.907212,0.30801,0.000231\O,0,1.249367,1.457917,-0.000001\C,0,1
 .827571,-0.88278,-0.000018\H,0,1.63417,-1.50345,-0.879226\H,0,1.634433
 ,-1.503586,0.879149\H,0,2.861062,-0.541748,-0.000148\F,0,-0.917581,-0.
 774074,1.089849\F,0,-0.917254,-0.774227,-1.089806\F,0,-1.373037,1.0533
 96,-0.00017\\Version=ES64L-G16RevC.01\State=1-A\HF=-490.4400687\RMSD=1

 Normal termination of Gaussian 16 at Tue Apr  8 23:02:50 2025.
