 Gaussian 16, Revision C.01,

 ----------------------------------------------------------------------
 #t hf aug-cc-pvdz symm=none int=(grid=ultrafine) guess=(read,tcheck) s
 table=opt
 ----------------------------------------------------------------------
 -----
 title
 -----
 Symbolic Z-matrix:
 Charge =  0 Multiplicity = 2

 SCF Done:  E(UHF) =  -241.825862861     A.U. after   16 cycles
 Normal termination of Gaussian 16 at Wed Apr  9 00:32:28 2025.
 Gaussian 16:  ES64L-G16RevC.01  3-Jul-2019

 ----------------------------------------------------------------------
 #t hf aug-cc-pvdz iop(5/13=1,5/36=2,99/5=2) pseudo=read geom=check gue
 ss=(read,tcheck) scf=(maxcycle=1)
 ----------------------------------------------------------------------
 -----
 title
 -----
 Structure from the checkpoint file:  "BDE49_nonexpt_369_mol2.chk"
 Charge =  0 Multiplicity = 2

                         Standard orientation:
 ---------------------------------------------------------------------
 Center     Atomic      Atomic             Coordinates (Angstroms)
 Number     Number       Type             X           Y           Z
 ---------------------------------------------------------------------
      1          9           0        2.070849   -0.219016    0.065285
      2          5           0        0.890852   -0.810529    0.059316
      3          6           0       -0.433790   -0.060181   -0.330559
      4          6           0       -1.714414   -0.774312    0.131345
      5          1           0       -1.729470   -1.817573   -0.192558
      6          1           0       -2.605117   -0.280154   -0.268343
      7          1           0       -1.794165   -0.767693    1.222532
      8          6           0       -0.408293    1.429761    0.073912
      9          1           0       -0.402171   -0.108940   -1.434627
     10          1           0       -0.436786    1.541012    1.162065
     11          1           0       -1.277460    1.955552   -0.332623
     12          1           0        0.492243    1.929978   -0.288787
 ---------------------------------------------------------------------

 SCF Done:  E(UHF) =  -242.865004348     A.U. after    2 cycles

 The electronic state is 2-A.
 Alpha  occ. eigenvalues --  -29.25602 -11.40279 -11.38748 -11.34556  -7.66796
 Alpha  occ. eigenvalues --   -1.24443  -1.00744  -0.97678  -0.82194  -0.63849
 Alpha  occ. eigenvalues --   -0.60723  -0.57273  -0.53750  -0.48864  -0.47636
 Alpha  occ. eigenvalues --   -0.47257  -0.45740  -0.40529  -0.36124  -0.20593
 Alpha virt. eigenvalues --    0.03552   0.04050   0.04586   0.05351   0.06529
 Alpha virt. eigenvalues --    0.06811   0.07444   0.07628   0.07787   0.10403
 Alpha virt. eigenvalues --    0.12604   0.13503   0.14516   0.15379   0.15594

  Beta  occ. eigenvalues --  -29.25303 -11.40117 -11.38724 -11.34390  -7.64992
  Beta  occ. eigenvalues --   -1.23510  -1.00585  -0.94966  -0.81003  -0.63373
  Beta  occ. eigenvalues --   -0.60296  -0.56064  -0.53676  -0.48324  -0.46955
  Beta  occ. eigenvalues --   -0.46036  -0.40419  -0.39700  -0.33580
  Beta virt. eigenvalues --    0.03218   0.04114   0.04336   0.05360   0.06542
  Beta virt. eigenvalues --    0.06741   0.07381   0.07663   0.07827   0.09283
  Beta virt. eigenvalues --    0.11711   0.13259   0.14278   0.15216   0.15573

 Mulliken charges and spin densities:
               1          2
     1  F   -0.801949  -0.114678
     2  B    1.064095   1.067334
     3  C   -2.555366   0.155247
     4  C   -3.093849  -0.121912
     5  H    1.400349  -0.012653
     6  H    1.194702  -0.007860
     7  H    1.350220  -0.006453
     8  C   -3.801743   0.025248
     9  H    1.533995   0.010173
    10  H    1.184500   0.005775
    11  H    1.283533  -0.003810
    12  H    1.241512   0.003590
 Sum of Mulliken charges =  -0.00000   1.00000

 Dipole moment (field-independent basis, Debye):
    X=              2.4018    Y=              2.1649    Z=             -0.2728  Tot=              3.2450
                          Isotropic Fermi Contact Couplings
        Atom                 a.u.       MegaHertz       Gauss      10(-4) cm-1
     1  F(19)              0.05782     243.28673      86.81076      81.15172
     2  B(11)              0.16777     240.63637      85.86504      80.26765
     3  C(13)              0.07039      79.13093      28.23588      26.39524
     4  C(13)              0.00875       9.84216       3.51193       3.28299
     5  H(1)              -0.00014      -0.64166      -0.22896      -0.21404
     6  H(1)              -0.00044      -1.97556      -0.70493      -0.65898
     7  H(1)              -0.00011      -0.47811      -0.17060      -0.15948
     8  C(13)              0.00655       7.36893       2.62942       2.45801

 Normal termination of Gaussian 16 at Wed Apr  9 00:32:32 2025.
