 Gaussian 16, Revision C.01,

 ----------------------------------------------------------------------
 #t hf aug-cc-pvdz symm=none int=(grid=ultrafine) guess=(read,tcheck) s
 table=opt
 ----------------------------------------------------------------------
 -----
 title
 -----
 Symbolic Z-matrix:
 Charge =  0 Multiplicity = 2

 SCF Done:  E(UHF) =  -195.726634942     A.U. after   16 cycles
 Normal termination of Gaussian 16 at Tue Apr  8 22:38:52 2025.
 Gaussian 16:  ES64L-G16RevC.01  3-Jul-2019

 ----------------------------------------------------------------------
 #t hf aug-cc-pvdz iop(5/13=1,5/36=2,99/5=2) pseudo=read geom=check gue
 ss=(read,tcheck) scf=(maxcycle=1)
 ----------------------------------------------------------------------
 -----
 title
 -----
 Structure from the checkpoint file:  "BDE49_expt_11_mol2.chk"
 Charge =  0 Multiplicity = 2

                         Standard orientation:
 ---------------------------------------------------------------------
 Center     Atomic      Atomic             Coordinates (Angstroms)
 Number     Number       Type             X           Y           Z
 ---------------------------------------------------------------------
      1          6           0        2.615452   -0.222961   -0.072258
      2          6           0        1.293342    0.454285    0.049892
      3          1           0        2.601858   -0.998250   -0.848373
      4          1           0        2.908168   -0.732566    0.861865
      5          1           0        3.415481    0.482058   -0.312104
      6          6           0        0.020532   -0.323329    0.101065
      7          1           0        1.267384    1.503104    0.331357
      8          6           0       -1.244445    0.526974   -0.084007
      9          1           0       -0.055844   -0.861741    1.064793
     10          1           0        0.043363   -1.118481   -0.659254
     11          6           0       -2.537460   -0.288836   -0.010853
     12          1           0       -1.187491    1.044029   -1.048327
     13          1           0       -1.261635    1.310691    0.682562
     14          1           0       -2.563307   -1.060292   -0.786927
     15          1           0       -3.417589    0.345727   -0.145453
     16          1           0       -2.634911   -0.791079    0.956832
 ---------------------------------------------------------------------

 SCF Done:  E(UHF) =  -196.734141869     A.U. after    2 cycles

 The electronic state is 2-A.
 Alpha  occ. eigenvalues --  -11.41580 -11.39809 -11.37806 -11.35927 -11.33875
 Alpha  occ. eigenvalues --   -1.25183  -1.11970  -0.98964  -0.85954  -0.80710
 Alpha  occ. eigenvalues --   -0.64128  -0.60398  -0.57450  -0.55275  -0.55193
 Alpha  occ. eigenvalues --   -0.52479  -0.48335  -0.45971  -0.45175  -0.41609
 Alpha  occ. eigenvalues --   -0.28985
 Alpha virt. eigenvalues --    0.04036   0.04976   0.05673   0.06045   0.06096
 Alpha virt. eigenvalues --    0.06232   0.06543   0.07068   0.08521   0.08701
 Alpha virt. eigenvalues --    0.09565   0.10475   0.13565   0.13977   0.14654

  Beta  occ. eigenvalues --  -11.41372 -11.39246 -11.37950 -11.35499 -11.33209
  Beta  occ. eigenvalues --   -1.23357  -1.09938  -0.98846  -0.84774  -0.76926
  Beta  occ. eigenvalues --   -0.62997  -0.59891  -0.55221  -0.54430  -0.54181
  Beta  occ. eigenvalues --   -0.51762  -0.47868  -0.45503  -0.44735  -0.41111
  Beta virt. eigenvalues --    0.04042   0.04997   0.05532   0.06049   0.06086
  Beta virt. eigenvalues --    0.06227   0.06547   0.07056   0.08540   0.08710
  Beta virt. eigenvalues --    0.09456   0.10299   0.11619   0.13860   0.14465

 Mulliken charges and spin densities:
               1          2
     1  C   -4.366972  -0.396063
     2  C   -0.373212   1.804552
     3  H    1.231670   0.013770
     4  H    1.235309   0.034009
     5  H    1.206362  -0.002304
     6  C   -2.873491  -0.533528
     7  H    1.389518  -0.005018
     8  C   -2.796121   0.070719
     9  H    1.422201   0.026018
    10  H    1.460915   0.007297
    11  C   -4.141771  -0.007908
    12  H    1.456529  -0.004856
    13  H    1.477672  -0.005614
    14  H    1.326543  -0.000995
    15  H    1.078637   0.000949
    16  H    1.266212  -0.001028
 Sum of Mulliken charges =   0.00000   1.00000

 Dipole moment (field-independent basis, Debye):
    X=              0.0029    Y=              0.0406    Z=              0.1270  Tot=              0.1333
                          Isotropic Fermi Contact Couplings
        Atom                 a.u.       MegaHertz       Gauss      10(-4) cm-1
     1  C(13)             -0.03680     -41.36955     -14.76168     -13.79939
     2  C(13)              0.14354     161.36948      57.58064      53.82706
     3  H(1)               0.00873      39.00087      13.91648      13.00929
     4  H(1)               0.02031      90.78928      32.39587      30.28404
     5  H(1)               0.00355      15.85422       5.65718       5.28840
     6  C(13)             -0.03656     -41.09606     -14.66410     -13.70817
     7  H(1)              -0.01778     -79.48114     -28.36085     -26.51206
     8  C(13)              0.00801       9.00619       3.21363       3.00414

 Normal termination of Gaussian 16 at Tue Apr  8 22:38:57 2025.
