 Gaussian 16, Revision C.01,

 ----------------------------------------------------------------------
 #t hf aug-cc-pvdz symm=none int=(grid=ultrafine) guess=(read,tcheck) s
 table=(opt,rrhf)
 ----------------------------------------------------------------------
 -----
 title
 -----
 Symbolic Z-matrix:
 Charge =  0 Multiplicity = 1

 SCF Done:  E(RHF) =  -1138.09317691     A.U. after   14 cycles
 Normal termination of Gaussian 16 at Wed Apr  9 00:13:29 2025.
 Gaussian 16:  ES64L-G16RevC.01  3-Jul-2019

 ----------------------------------------------------------------------
 #t hf aug-cc-pvdz iop(5/13=1,5/36=2,99/5=2) pseudo=read geom=check gue
 ss=(read,tcheck) scf=(maxcycle=1)
 ----------------------------------------------------------------------
 -----
 title
 -----
 Structure from the checkpoint file:  "BDE49_nonexpt_2400_mol1.chk"
 Charge =  0 Multiplicity = 1

                         Standard orientation:
 ---------------------------------------------------------------------
 Center     Atomic      Atomic             Coordinates (Angstroms)
 Number     Number       Type             X           Y           Z
 ---------------------------------------------------------------------
      1         14           0       -0.516467   -1.051669    0.054180
      2         14           0        0.516469    1.051673    0.054183
      3          8           0        2.146343    0.902228   -0.546681
      4          1           0        0.597749    1.618539    1.411684
      5          1           0       -0.006368    2.016781   -0.927698
      6          7           0        2.914857   -0.122287   -0.009484
      7          8           0        2.339117   -0.865222    0.777439
      8          8           0        4.047777   -0.165671   -0.377784
      9          8           0       -2.146340   -0.902223   -0.546684
     10          1           0       -0.597748   -1.618538    1.411681
     11          1           0        0.006372   -2.016775   -0.927702
     12          7           0       -2.914856    0.122289   -0.009485
     13          8           0       -2.339124    0.865213    0.777454
     14          8           0       -4.047779    0.165666   -0.377778
 ---------------------------------------------------------------------

 SCF Done:  E(RHF) =  -1140.67385242     A.U. after    2 cycles

 The electronic state is 1-A.
 Alpha  occ. eigenvalues --  -76.28560 -76.28558 -21.15113 -21.15104 -21.14654
 Alpha  occ. eigenvalues --  -21.14652 -21.13516 -21.13509 -16.08039 -16.08026
 Alpha  occ. eigenvalues --   -5.61971  -5.61867  -2.27333  -2.27206  -2.24119
 Alpha  occ. eigenvalues --   -2.23795  -2.23788  -2.22558  -2.10047  -2.09972
 Alpha  occ. eigenvalues --   -1.76116  -1.75963  -1.74205  -1.74101  -0.96883
 Alpha  occ. eigenvalues --   -0.95628  -0.79988  -0.78196  -0.75026  -0.74709
 Alpha  occ. eigenvalues --   -0.74580  -0.70771  -0.68979  -0.66783  -0.53891
 Alpha  occ. eigenvalues --   -0.53044  -0.50628  -0.50344  -0.44368  -0.43394
 Alpha  occ. eigenvalues --   -0.39913  -0.39694  -0.37752  -0.36729  -0.35336
 Alpha  occ. eigenvalues --   -0.34047  -0.33564
 Alpha virt. eigenvalues --    0.04184   0.04476   0.05958   0.06342   0.06717
 Alpha virt. eigenvalues --    0.06831   0.07838   0.08258   0.08807   0.09248
 Alpha virt. eigenvalues --    0.11282   0.11405   0.12686   0.12947   0.13824

 Mulliken charges:
               1
     1  Si   4.876001
     2  Si   4.875995
     3  O   -2.766926
     4  H   -1.791842
     5  H   -1.793828
     6  N    6.593445
     7  O   -2.404133
     8  O   -2.712710
     9  O   -2.766935
    10  H   -1.791840
    11  H   -1.793833
    12  N    6.593454
    13  O   -2.404139
    14  O   -2.712709
 Sum of Mulliken charges =  -0.00000

 Dipole moment (field-independent basis, Debye):
    X=              0.0000    Y=             -0.0000    Z=             -0.5419  Tot=              0.5419

 Test job not archived.
 1\1\GINC-SE179\SP\RHF\Aug-CC-pVDZ\H4N2O6Si2\OHZDE\09-Apr-2025\0\\#t hf
  aug-cc-pvdz iop(5/13=1,5/36=2,99/5=2) pseudo=read geom=check guess=(r
 ead,tcheck) scf=(maxcycle=1)\\title\\0,1\Si,0,0.516467,1.051669,0.0541
 8\Si,0,-0.516469,-1.051673,0.054183\O,0,-2.146343,-0.902228,-0.546681\
 H,0,-0.597749,-1.618539,1.411684\H,0,0.006368,-2.016781,-0.927698\N,0,
 -2.914857,0.122287,-0.009484\O,0,-2.339117,0.865222,0.777439\O,0,-4.04
 7777,0.165671,-0.377784\O,0,2.14634,0.902223,-0.546684\H,0,0.597748,1.
 618538,1.411681\H,0,-0.006372,2.016775,-0.927702\N,0,2.914856,-0.12228

 Normal termination of Gaussian 16 at Wed Apr  9 00:13:36 2025.
