 Gaussian 16, Revision C.01,

 ----------------------------------------------------------------------
 #t hf aug-cc-pvdz symm=none int=(grid=ultrafine) guess=(read,tcheck) s
 table=(opt,rrhf)
 ----------------------------------------------------------------------
 -----
 title
 -----
 Symbolic Z-matrix:
 Charge =  0 Multiplicity = 1

 SCF Done:  E(RHF) =  -549.596421368     A.U. after   11 cycles
 Normal termination of Gaussian 16 at Tue Apr  8 22:52:39 2025.
 Gaussian 16:  ES64L-G16RevC.01  3-Jul-2019

 ----------------------------------------------------------------------
 #t hf aug-cc-pvdz iop(5/13=1,5/36=2,99/5=2) pseudo=read geom=check gue
 ss=(read,tcheck) scf=(maxcycle=1)
 ----------------------------------------------------------------------
 -----
 title
 -----
 Structure from the checkpoint file:  "BDE49_expt_173_mol1.chk"
 Charge =  0 Multiplicity = 1

                         Standard orientation:
 ---------------------------------------------------------------------
 Center     Atomic      Atomic             Coordinates (Angstroms)
 Number     Number       Type             X           Y           Z
 ---------------------------------------------------------------------
      1          6           0       -0.972786   -0.000044   -0.226352
      2          8           0       -0.026048   -0.000194    0.794044
      3          9           0       -1.753183    1.088911   -0.074500
      4          9           0       -1.753584   -1.088688   -0.074376
      5          1           0       -0.529865   -0.000178   -1.221185
      6          6           0        1.290617   -0.000081    0.415675
      7          9           0        1.582775    1.088566   -0.346629
      8          9           0        1.582866   -1.088492   -0.346936
      9          1           0        1.901404   -0.000184    1.314861
 ---------------------------------------------------------------------

 SCF Done:  E(RHF) =  -551.581244745     A.U. after    2 cycles

 The electronic state is 1-A.
 Alpha  occ. eigenvalues --  -29.31613 -29.31573 -29.30677 -29.30637 -21.12700
 Alpha  occ. eigenvalues --  -11.57894 -11.56695  -1.90307  -1.32113  -1.18799
 Alpha  occ. eigenvalues --   -0.88481  -0.85941  -0.82804  -0.79508  -0.71824
 Alpha  occ. eigenvalues --   -0.54394  -0.46945  -0.46814  -0.45676  -0.41917
 Alpha  occ. eigenvalues --   -0.37160  -0.35318  -0.35032  -0.32990  -0.32853
 Alpha  occ. eigenvalues --   -0.27992  -0.27020  -0.23661  -0.23104
 Alpha virt. eigenvalues --    0.04196   0.05619   0.10028   0.10740   0.11576
 Alpha virt. eigenvalues --    0.11687   0.13438   0.13689   0.19165   0.20448
 Alpha virt. eigenvalues --    0.21140   0.21737   0.23714   0.24660   0.25499

 Mulliken charges:
               1
     1  C   -1.452172
     2  O   -2.717115
     3  F    0.433757
     4  F    0.433750
     5  H    1.529300
     6  C   -0.478948
     7  F    0.405111
     8  F    0.405097
     9  H    1.441220
 Sum of Mulliken charges =  -0.00000

 Dipole moment (field-independent basis, Debye):
    X=             -0.1429    Y=              0.0006    Z=             -1.7156  Tot=              1.7216

 Test job not archived.
 1\1\GINC-SE229\SP\RHF\Aug-CC-pVDZ\C2H2F4O1\OHZDE\08-Apr-2025\0\\#t hf
 aug-cc-pvdz iop(5/13=1,5/36=2,99/5=2) pseudo=read geom=check guess=(re
 ad,tcheck) scf=(maxcycle=1)\\title\\0,1\C,0,-0.972786,-0.000044,-0.226
 352\O,0,-0.026048,-0.000194,0.794044\F,0,-1.753183,1.088911,-0.0745\F,
 0,-1.753584,-1.088688,-0.074376\H,0,-0.529865,-0.000178,-1.221185\C,0,
 1.290617,-0.000081,0.415675\F,0,1.582775,1.088566,-0.346629\F,0,1.5828
 66,-1.088492,-0.346936\H,0,1.901404,-0.000184,1.314861\\Version=ES64L-
 G16RevC.01\State=1-A\HF=-551.5812447\RMSD=5.206e-02\Dipole=-0.056214,0

 Normal termination of Gaussian 16 at Tue Apr  8 22:52:43 2025.
