 Gaussian 16, Revision C.01,

 ----------------------------------------------------------------------
 #t hf aug-cc-pvdz symm=none int=(grid=ultrafine) guess=(read,tcheck) s
 table=(opt,rrhf)
 ----------------------------------------------------------------------
 -----
 title
 -----
 Symbolic Z-matrix:
 Charge =  0 Multiplicity = 1

 SCF Done:  E(RHF) =  -1167.48384454     A.U. after   12 cycles

 1\1\GINC-SE423\Stability\RHF\Aug-CC-pVDZ\B2Cl2F2\OHZDE\08-Apr-2025\0\\
 #t hf aug-cc-pvdz symm=none int=(grid=ultrafine) guess=(read,tcheck) s
 table=(opt,rrhf)\\title\\0,1\B,0,0.,0.,1.352966\B,0,0.,0.,-0.34436\Cl,
 0,0.,-1.515982,-1.231857\Cl,0,0.,1.515982,-1.231857\F,0,-1.128283,0.00
 0012,2.046672\F,0,1.128283,-0.000012,2.046672\\Version=ES64L-G16RevC.0
 1\HF=-1167.4838445\RMSD=3.752e-09\Dipole=0.,0.,-0.2169435\Quadrupole=0
 .3567501,1.8553901,-2.2121402,0.0000333,0.,0.\PG=Unknown\\@
 The archive entry for this job was punched.

 Normal termination of Gaussian 16 at Tue Apr  8 23:48:16 2025.
 Gaussian 16:  ES64L-G16RevC.01  3-Jul-2019

 ----------------------------------------------------------------------
 #t hf aug-cc-pvdz iop(5/13=1,5/36=2,99/5=2) pseudo=read geom=check gue
 ss=(read,tcheck) scf=(maxcycle=1)
 ----------------------------------------------------------------------
 -----
 title
 -----
 Structure from the checkpoint file:  "BDE49_nonexpt_17_mol1.chk"
 Charge =  0 Multiplicity = 1

                         Standard orientation:
 ---------------------------------------------------------------------
 Center     Atomic      Atomic             Coordinates (Angstroms)
 Number     Number       Type             X           Y           Z
 ---------------------------------------------------------------------
      1          5           0       -0.000000   -0.000000    1.352966
      2          5           0        0.000000    0.000000   -0.344360
      3         17           0        0.000000    1.515982   -1.231857
      4         17           0       -0.000000   -1.515982   -1.231857
      5          9           0        1.128283   -0.000012    2.046672
      6          9           0       -1.128283    0.000012    2.046672
 ---------------------------------------------------------------------

 SCF Done:  E(RHF) =  -1168.84167609     A.U. after    2 cycles

 The electronic state is 1-A.
 Alpha  occ. eigenvalues --  -99.92099 -99.92081 -29.27524 -29.27427 -10.49458
 Alpha  occ. eigenvalues --  -10.49267  -9.69418  -9.69183  -9.68865  -9.68859
 Alpha  occ. eigenvalues --   -9.68729  -9.68629  -7.72456  -7.71209  -1.41756
 Alpha  occ. eigenvalues --   -1.31529  -1.14828  -0.83846  -0.76281  -0.66310
 Alpha  occ. eigenvalues --   -0.65313  -0.59255  -0.54193  -0.52734  -0.52679
 Alpha  occ. eigenvalues --   -0.50371  -0.46505  -0.46242  -0.35563  -0.35193
 Alpha  occ. eigenvalues --   -0.27227
 Alpha virt. eigenvalues --    0.02478   0.02480   0.02620   0.04023   0.05660
 Alpha virt. eigenvalues --    0.08108   0.08951   0.10303   0.10620   0.12890
 Alpha virt. eigenvalues --    0.12996   0.15043   0.16281   0.16364   0.17145

 Mulliken charges:
               1
     1  B    1.695264
     2  B    0.300482
     3  Cl  -1.151525
     4  Cl  -1.151525
     5  F    0.153652
     6  F    0.153652
 Sum of Mulliken charges =  -0.00000

 Dipole moment (field-independent basis, Debye):
    X=             -0.0000    Y=             -0.0000    Z=              2.9900  Tot=              2.9900

 Test job not archived.
 1\1\GINC-SE423\SP\RHF\Aug-CC-pVDZ\B2Cl2F2\OHZDE\08-Apr-2025\0\\#t hf a
 ug-cc-pvdz iop(5/13=1,5/36=2,99/5=2) pseudo=read geom=check guess=(rea
 d,tcheck) scf=(maxcycle=1)\\title\\0,1\B,0,0.,0.,1.352966\B,0,0.,0.,-0
 .34436\Cl,0,0.,-1.515982,-1.231857\Cl,0,0.,1.515982,-1.231857\F,0,-1.1
 28283,0.000012,2.046672\F,0,1.128283,-0.000012,2.046672\\Version=ES64L
 -G16RevC.01\State=1-A\HF=-1168.8416761\RMSD=3.161e-01\Dipole=0.,0.,1.1
 763383\Quadrupole=2.3218884,-2.8885016,0.5666132,-0.0000524,0.,0.\PG=C
 02 [C2(B1B1),X(Cl2F2)]\\@

 Normal termination of Gaussian 16 at Tue Apr  8 23:48:17 2025.
