 Gaussian 16, Revision C.01,

 ----------------------------------------------------------------------
 #t hf aug-cc-pvdz symm=none int=(grid=ultrafine) guess=(read,tcheck) s
 table=(opt,rrhf)
 ----------------------------------------------------------------------
 -----
 title
 -----
 Symbolic Z-matrix:
 Charge =  0 Multiplicity = 1

 SCF Done:  E(RHF) =  -971.594280101     A.U. after   14 cycles
 Normal termination of Gaussian 16 at Tue Apr  8 23:33:48 2025.
 Gaussian 16:  ES64L-G16RevC.01  3-Jul-2019

 ----------------------------------------------------------------------
 #t hf aug-cc-pvdz iop(5/13=1,5/36=2,99/5=2) pseudo=read geom=check gue
 ss=(read,tcheck) scf=(maxcycle=1)
 ----------------------------------------------------------------------
 -----
 title
 -----
 Structure from the checkpoint file:  "BDE49_nonexpt_1366_mol1.chk"
 Charge =  0 Multiplicity = 1

                         Standard orientation:
 ---------------------------------------------------------------------
 Center     Atomic      Atomic             Coordinates (Angstroms)
 Number     Number       Type             X           Y           Z
 ---------------------------------------------------------------------
      1          9           0        2.501129   -1.004493   -0.668470
      2         15           0        1.031441   -1.731675   -0.632363
      3          6           0        0.641695   -1.567692    1.147287
      4          6           0        0.052958   -0.432005    0.342252
      5          6           0        0.704246    0.919010    0.496577
      6          8           0        1.351912    1.250315    1.456964
      7          8           0        0.504829    1.686992   -0.583646
      8          6           0        1.074716    3.007663   -0.519545
      9          6           0       -1.409775   -0.554839    0.067798
     10          8           0       -1.947079   -1.628220   -0.098168
     11          8           0       -2.053573    0.618259    0.052864
     12          6           0       -3.468900    0.550701   -0.214934
     13          1           0        1.466352   -1.283872    1.791818
     14          1           0       -0.056735   -2.289664    1.553654
     15          1           0        2.157009    2.947064   -0.399027
     16          1           0        0.650309    3.564792    0.316912
     17          1           0        0.817563    3.479150   -1.465031
     18          1           0       -3.972068   -0.044624    0.547729
     19          1           0       -3.814586    1.581179   -0.190803
     20          1           0       -3.647980    0.105740   -1.194299
 ---------------------------------------------------------------------

 SCF Done:  E(RHF) =  -974.421470314     A.U. after    2 cycles

 The electronic state is 1-A.
 Alpha  occ. eigenvalues -- -105.26300 -29.27694 -21.10804 -21.09843 -21.06087
 Alpha  occ. eigenvalues --  -21.05994 -11.56573 -11.54628 -11.46314 -11.42880
 Alpha  occ. eigenvalues --  -11.42126 -11.41889  -2.84414  -1.86980  -1.84214
 Alpha  occ. eigenvalues --   -1.68177  -1.67236  -1.60925  -1.56693  -1.48664
 Alpha  occ. eigenvalues --   -1.19526  -1.04791  -1.03508  -0.93299  -0.83821
 Alpha  occ. eigenvalues --   -0.79667  -0.72433  -0.71057  -0.65189  -0.63887
 Alpha  occ. eigenvalues --   -0.63111  -0.61647  -0.58636  -0.57782  -0.54537
 Alpha  occ. eigenvalues --   -0.53628  -0.53349  -0.51655  -0.45878  -0.45244
 Alpha  occ. eigenvalues --   -0.41885  -0.34674  -0.34204  -0.33711  -0.33326
 Alpha  occ. eigenvalues --   -0.31963  -0.29264  -0.23879  -0.17830  -0.03863
 Alpha virt. eigenvalues --    0.03588   0.04544   0.05168   0.05605   0.06058
 Alpha virt. eigenvalues --    0.06640   0.07166   0.07772   0.08284   0.08665
 Alpha virt. eigenvalues --    0.10524   0.11311   0.11450   0.12371   0.12749

 Mulliken charges:
               1
     1  F   -0.784956
     2  P    3.121252
     3  C   -5.226360
     4  C   -2.777796
     5  C    8.608704
     6  O   -3.612166
     7  O   -3.628712
     8  C   -3.062362
     9  C    6.755240
    10  O   -3.351549
    11  O   -3.209441
    12  C   -3.158709
    13  H    1.089530
    14  H    1.018546
    15  H    1.327844
    16  H    1.317581
    17  H    1.464775
    18  H    1.375947
    19  H    1.361957
    20  H    1.370674
 Sum of Mulliken charges =  -0.00000

 Dipole moment (field-independent basis, Debye):
    X=              3.7801    Y=             -0.4364    Z=             -4.8748  Tot=              6.1841

 Test job not archived.
 1\1\GINC-SE165\SP\RHF\Aug-CC-pVDZ\C6H8F1O4P1\OHZDE\08-Apr-2025\0\\#t h
 f aug-cc-pvdz iop(5/13=1,5/36=2,99/5=2) pseudo=read geom=check guess=(
 read,tcheck) scf=(maxcycle=1)\\title\\0,1\F,0,2.501129,-1.004492,-0.66
 847\P,0,1.031442,-1.731674,-0.632363\C,0,0.641696,-1.567692,1.147287\C
 ,0,0.052958,-0.432005,0.342252\C,0,0.704246,0.91901,0.496577\O,0,1.351
 911,1.250316,1.456964\O,0,0.504828,1.686992,-0.583646\C,0,1.074715,3.0
 07664,-0.519545\C,0,-1.409775,-0.554839,0.067798\O,0,-1.947078,-1.6282
 21,-0.098168\O,0,-2.053573,0.618258,0.052864\C,0,-3.4689,0.5507,-0.214

 Normal termination of Gaussian 16 at Tue Apr  8 23:34:03 2025.
