 Gaussian 16, Revision C.01,

 ----------------------------------------------------------------------
 #t hf aug-cc-pvdz symm=none int=(grid=ultrafine) guess=(read,tcheck) s
 table=(opt,rrhf)
 ----------------------------------------------------------------------
 -----
 title
 -----
 Symbolic Z-matrix:
 Charge =  0 Multiplicity = 1

 SCF Done:  E(RHF) =  -198.615451885     A.U. after   12 cycles
 Normal termination of Gaussian 16 at Wed Apr  9 00:39:05 2025.
 Gaussian 16:  ES64L-G16RevC.01  3-Jul-2019

 ----------------------------------------------------------------------
 #t hf aug-cc-pvdz iop(5/13=1,5/36=2,99/5=2) pseudo=read geom=check gue
 ss=(read,tcheck) scf=(maxcycle=1)
 ----------------------------------------------------------------------
 -----
 title
 -----
 Structure from the checkpoint file:  "BDE49_nonexpt_586_mol1.chk"
 Charge =  0 Multiplicity = 1

                         Standard orientation:
 ---------------------------------------------------------------------
 Center     Atomic      Atomic             Coordinates (Angstroms)
 Number     Number       Type             X           Y           Z
 ---------------------------------------------------------------------
      1          5           0        2.210128   -0.000000   -0.189395
      2          7           0        0.945355   -0.000002    0.380833
      3          6           0       -0.349266   -0.000000   -0.308273
      4          6           0       -1.143024   -1.268965    0.024806
      5          1           0       -1.366412   -1.319027    1.096414
      6          1           0       -0.575818   -2.162512   -0.244847
      7          6           0       -1.143022    1.268967    0.024807
      8          1           0       -2.094334   -1.286831   -0.514057
      9          1           0       -0.119089    0.000000   -1.377362
     10          1           0       -2.094332    1.286833   -0.514056
     11          1           0       -1.366409    1.319028    1.096415
     12          1           0       -0.575815    2.162513   -0.244846
     13          1           0        3.166181    0.000001    0.524516
     14          1           0        2.312077    0.000004   -1.379270
     15          1           0        0.857700   -0.000003    1.390197
 ---------------------------------------------------------------------

 SCF Done:  E(RHF) =  -199.627230158     A.U. after    2 cycles

 The electronic state is 1-A.
 Alpha  occ. eigenvalues --  -15.70574 -11.43168 -11.38857 -11.35525  -7.58888
 Alpha  occ. eigenvalues --   -1.39560  -1.14810  -1.00656  -0.86528  -0.80597
 Alpha  occ. eigenvalues --   -0.63040  -0.61960  -0.57909  -0.55443  -0.53945
 Alpha  occ. eigenvalues --   -0.48459  -0.47786  -0.46311  -0.42781  -0.36417
 Alpha virt. eigenvalues --    0.03517   0.03715   0.04442   0.04747   0.06092
 Alpha virt. eigenvalues --    0.06156   0.06848   0.07089   0.07098   0.09198
 Alpha virt. eigenvalues --    0.09648   0.10934   0.11557   0.12838   0.14496

 Mulliken charges:
               1
     1  B    7.216278
     2  N   -2.943684
     3  C   -0.754574
     4  C   -3.540349
     5  H    1.270627
     6  H    1.256322
     7  C   -3.540353
     8  H    1.218877
     9  H    1.890039
    10  H    1.218877
    11  H    1.270627
    12  H    1.256321
    13  H   -3.789616
    14  H   -3.138104
    15  H    1.108713
 Sum of Mulliken charges =   0.00000

 Dipole moment (field-independent basis, Debye):
    X=             -1.6467    Y=             -0.0000    Z=              0.6068  Tot=              1.7549

 Test job not archived.
 1\1\GINC-SE179\SP\RHF\Aug-CC-pVDZ\C3H10B1N1\OHZDE\09-Apr-2025\0\\#t hf
  aug-cc-pvdz iop(5/13=1,5/36=2,99/5=2) pseudo=read geom=check guess=(r
 ead,tcheck) scf=(maxcycle=1)\\title\\0,1\B,0,2.210128,-0.000001,-0.189
 395\N,0,0.945355,-0.000002,0.380833\C,0,-0.349266,0.,-0.308273\C,0,-1.
 143024,-1.268965,0.024806\H,0,-1.366412,-1.319027,1.096414\H,0,-0.5758
 19,-2.162512,-0.244847\C,0,-1.143022,1.268967,0.024807\H,0,-2.094334,-
 1.28683,-0.514057\H,0,-0.119089,0.,-1.377362\H,0,-2.094332,1.286834,-0
 .514056\H,0,-1.366409,1.319028,1.096415\H,0,-0.575814,2.162513,-0.2448

 Normal termination of Gaussian 16 at Wed Apr  9 00:39:09 2025.
