 Gaussian 16, Revision C.01,

 ----------------------------------------------------------------------
 #t hf aug-cc-pvdz symm=none int=(grid=ultrafine) guess=(read,tcheck) s
 table=(opt,rrhf)
 ----------------------------------------------------------------------
 -----
 title
 -----
 Symbolic Z-matrix:
 Charge =  0 Multiplicity = 1

 SCF Done:  E(RHF) =  -1086.00233941     A.U. after   15 cycles
 Normal termination of Gaussian 16 at Tue Apr  8 23:36:07 2025.
 Gaussian 16:  ES64L-G16RevC.01  3-Jul-2019

 ----------------------------------------------------------------------
 #t hf aug-cc-pvdz iop(5/13=1,5/36=2,99/5=2) pseudo=read geom=check gue
 ss=(read,tcheck) scf=(maxcycle=1)
 ----------------------------------------------------------------------
 -----
 title
 -----
 Structure from the checkpoint file:  "BDE49_nonexpt_1481_mol1.chk"
 Charge =  0 Multiplicity = 1

                         Standard orientation:
 ---------------------------------------------------------------------
 Center     Atomic      Atomic             Coordinates (Angstroms)
 Number     Number       Type             X           Y           Z
 ---------------------------------------------------------------------
      1          6           0        1.858189   -0.037263   -0.000002
      2          6           0        1.358322    1.259748    0.000002
      3          6           0       -0.015387    1.465490    0.000002
      4          6           0        0.989660   -1.122429   -0.000006
      5          6           0       -0.384879   -0.914381   -0.000006
      6          6           0       -0.912559    0.385529   -0.000002
      7          1           0        2.036150    2.103751    0.000005
      8          1           0       -0.398541    2.481056    0.000005
      9          1           0        1.383915   -2.130656   -0.000009
     10          1           0       -1.048482   -1.769638   -0.000010
     11          7           0       -2.288847    0.646466   -0.000004
     12         15           0       -3.546820   -0.525253    0.000008
     13          1           0       -2.522483    1.628058   -0.000001
     14         17           0        3.596795   -0.305435   -0.000001
     15          1           0       -4.365969    0.006602   -1.032676
     16          1           0       -4.365953    0.006601    1.032705
 ---------------------------------------------------------------------

 SCF Done:  E(RHF) =  -1087.80023995     A.U. after    2 cycles

 The electronic state is 1-A.
 Alpha  occ. eigenvalues -- -105.21477 -99.88594 -15.75880 -11.52696 -11.46634
 Alpha  occ. eigenvalues --  -11.44934 -11.44061 -11.41542 -11.37632 -10.45921
 Alpha  occ. eigenvalues --   -9.65967  -9.65064  -9.64893  -2.78426  -1.58954
 Alpha  occ. eigenvalues --   -1.47362  -1.45835  -1.40335  -1.31547  -1.21291
 Alpha  occ. eigenvalues --   -1.10830  -1.03871  -0.89423  -0.85466  -0.75091
 Alpha  occ. eigenvalues --   -0.72007  -0.68214  -0.61516  -0.59433  -0.59177
 Alpha  occ. eigenvalues --   -0.57088  -0.52881  -0.51025  -0.49328  -0.45375
 Alpha  occ. eigenvalues --   -0.43606  -0.34504  -0.31979  -0.28701  -0.26822
 Alpha  occ. eigenvalues --   -0.03794
 Alpha virt. eigenvalues --    0.03376   0.05029   0.05399   0.06337   0.07378
 Alpha virt. eigenvalues --    0.07398   0.07800   0.09159   0.09316   0.09571
 Alpha virt. eigenvalues --    0.11049   0.11533   0.11649   0.12679   0.13143

 Mulliken charges:
               1
     1  C   -2.163870
     2  C   -0.984277
     3  C   -1.117109
     4  C   -0.650041
     5  C   -0.597590
     6  C    1.597007
     7  H    1.797173
     8  H    1.802100
     9  H    1.820973
    10  H    1.891007
    11  N   -3.404385
    12  P    1.704723
    13  H    0.684673
    14  Cl  -0.843944
    15  H   -0.768224
    16  H   -0.768215
 Sum of Mulliken charges =  -0.00000

 Dipole moment (field-independent basis, Debye):
    X=             -1.5169    Y=             -0.9429    Z=             -0.0000  Tot=              1.7860

 Test job not archived.
 1\1\GINC-SE080\SP\RHF\Aug-CC-pVDZ\C6H7Cl1N1P1\OHZDE\08-Apr-2025\0\\#t
 hf aug-cc-pvdz iop(5/13=1,5/36=2,99/5=2) pseudo=read geom=check guess=
 (read,tcheck) scf=(maxcycle=1)\\title\\0,1\C,0,1.858189,-0.037263,-0.0
 00002\C,0,1.358322,1.259748,0.000002\C,0,-0.015387,1.46549,0.000002\C,
 0,0.98966,-1.122429,-0.000006\C,0,-0.384879,-0.914381,-0.000006\C,0,-0
 .912559,0.385529,-0.000002\H,0,2.03615,2.103751,0.000005\H,0,-0.398541
 ,2.481056,0.000005\H,0,1.383915,-2.130656,-0.000009\H,0,-1.048482,-1.7
 69638,-0.00001\N,0,-2.288847,0.646466,-0.000004\P,0,-3.54682,-0.525253

 Normal termination of Gaussian 16 at Tue Apr  8 23:36:14 2025.
