 Gaussian 16, Revision C.01,

 ----------------------------------------------------------------------
 #t hf aug-cc-pvdz symm=none int=(grid=ultrafine) guess=(read,tcheck) s
 table=(opt,rrhf)
 ----------------------------------------------------------------------
 -----
 title
 -----
 Symbolic Z-matrix:
 Charge =  0 Multiplicity = 1

 SCF Done:  E(RHF) =  -710.663935902     A.U. after   12 cycles
 Normal termination of Gaussian 16 at Tue Apr  8 23:42:23 2025.
 Gaussian 16:  ES64L-G16RevC.01  3-Jul-2019

 ----------------------------------------------------------------------
 #t hf aug-cc-pvdz iop(5/13=1,5/36=2,99/5=2) pseudo=read geom=check gue
 ss=(read,tcheck) scf=(maxcycle=1)
 ----------------------------------------------------------------------
 -----
 title
 -----
 Structure from the checkpoint file:  "BDE49_nonexpt_1666_mol1.chk"
 Charge =  0 Multiplicity = 1

                         Standard orientation:
 ---------------------------------------------------------------------
 Center     Atomic      Atomic             Coordinates (Angstroms)
 Number     Number       Type             X           Y           Z
 ---------------------------------------------------------------------
      1         14           0        0.864770    0.616886   -0.031562
      2         15           0       -0.944381   -0.763002   -0.141430
      3          6           0       -2.324767    0.486834    0.087054
      4          1           0       -3.258420   -0.051033    0.263851
      5          1           0       -2.438118    1.053194   -0.839768
      6          1           0       -2.156761    1.184557    0.908469
      7          6           0        2.453248   -0.387273    0.064278
      8          1           0        2.479801   -0.995734    0.972137
      9          1           0        3.324553    0.273426    0.076079
     10          1           0        2.545653   -1.055798   -0.795360
     11          1           0       -0.835748   -1.185917    1.210886
     12          1           0        0.774330    1.546475    1.125776
     13          1           0        0.852757    1.442101   -1.266746
 ---------------------------------------------------------------------

 SCF Done:  E(RHF) =  -711.452847483     A.U. after    2 cycles

 The electronic state is 1-A.
 Alpha  occ. eigenvalues -- -105.15751 -76.21379 -11.37313 -11.35226  -5.54977
 Alpha  occ. eigenvalues --   -2.73299  -2.18376  -2.16907  -2.16710  -1.45156
 Alpha  occ. eigenvalues --   -1.42440  -1.40767  -1.04135  -1.00346  -0.74104
 Alpha  occ. eigenvalues --   -0.63991  -0.56523  -0.56216  -0.56007  -0.55679
 Alpha  occ. eigenvalues --   -0.46388  -0.42489  -0.23390  -0.14049  -0.02076
 Alpha virt. eigenvalues --    0.03726   0.04516   0.05949   0.06564   0.06810
 Alpha virt. eigenvalues --    0.07396   0.07744   0.07974   0.08424   0.08951
 Alpha virt. eigenvalues --    0.09592   0.11432   0.11639   0.12797   0.13987

 Mulliken charges:
               1
     1  Si   4.751253
     2  P    2.746034
     3  C   -5.452525
     4  H    1.235005
     5  H    1.234478
     6  H    1.271165
     7  C   -4.954700
     8  H    1.376209
     9  H    1.197148
    10  H    1.291504
    11  H   -0.938052
    12  H   -1.930381
    13  H   -1.827137
 Sum of Mulliken charges =  -0.00000

 Dipole moment (field-independent basis, Debye):
    X=             -2.1039    Y=             -3.4083    Z=             -1.3832  Tot=              4.2375

 Test job not archived.
 1\1\GINC-SE331\SP\RHF\Aug-CC-pVDZ\C2H9P1Si1\OHZDE\08-Apr-2025\0\\#t hf
  aug-cc-pvdz iop(5/13=1,5/36=2,99/5=2) pseudo=read geom=check guess=(r
 ead,tcheck) scf=(maxcycle=1)\\title\\0,1\Si,0,0.86477,0.616886,-0.0315
 62\P,0,-0.944381,-0.763002,-0.14143\C,0,-2.324767,0.486834,0.087054\H,
 0,-3.25842,-0.051033,0.263851\H,0,-2.438118,1.053194,-0.839768\H,0,-2.
 156761,1.184557,0.908469\C,0,2.453248,-0.387273,0.064278\H,0,2.479801,
 -0.995734,0.972137\H,0,3.324553,0.273426,0.076079\H,0,2.545653,-1.0557
 98,-0.79536\H,0,-0.835748,-1.185917,1.210886\H,0,0.77433,1.546475,1.12

 Normal termination of Gaussian 16 at Tue Apr  8 23:42:26 2025.
