 Gaussian 16, Revision C.01,

 ----------------------------------------------------------------------
 #t hf aug-cc-pvdz symm=none int=(grid=ultrafine) guess=(read,tcheck) s
 table=(opt,rrhf)
 ----------------------------------------------------------------------
 -----
 title
 -----
 Symbolic Z-matrix:
 Charge =  0 Multiplicity = 1

 SCF Done:  E(RHF) =  -647.689418245     A.U. after   13 cycles
 Normal termination of Gaussian 16 at Tue Apr  8 23:38:42 2025.
 Gaussian 16:  ES64L-G16RevC.01  3-Jul-2019

 ----------------------------------------------------------------------
 #t hf aug-cc-pvdz iop(5/13=1,5/36=2,99/5=2) pseudo=read geom=check gue
 ss=(read,tcheck) scf=(maxcycle=1)
 ----------------------------------------------------------------------
 -----
 title
 -----
 Structure from the checkpoint file:  "BDE49_nonexpt_1527_mol1.chk"
 Charge =  0 Multiplicity = 1

                         Standard orientation:
 ---------------------------------------------------------------------
 Center     Atomic      Atomic             Coordinates (Angstroms)
 Number     Number       Type             X           Y           Z
 ---------------------------------------------------------------------
      1          6           0        0.991827   -0.840006    1.700420
      2          7           0        0.301845   -0.162587    0.604625
      3          1           0        1.805863   -0.224290    2.099058
      4          1           0        1.409316   -1.814709    1.413589
      5          1           0        0.274336   -1.006062    2.504291
      6         15           0       -1.413167   -0.172310    0.512147
      7          7           0        1.061983    0.255023   -0.518682
      8          6           0        1.793932   -0.829398   -1.170795
      9          1           0        1.111669   -1.652340   -1.385272
     10          1           0        2.636321   -1.217286   -0.573901
     11          1           0        2.196623   -0.460757   -2.117824
     12          6           0        1.919155    1.398946   -0.215750
     13          1           0        2.347837    1.775564   -1.148421
     14          1           0        1.317598    2.188566    0.234425
     15          1           0        2.752743    1.158957    0.465777
     16          6           0       -1.780036   -1.064746   -1.075111
     17          1           0       -1.215870   -0.650413   -1.914745
     18          1           0       -2.849443   -0.976285   -1.288268
     19          1           0       -1.547581   -2.126752   -0.966373
     20          6           0       -1.765331    1.546150   -0.078298
     21          1           0       -2.825088    1.622650   -0.337641
     22          1           0       -1.558677    2.258495    0.723254
     23          1           0       -1.162219    1.796584   -0.954539
 ---------------------------------------------------------------------

 SCF Done:  E(RHF) =  -649.464222151     A.U. after    2 cycles

 The electronic state is 1-A.
 Alpha  occ. eigenvalues -- -105.16787 -15.72351 -15.70731 -11.38634 -11.38221
 Alpha  occ. eigenvalues --  -11.37640 -11.35537 -11.35439  -2.75217  -1.58372
 Alpha  occ. eigenvalues --   -1.46877  -1.46441  -1.42325  -1.18909  -1.03680
 Alpha  occ. eigenvalues --   -1.02479  -0.96333  -0.95451  -0.80689  -0.68293
 Alpha  occ. eigenvalues --   -0.63746  -0.63007  -0.59724  -0.57600  -0.56576
 Alpha  occ. eigenvalues --   -0.55857  -0.55522  -0.54053  -0.53541  -0.53212
 Alpha  occ. eigenvalues --   -0.50970  -0.49284  -0.34318  -0.32844  -0.23602
 Alpha  occ. eigenvalues --   -0.19615  -0.00678
 Alpha virt. eigenvalues --    0.04619   0.05603   0.05756   0.05809   0.06083
 Alpha virt. eigenvalues --    0.06212   0.06290   0.06474   0.07205   0.07409
 Alpha virt. eigenvalues --    0.08252   0.08343   0.09143   0.09299   0.10520

 Mulliken charges:
               1
     1  C   -4.414598
     2  N   -0.453674
     3  H    1.417772
     4  H    1.404892
     5  H    1.443292
     6  P    7.115753
     7  N   -2.141430
     8  C   -3.743373
     9  H    1.668210
    10  H    1.389039
    11  H    1.420315
    12  C   -3.888197
    13  H    1.412002
    14  H    1.668032
    15  H    1.423009
    16  C   -6.279673
    17  H    1.181506
    18  H    1.052689
    19  H    1.101858
    20  C   -6.190533
    21  H    1.074637
    22  H    1.054302
    23  H    1.284170
 Sum of Mulliken charges =   0.00000

 Dipole moment (field-independent basis, Debye):
    X=              1.8169    Y=             -0.8709    Z=              2.1145  Tot=              2.9208

 Test job not archived.
 1\1\GINC-SE338\SP\RHF\Aug-CC-pVDZ\C5H15N2P1\OHZDE\08-Apr-2025\0\\#t hf
  aug-cc-pvdz iop(5/13=1,5/36=2,99/5=2) pseudo=read geom=check guess=(r
 ead,tcheck) scf=(maxcycle=1)\\title\\0,1\C,0,0.991827,-0.840006,1.7004
 2\N,0,0.301845,-0.162587,0.604625\H,0,1.805863,-0.22429,2.099058\H,0,1
 .409316,-1.814709,1.413589\H,0,0.274336,-1.006062,2.504291\P,0,-1.4131
 67,-0.17231,0.512147\N,0,1.061983,0.255023,-0.518682\C,0,1.793932,-0.8
 29398,-1.170795\H,0,1.111669,-1.65234,-1.385272\H,0,2.636321,-1.217286
 ,-0.573901\H,0,2.196623,-0.460757,-2.117824\C,0,1.919155,1.398946,-0.2

 Normal termination of Gaussian 16 at Tue Apr  8 23:38:53 2025.
