 Gaussian 16, Revision C.01,

 ----------------------------------------------------------------------
 #t hf aug-cc-pvdz symm=none int=(grid=ultrafine) guess=(read,tcheck) s
 table=opt
 ----------------------------------------------------------------------
 -----
 title
 -----
 Symbolic Z-matrix:
 Charge =  0 Multiplicity = 2

 SCF Done:  E(UHF) =  -341.874205098     A.U. after   13 cycles
 Normal termination of Gaussian 16 at Tue Apr  8 23:00:35 2025.
 Gaussian 16:  ES64L-G16RevC.01  3-Jul-2019

 ----------------------------------------------------------------------
 #t hf aug-cc-pvdz iop(5/13=1,5/36=2,99/5=2) pseudo=read geom=check gue
 ss=(read,tcheck) scf=(maxcycle=1)
 ----------------------------------------------------------------------
 -----
 title
 -----
 Structure from the checkpoint file:  "BDE49_expt_1947_mol2.chk"
 Charge =  0 Multiplicity = 2

                         Standard orientation:
 ---------------------------------------------------------------------
 Center     Atomic      Atomic             Coordinates (Angstroms)
 Number     Number       Type             X           Y           Z
 ---------------------------------------------------------------------
      1         15           0        0.000000   -0.000000    0.116504
      2          1           0        0.000000    1.022781   -0.873781
      3          1           0       -0.000000   -1.022781   -0.873781
 ---------------------------------------------------------------------

 SCF Done:  E(UHF) =  -342.043720739     A.U. after    2 cycles

 The electronic state is 2-B1.
 Alpha  occ. eigenvalues -- -105.19261  -2.76348  -1.44511  -1.43904  -1.43263
 Alpha  occ. eigenvalues --   -0.72169  -0.24575  -0.09511   0.00827
 Alpha virt. eigenvalues --    0.04482   0.08113   0.10442   0.11811   0.17705
 Alpha virt. eigenvalues --    0.18792   0.24392   0.24405   0.25156   0.27031
 Alpha virt. eigenvalues --    0.30126   0.42039   0.42786   0.46058   0.46864

  Beta  occ. eigenvalues -- -105.18636  -2.74442  -1.41823  -1.41643  -1.20133
  Beta  occ. eigenvalues --   -0.67322  -0.25720  -0.07051
  Beta virt. eigenvalues --    0.04577   0.07891   0.08097   0.10596   0.13179
  Beta virt. eigenvalues --    0.18411   0.24893   0.26839   0.27724   0.29415
  Beta virt. eigenvalues --    0.29471   0.30282   0.42693   0.43127   0.46725

 Mulliken charges and spin densities:
               1          2
     1  P    1.693081   1.331565
     2  H   -0.846541  -0.165782
     3  H   -0.846541  -0.165782
 Sum of Mulliken charges =  -0.00000   1.00000

 Dipole moment (field-independent basis, Debye):
    X=              0.0000    Y=              0.0000    Z=              4.4725  Tot=              4.4725
                          Isotropic Fermi Contact Couplings
        Atom                 a.u.       MegaHertz       Gauss      10(-4) cm-1
     1  P(31)              0.25197     456.33419     162.83139     152.21670
     2  H(1)              -0.00804     -35.93977     -12.82420     -11.98822
     3  H(1)              -0.00804     -35.93977     -12.82420     -11.98822
 --------------------------------------------------------
       Center         ----  Spin Dipole Couplings  ----
                      3XX-RR        3YY-RR        3ZZ-RR
 --------------------------------------------------------
     1   Atom       -0.497457      0.227900      0.269557

 Normal termination of Gaussian 16 at Tue Apr  8 23:00:36 2025.
