 Gaussian 16, Revision C.01,

 ----------------------------------------------------------------------
 #t hf aug-cc-pvdz symm=none int=(grid=ultrafine) guess=(read,tcheck) s
 table=(opt,rrhf)
 ----------------------------------------------------------------------
 -----
 title
 -----
 Symbolic Z-matrix:
 Charge =  0 Multiplicity = 1

 SCF Done:  E(RHF) =  -2611.38825319     A.U. after   12 cycles
 Normal termination of Gaussian 16 at Tue Apr  8 23:43:17 2025.
 Gaussian 16:  ES64L-G16RevC.01  3-Jul-2019

 ----------------------------------------------------------------------
 #t hf aug-cc-pvdz iop(5/13=1,5/36=2,99/5=2) pseudo=read geom=check gue
 ss=(read,tcheck) scf=(maxcycle=1)
 ----------------------------------------------------------------------
 -----
 title
 -----
 Structure from the checkpoint file:  "BDE49_nonexpt_169_mol1.chk"
 Charge =  0 Multiplicity = 1

                         Standard orientation:
 ---------------------------------------------------------------------
 Center     Atomic      Atomic             Coordinates (Angstroms)
 Number     Number       Type             X           Y           Z
 ---------------------------------------------------------------------
      1         17           0       -2.215647    1.543062    0.000114
      2         17           0       -2.185479   -1.488850    0.000090
      3          5           0       -1.330753    0.037305    0.000719
      4         14           0        0.693086    0.009872    0.000024
      5         17           0        1.358826   -0.988774   -1.677328
      6         17           0        1.503178    1.901764   -0.001601
      7         17           0        1.359743   -0.986304    1.678494
 ---------------------------------------------------------------------

 SCF Done:  E(RHF) =  -2612.84514095     A.U. after    2 cycles

 The electronic state is 1-A.
 Alpha  occ. eigenvalues --  -99.92732 -99.92642 -99.91376 -99.91375 -99.91272
 Alpha  occ. eigenvalues --  -76.35013 -10.50084 -10.49863 -10.48859 -10.48817
 Alpha  occ. eigenvalues --  -10.48724  -9.70011  -9.69760  -9.69555  -9.69463
 Alpha  occ. eigenvalues --   -9.69397  -9.69206  -9.68692  -9.68663  -9.68586
 Alpha  occ. eigenvalues --   -9.68179  -9.68156  -9.68054  -9.67966  -9.67933
 Alpha  occ. eigenvalues --   -9.67848  -7.74401  -5.68715  -2.30534  -2.30459
 Alpha  occ. eigenvalues --   -2.29985  -1.42042  -1.34688  -1.32408  -1.30616
 Alpha  occ. eigenvalues --   -1.30493  -0.88034  -0.77901  -0.66530  -0.64573
 Alpha  occ. eigenvalues --   -0.63113  -0.62153  -0.60253  -0.58009  -0.57331
 Alpha  occ. eigenvalues --   -0.57000  -0.54658  -0.54473  -0.53950  -0.52414
 Alpha  occ. eigenvalues --   -0.52068  -0.44459
 Alpha virt. eigenvalues --   -0.00915   0.03221   0.03654   0.04199   0.04511
 Alpha virt. eigenvalues --    0.06160   0.08043   0.08782   0.08976   0.09077
 Alpha virt. eigenvalues --    0.09906   0.11505   0.12090   0.12596   0.13688

 Mulliken charges:
               1
     1  Cl  -1.109932
     2  Cl  -1.082031
     3  B    0.567109
     4  Si   3.878041
     5  Cl  -0.769808
     6  Cl  -0.713369
     7  Cl  -0.770009
 Sum of Mulliken charges =  -0.00000

 Dipole moment (field-independent basis, Debye):
    X=             -0.9357    Y=              0.0974    Z=              0.0003  Tot=              0.9408

 Test job not archived.
 1\1\GINC-SE435\SP\RHF\Aug-CC-pVDZ\B1Cl5Si1\OHZDE\08-Apr-2025\0\\#t hf
 aug-cc-pvdz iop(5/13=1,5/36=2,99/5=2) pseudo=read geom=check guess=(re
 ad,tcheck) scf=(maxcycle=1)\\title\\0,1\Cl,0,-2.215647,1.543062,0.0001
 14\Cl,0,-2.185479,-1.48885,0.00009\B,0,-1.330753,0.037305,0.000719\Si,
 0,0.693086,0.009872,0.000024\Cl,0,1.358826,-0.988774,-1.677328\Cl,0,1.
 503178,1.901764,-0.001601\Cl,0,1.359743,-0.986304,1.678494\\Version=ES
 64L-G16RevC.01\State=1-A\HF=-2612.845141\RMSD=3.924e-02\Dipole=-0.3681
 422,0.0383074,0.0001311\Quadrupole=-1.5427351,1.1070902,0.4356449,-0.0

 Normal termination of Gaussian 16 at Tue Apr  8 23:43:21 2025.
