 Gaussian 16, Revision C.01,

 ----------------------------------------------------------------------
 #t hf aug-cc-pvdz symm=none int=(grid=ultrafine) guess=(read,tcheck) s
 table=opt
 ----------------------------------------------------------------------
 -----
 title
 -----
 Symbolic Z-matrix:
 Charge =  0 Multiplicity = 2

 SCF Done:  E(UHF) =  -788.594130461     A.U. after   16 cycles
 Normal termination of Gaussian 16 at Tue Apr  8 23:46:15 2025.
 Gaussian 16:  ES64L-G16RevC.01  3-Jul-2019

 ----------------------------------------------------------------------
 #t hf aug-cc-pvdz iop(5/13=1,5/36=2,99/5=2) pseudo=read geom=check gue
 ss=(read,tcheck) scf=(maxcycle=1)
 ----------------------------------------------------------------------
 -----
 title
 -----
 Structure from the checkpoint file:  "BDE49_nonexpt_1758_mol2.chk"
 Charge =  0 Multiplicity = 2

                         Standard orientation:
 ---------------------------------------------------------------------
 Center     Atomic      Atomic             Coordinates (Angstroms)
 Number     Number       Type             X           Y           Z
 ---------------------------------------------------------------------
      1         14           0        1.582790   -0.127171    0.000001
      2          6           0       -0.028381    0.862490    0.000002
      3          1           0       -0.127009    1.487615   -0.886269
      4          1           0       -0.127010    1.487611    0.886276
      5         17           0       -1.476784   -0.261884   -0.000001
      6          1           0        1.685288   -0.958868   -1.222707
      7          1           0        1.685286   -0.958874    1.222705
 ---------------------------------------------------------------------

 SCF Done:  E(UHF) =  -789.177424796     A.U. after    2 cycles

 The electronic state is 2-A.
 Alpha  occ. eigenvalues --  -99.88398 -76.24059 -11.42101 -10.45539  -9.65455
 Alpha  occ. eigenvalues --   -9.64786  -9.64667  -5.57471  -2.20761  -2.19480
 Alpha  occ. eigenvalues --   -2.18553  -1.32059  -1.01598  -0.75884  -0.64387
 Alpha  occ. eigenvalues --   -0.60628  -0.54095  -0.48933  -0.47809  -0.43651
 Alpha  occ. eigenvalues --   -0.28744
 Alpha virt. eigenvalues --    0.02916   0.04418   0.05438   0.07068   0.07414
 Alpha virt. eigenvalues --    0.07899   0.08001   0.09642   0.11973   0.13100
 Alpha virt. eigenvalues --    0.15922   0.16532   0.16783   0.17036   0.17283

  Beta  occ. eigenvalues --  -99.88314 -76.23515 -11.42070 -10.45446  -9.65156
  Beta  occ. eigenvalues --   -9.64698  -9.64618  -5.56622  -2.20084  -2.18849
  Beta  occ. eigenvalues --   -2.15018  -1.31445  -1.01003  -0.71920  -0.64276
  Beta  occ. eigenvalues --   -0.59461  -0.53768  -0.48506  -0.47348  -0.42694
  Beta virt. eigenvalues --    0.01826   0.04135   0.04775   0.05557   0.07619
  Beta virt. eigenvalues --    0.07863   0.08186   0.09498   0.09846   0.12343
  Beta virt. eigenvalues --    0.14067   0.16594   0.16788   0.17138   0.17902

 Mulliken charges and spin densities:
               1          2
     1  Si   4.119766   0.984737
     2  C   -4.190228  -0.015544
     3  H    1.513387  -0.002618
     4  H    1.513387  -0.002618
     5  Cl   0.002089   0.037287
     6  H   -1.479200  -0.000622
     7  H   -1.479200  -0.000622
 Sum of Mulliken charges =  -0.00000   1.00000

 Dipole moment (field-independent basis, Debye):
    X=              1.8350    Y=              1.6952    Z=              0.0000  Tot=              2.4982
                          Isotropic Fermi Contact Couplings
        Atom                 a.u.       MegaHertz       Gauss      10(-4) cm-1
     1  Si(29)             0.45210    -401.79493    -143.37042    -134.02436
     2  C(13)              0.03703      41.62873      14.85417      13.88585
     3  H(1)               0.00005       0.21878       0.07807       0.07298
     4  H(1)               0.00005       0.21879       0.07807       0.07298
     5  Cl(35)             0.05043      22.11360       7.89068       7.37630
     6  H(1)               0.00498      22.26660       7.94528       7.42734
     7  H(1)               0.00498      22.26661       7.94528       7.42734
 --------------------------------------------------------

 Normal termination of Gaussian 16 at Tue Apr  8 23:46:17 2025.
