 Gaussian 16, Revision C.01,

 ----------------------------------------------------------------------
 #t hf aug-cc-pvdz symm=none int=(grid=ultrafine) guess=(read,tcheck) s
 table=opt
 ----------------------------------------------------------------------
 -----
 title
 -----
 Symbolic Z-matrix:
 Charge =  0 Multiplicity = 2

 SCF Done:  E(UHF) =  -517.292366701     A.U. after   20 cycles
 Normal termination of Gaussian 16 at Tue Apr  8 23:49:32 2025.
 Gaussian 16:  ES64L-G16RevC.01  3-Jul-2019

 ----------------------------------------------------------------------
 #t hf aug-cc-pvdz iop(5/13=1,5/36=2,99/5=2) pseudo=read geom=check gue
 ss=(read,tcheck) scf=(maxcycle=1)
 ----------------------------------------------------------------------
 -----
 title
 -----
 Structure from the checkpoint file:  "BDE49_nonexpt_1816_mol2.chk"
 Charge =  0 Multiplicity = 2

                         Standard orientation:
 ---------------------------------------------------------------------
 Center     Atomic      Atomic             Coordinates (Angstroms)
 Number     Number       Type             X           Y           Z
 ---------------------------------------------------------------------
      1          6           0        0.023082    0.308264    0.007383
      2          8           0       -0.300584    1.471791    0.023378
      3         14           0        1.832249   -0.294535   -0.085442
      4          8           0       -0.857936   -0.719144   -0.008025
      5          6           0       -2.255269   -0.353213    0.003886
      6          1           0       -2.800961   -1.293094   -0.026715
      7          1           0       -2.494176    0.262026   -0.864806
      8          1           0       -2.495025    0.202483    0.911531
      9          1           0        2.064703   -1.580447    0.610456
     10          1           0        2.735263    0.781036    0.375277
 ---------------------------------------------------------------------

 SCF Done:  E(UHF) =  -518.397686347     A.U. after    2 cycles

 The electronic state is 2-A.
 Alpha  occ. eigenvalues --  -76.24797 -21.09627 -21.06196 -11.48494 -11.41752
 Alpha  occ. eigenvalues --   -5.58266  -2.22017  -2.20628  -2.18969  -1.83595
 Alpha  occ. eigenvalues --   -1.66549  -1.03071  -0.85120  -0.72306  -0.64149
 Alpha  occ. eigenvalues --   -0.63259  -0.57080  -0.52940  -0.51876  -0.48828
 Alpha  occ. eigenvalues --   -0.41228  -0.33123  -0.31318  -0.26339
 Alpha virt. eigenvalues --    0.03606   0.04829   0.06116   0.06338   0.06459
 Alpha virt. eigenvalues --    0.06855   0.07246   0.09384   0.10891   0.12175
 Alpha virt. eigenvalues --    0.13960   0.14301   0.15241   0.15381   0.16433

  Beta  occ. eigenvalues --  -76.24228 -21.09627 -21.05855 -11.48614 -11.41754
  Beta  occ. eigenvalues --   -5.57382  -2.21308  -2.19943  -2.15278  -1.83504
  Beta  occ. eigenvalues --   -1.65986  -1.02987  -0.82475  -0.71149  -0.63432
  Beta  occ. eigenvalues --   -0.63054  -0.56925  -0.52873  -0.51206  -0.48385
  Beta  occ. eigenvalues --   -0.41026  -0.32187  -0.28945
  Beta virt. eigenvalues --    0.02724   0.03812   0.05103   0.06172   0.06449
  Beta virt. eigenvalues --    0.06743   0.07159   0.08954   0.09660   0.11746
  Beta virt. eigenvalues --    0.12720   0.14314   0.14854   0.15429   0.16483

 Mulliken charges and spin densities:
               1          2
     1  C    2.796548  -0.092599
     2  O   -2.340536   0.094949
     3  Si   3.828528   1.070770
     4  O   -2.653430  -0.032901
     5  C   -2.774269   0.003013
     6  H    1.319828  -0.001473
     7  H    1.311262  -0.002608
     8  H    1.310404  -0.001640
     9  H   -1.367245  -0.024651
    10  H   -1.431090  -0.012859
 Sum of Mulliken charges =   0.00000   1.00000

 Dipole moment (field-independent basis, Debye):
    X=             -0.8405    Y=             -0.9328    Z=             -0.1961  Tot=              1.2708
                          Isotropic Fermi Contact Couplings
        Atom                 a.u.       MegaHertz       Gauss      10(-4) cm-1
     1  C(13)             -0.00163      -1.83480      -0.65470      -0.61202
     2  O(17)              0.02001     -12.13097      -4.32863      -4.04646
     3  Si(29)             0.44829    -398.40811    -142.16192    -132.89464
     4  O(17)             -0.00335       2.03300       0.72543       0.67814
     5  C(13)             -0.00034      -0.37764      -0.13475      -0.12597
     6  H(1)               0.00006       0.25006       0.08923       0.08341
     7  H(1)               0.00023       1.01905       0.36362       0.33992
     8  H(1)               0.00007       0.30950       0.11044       0.10324

 Normal termination of Gaussian 16 at Tue Apr  8 23:49:36 2025.
