 Gaussian 16, Revision C.01,

 ----------------------------------------------------------------------
 #t hf aug-cc-pvdz symm=none int=(grid=ultrafine) guess=(read,tcheck) s
 table=(opt,rrhf)
 ----------------------------------------------------------------------
 -----
 title
 -----
 Symbolic Z-matrix:
 Charge =  0 Multiplicity = 1

 SCF Done:  E(RHF) =  -504.531537791     A.U. after   14 cycles
 Normal termination of Gaussian 16 at Tue Apr  8 23:11:52 2025.
 Gaussian 16:  ES64L-G16RevC.01  3-Jul-2019

 ----------------------------------------------------------------------
 #t hf aug-cc-pvdz iop(5/13=1,5/36=2,99/5=2) pseudo=read geom=check gue
 ss=(read,tcheck) scf=(maxcycle=1)
 ----------------------------------------------------------------------
 -----
 title
 -----
 Structure from the checkpoint file:  "BDE49_expt_655_mol1.chk"
 Charge =  0 Multiplicity = 1

                         Standard orientation:
 ---------------------------------------------------------------------
 Center     Atomic      Atomic             Coordinates (Angstroms)
 Number     Number       Type             X           Y           Z
 ---------------------------------------------------------------------
      1          6           0        0.587565   -0.480327    0.000017
      2          7           0        1.519177    0.379603   -0.000018
      3          8           0        2.766523   -0.215393    0.000004
      4          1           0        3.368555    0.537055   -0.000026
      5          6           0       -0.837383   -0.010648    0.000002
      6          9           0       -0.960593    1.319589   -0.000063
      7          9           0       -1.485892   -0.491498   -1.085603
      8          9           0       -1.485881   -0.491392    1.085660
      9          1           0        0.755220   -1.555569    0.000059
 ---------------------------------------------------------------------

 SCF Done:  E(RHF) =  -506.423548930     A.U. after    2 cycles

 The electronic state is 1-A.
 Alpha  occ. eigenvalues --  -29.31763 -29.31612 -29.31570 -21.13632 -15.83096
 Alpha  occ. eigenvalues --  -11.62280 -11.45549  -1.83517  -1.45289  -1.26262
 Alpha  occ. eigenvalues --   -0.94240  -0.88972  -0.87656  -0.75280  -0.64390
 Alpha  occ. eigenvalues --   -0.60499  -0.56267  -0.48863  -0.44350  -0.44318
 Alpha  occ. eigenvalues --   -0.39930  -0.38839  -0.36672  -0.32713  -0.31468
 Alpha  occ. eigenvalues --   -0.26292  -0.25442  -0.22017
 Alpha virt. eigenvalues --    0.04082   0.05712   0.10362   0.10687   0.11328
 Alpha virt. eigenvalues --    0.12641   0.13380   0.13455   0.16159   0.16250
 Alpha virt. eigenvalues --    0.17408   0.18734   0.20874   0.22149   0.22924

 Mulliken charges:
               1
     1  C   -1.175002
     2  N   -0.398025
     3  O   -2.416818
     4  H    0.864487
     5  C    0.278073
     6  F    0.473598
     7  F    0.393416
     8  F    0.393419
     9  H    1.586851
 Sum of Mulliken charges =  -0.00000

 Dipole moment (field-independent basis, Debye):
    X=             -0.6031    Y=              0.0350    Z=              0.0000  Tot=              0.6041

 Test job not archived.
 1\1\GINC-SE106\SP\RHF\Aug-CC-pVDZ\C2H2F3N1O1\OHZDE\08-Apr-2025\0\\#t h
 f aug-cc-pvdz iop(5/13=1,5/36=2,99/5=2) pseudo=read geom=check guess=(
 read,tcheck) scf=(maxcycle=1)\\title\\0,1\C,0,0.587565,-0.480327,0.000
 017\N,0,1.519177,0.379603,-0.000018\O,0,2.766523,-0.215393,0.000004\H,
 0,3.368555,0.537055,-0.000026\C,0,-0.837383,-0.010648,0.000002\F,0,-0.
 960593,1.319589,-0.000063\F,0,-1.485892,-0.491498,-1.085603\F,0,-1.485
 881,-0.491392,1.08566\H,0,0.75522,-1.555569,0.000059\\Version=ES64L-G1
 6RevC.01\State=1-A\HF=-506.4235489\RMSD=2.234e-01\Dipole=-0.237259,0.0

 Normal termination of Gaussian 16 at Tue Apr  8 23:11:55 2025.
