 Gaussian 16, Revision C.01,

 ----------------------------------------------------------------------
 #t hf aug-cc-pvdz symm=none int=(grid=ultrafine) guess=(read,tcheck) s
 table=(opt,rrhf)
 ----------------------------------------------------------------------
 -----
 title
 -----
 Symbolic Z-matrix:
 Charge =  0 Multiplicity = 1

 SCF Done:  E(RHF) =  -522.681398621     A.U. after   14 cycles
 Normal termination of Gaussian 16 at Wed Apr  9 00:43:19 2025.
 Gaussian 16:  ES64L-G16RevC.01  3-Jul-2019

 ----------------------------------------------------------------------
 #t hf aug-cc-pvdz iop(5/13=1,5/36=2,99/5=2) pseudo=read geom=check gue
 ss=(read,tcheck) scf=(maxcycle=1)
 ----------------------------------------------------------------------
 -----
 title
 -----
 Structure from the checkpoint file:  "BDE49_nonexpt_717_mol1.chk"
 Charge =  0 Multiplicity = 1

                         Standard orientation:
 ---------------------------------------------------------------------
 Center     Atomic      Atomic             Coordinates (Angstroms)
 Number     Number       Type             X           Y           Z
 ---------------------------------------------------------------------
      1          5           0       -2.735596    0.654251   -0.268083
      2          6           0        0.271518   -0.018670   -0.403189
      3          6           0        1.482146   -0.975850   -0.193556
      4          6           0        1.087944    1.099925    0.308673
      5          6           0        2.373720    0.275532    0.031852
      6          1           0        0.860020    1.145075    1.376371
      7          1           0        1.015049    2.106195   -0.107826
      8          1           0        2.866011    0.591528   -0.890682
      9          1           0        3.118808    0.224005    0.827400
     10          1           0        1.733022   -1.649916   -1.014144
     11          1           0        1.378877   -1.564022    0.722233
     12         15           0       -1.403195   -0.532460    0.183491
     13          1           0        0.155236    0.213708   -1.465830
     14          1           0       -3.704645    0.721663    0.418195
     15          1           0       -2.700380    1.194971   -1.328090
     16          1           0       -1.288048   -0.553187    1.587745
 ---------------------------------------------------------------------

 SCF Done:  E(RHF) =  -523.801467204     A.U. after    2 cycles

 The electronic state is 1-A.
 Alpha  occ. eigenvalues -- -105.15237 -11.49025 -11.39577 -11.39330 -11.34804
 Alpha  occ. eigenvalues --   -7.61223  -2.73674  -1.53363  -1.46630  -1.40280
 Alpha  occ. eigenvalues --   -1.30887  -0.95883  -0.94567  -0.83764  -0.77736
 Alpha  occ. eigenvalues --   -0.67007  -0.66578  -0.58151  -0.54570  -0.49165
 Alpha  occ. eigenvalues --   -0.48411  -0.48038  -0.44010  -0.41521  -0.22418
 Alpha  occ. eigenvalues --   -0.12145  -0.04200
 Alpha virt. eigenvalues --    0.03689   0.04182   0.04696   0.05693   0.05983
 Alpha virt. eigenvalues --    0.06045   0.06461   0.06778   0.07429   0.08544
 Alpha virt. eigenvalues --    0.09590   0.10094   0.10941   0.12332   0.12396

 Mulliken charges:
               1
     1  B    4.438328
     2  C   -0.979619
     3  C   -2.998244
     4  C   -3.316380
     5  C   -3.035001
     6  H    1.370292
     7  H    1.287406
     8  H    1.357576
     9  H    1.193670
    10  H    1.252713
    11  H    1.496251
    12  P    2.439490
    13  H    1.520689
    14  H   -2.707499
    15  H   -2.209899
    16  H   -1.109773
 Sum of Mulliken charges =  -0.00000

 Dipole moment (field-independent basis, Debye):
    X=              5.3918    Y=             -6.7976    Z=             -0.2277  Tot=              8.6793

 Test job not archived.
 1\1\GINC-SE457\SP\RHF\Aug-CC-pVDZ\C4H10B1P1\OHZDE\09-Apr-2025\0\\#t hf
  aug-cc-pvdz iop(5/13=1,5/36=2,99/5=2) pseudo=read geom=check guess=(r
 ead,tcheck) scf=(maxcycle=1)\\title\\0,1\B,0,-2.735596,0.654251,-0.268
 083\C,0,0.271518,-0.01867,-0.403189\C,0,1.482146,-0.97585,-0.193556\C,
 0,1.087944,1.099925,0.308673\C,0,2.37372,0.275532,0.031852\H,0,0.86002
 ,1.145075,1.376371\H,0,1.015049,2.106195,-0.107826\H,0,2.866011,0.5915
 28,-0.890682\H,0,3.118808,0.224005,0.8274\H,0,1.733022,-1.649916,-1.01
 4144\H,0,1.378877,-1.564022,0.722233\P,0,-1.403195,-0.53246,0.183491\H

 Normal termination of Gaussian 16 at Wed Apr  9 00:43:24 2025.
