 Gaussian 16, Revision C.01,

 ----------------------------------------------------------------------
 #t hf aug-cc-pvdz symm=none int=(grid=ultrafine) guess=(read,tcheck) s
 table=(opt,rrhf)
 ----------------------------------------------------------------------
 -----
 title
 -----
 Symbolic Z-matrix:
 Charge =  0 Multiplicity = 1

 SCF Done:  E(RHF) =  -1281.62998749     A.U. after   17 cycles
 Normal termination of Gaussian 16 at Tue Apr  8 23:28:38 2025.
 Gaussian 16:  ES64L-G16RevC.01  3-Jul-2019

 ----------------------------------------------------------------------
 #t hf aug-cc-pvdz iop(5/13=1,5/36=2,99/5=2) pseudo=read geom=check gue
 ss=(read,tcheck) scf=(maxcycle=1)
 ----------------------------------------------------------------------
 -----
 title
 -----
 Structure from the checkpoint file:  "BDE49_nonexpt_1264_mol1.chk"
 Charge =  0 Multiplicity = 1

                         Standard orientation:
 ---------------------------------------------------------------------
 Center     Atomic      Atomic             Coordinates (Angstroms)
 Number     Number       Type             X           Y           Z
 ---------------------------------------------------------------------
      1          6           0       -0.779195   -0.237852   -0.296288
      2          6           0       -1.751687    0.315551   -1.136960
      3          1           0       -1.467945    0.699675   -2.110248
      4          6           0       -3.082075    0.375445   -0.726685
      5          1           0       -3.829397    0.804730   -1.384127
      6          6           0       -3.449751   -0.125512    0.519135
      7          1           0       -4.485904   -0.085629    0.835579
      8          6           0       -2.485576   -0.684820    1.358754
      9          1           0       -2.771233   -1.078606    2.327608
     10          6           0       -1.155228   -0.738844    0.957199
     11          1           0       -0.411057   -1.181880    1.609104
     12         15           0        0.955544   -0.248476   -0.919942
     13         17           0        1.621023   -2.152800   -0.355722
     14          6           0        1.719439    0.717764    0.548494
     15          8           0        2.437240    0.242729    1.385024
     16          6           0        1.392602    2.207465    0.556150
     17          9           0        0.667178    2.558776   -0.578598
     18          1           0        2.323925    2.779178    0.574247
     19          1           0        0.797363    2.441275    1.442617
 ---------------------------------------------------------------------

 SCF Done:  E(RHF) =  -1284.16158502     A.U. after    2 cycles

 The electronic state is 1-A.
 Alpha  occ. eigenvalues -- -105.24064 -99.88579 -29.28385 -21.08862 -11.53397
 Alpha  occ. eigenvalues --  -11.51694 -11.46510 -11.45145 -11.44803 -11.42848
 Alpha  occ. eigenvalues --  -11.42286 -11.38152 -10.45874  -9.65808  -9.65147
 Alpha  occ. eigenvalues --   -9.65106  -2.81899  -1.74192  -1.56368  -1.52213
 Alpha  occ. eigenvalues --   -1.51422  -1.34522  -1.23051  -1.20690  -1.10953
 Alpha  occ. eigenvalues --   -1.09407  -0.88185  -0.87598  -0.82696  -0.75816
 Alpha  occ. eigenvalues --   -0.71871  -0.68396  -0.67845  -0.64022  -0.60127
 Alpha  occ. eigenvalues --   -0.58560  -0.57574  -0.53586  -0.52776  -0.52269
 Alpha  occ. eigenvalues --   -0.50996  -0.46698  -0.46444  -0.45712  -0.40231
 Alpha  occ. eigenvalues --   -0.36224  -0.35309  -0.34556  -0.29623  -0.27684
 Alpha  occ. eigenvalues --   -0.19103  -0.04386
 Alpha virt. eigenvalues --    0.03407   0.04876   0.04991   0.05272   0.05874
 Alpha virt. eigenvalues --    0.06835   0.07844   0.08457   0.08871   0.09599
 Alpha virt. eigenvalues --    0.10026   0.10641   0.11111   0.11287   0.12204

 Mulliken charges:
               1
     1  C    2.280852
     2  C   -4.482989
     3  H    2.103369
     4  C   -1.093445
     5  H    1.531811
     6  C   -2.359649
     7  H    1.510302
     8  C   -0.129275
     9  H    1.526213
    10  C   -3.336548
    11  H    1.811369
    12  P    4.127551
    13  Cl  -1.453120
    14  C    0.687782
    15  O   -3.055979
    16  C   -2.893390
    17  F    0.199592
    18  H    1.486371
    19  H    1.539186
 Sum of Mulliken charges =   0.00000

 Dipole moment (field-independent basis, Debye):
    X=             -3.4458    Y=              3.1822    Z=             -3.8132  Tot=              6.0449

 Test job not archived.
 1\1\GINC-SE070\SP\RHF\Aug-CC-pVDZ\C8H7Cl1F1O1P1\OHZDE\08-Apr-2025\0\\#
 t hf aug-cc-pvdz iop(5/13=1,5/36=2,99/5=2) pseudo=read geom=check gues
 s=(read,tcheck) scf=(maxcycle=1)\\title\\0,1\C,0,-0.779195,-0.237852,-
 0.296288\C,0,-1.751687,0.315551,-1.13696\H,0,-1.467945,0.699675,-2.110
 248\C,0,-3.082075,0.375445,-0.726685\H,0,-3.829397,0.80473,-1.384127\C
 ,0,-3.449751,-0.125512,0.519135\H,0,-4.485904,-0.08563,0.835579\C,0,-2
 .485576,-0.68482,1.358754\H,0,-2.771233,-1.078606,2.327608\C,0,-1.1552
 28,-0.738844,0.957199\H,0,-0.411057,-1.18188,1.609104\P,0,0.955544,-0.

 Normal termination of Gaussian 16 at Tue Apr  8 23:28:52 2025.
