 Gaussian 16, Revision C.01,

 ----------------------------------------------------------------------
 #t hf aug-cc-pvdz symm=none int=(grid=ultrafine) guess=(read,tcheck) s
 table=(opt,rrhf)
 ----------------------------------------------------------------------
 -----
 title
 -----
 Symbolic Z-matrix:
 Charge =  0 Multiplicity = 1

 SCF Done:  E(RHF) =  -774.640605217     A.U. after   15 cycles
 Normal termination of Gaussian 16 at Tue Apr  8 23:37:45 2025.
 Gaussian 16:  ES64L-G16RevC.01  3-Jul-2019

 ----------------------------------------------------------------------
 #t hf aug-cc-pvdz iop(5/13=1,5/36=2,99/5=2) pseudo=read geom=check gue
 ss=(read,tcheck) scf=(maxcycle=1)
 ----------------------------------------------------------------------
 -----
 title
 -----
 Structure from the checkpoint file:  "BDE49_nonexpt_1505_mol1.chk"
 Charge =  0 Multiplicity = 1

                         Standard orientation:
 ---------------------------------------------------------------------
 Center     Atomic      Atomic             Coordinates (Angstroms)
 Number     Number       Type             X           Y           Z
 ---------------------------------------------------------------------
      1          8           0       -1.613210   -1.013278    0.286516
      2          6           0       -2.713216   -0.261222    0.511444
      3          6           0       -0.690520   -0.212472   -0.362790
      4          6           0       -2.539441    1.004902    0.039739
      5          6           0       -1.230521    1.036781   -0.524470
      6          1           0       -3.254661    1.810656    0.086779
      7          1           0       -3.529981   -0.757683    1.008787
      8          1           0       -0.731495    1.873146   -0.985397
      9          7           0        2.085262   -0.019965    0.117342
     10          8           0        1.886719   -0.153427    1.511701
     11          8           0        1.926670    1.364215   -0.211985
     12          1           0        2.826143    1.705580   -0.126723
     13          1           0        1.004459    0.217517    1.691682
     14         15           0        0.893607   -1.021632   -0.746071
     15          1           0        1.125352   -0.372987   -1.978864
 ---------------------------------------------------------------------

 SCF Done:  E(RHF) =  -776.719704121     A.U. after    2 cycles

 The electronic state is 1-A.
 Alpha  occ. eigenvalues -- -105.21541 -21.12500 -21.10410 -21.10057 -15.80106
 Alpha  occ. eigenvalues --  -11.48936 -11.45084 -11.43457 -11.38260  -2.79062
 Alpha  occ. eigenvalues --   -1.86196  -1.85383  -1.67894  -1.54025  -1.50718
 Alpha  occ. eigenvalues --   -1.47973  -1.20736  -1.06157  -1.02021  -0.81631
 Alpha  occ. eigenvalues --   -0.79750  -0.76025  -0.68586  -0.65674  -0.58613
 Alpha  occ. eigenvalues --   -0.56451  -0.53989  -0.53907  -0.52409  -0.47415
 Alpha  occ. eigenvalues --   -0.43884  -0.35842  -0.34418  -0.33996  -0.32190
 Alpha  occ. eigenvalues --   -0.26705  -0.25129  -0.02419
 Alpha virt. eigenvalues --    0.03442   0.04912   0.05685   0.06188   0.06737
 Alpha virt. eigenvalues --    0.07449   0.09159   0.09800   0.10880   0.11975
 Alpha virt. eigenvalues --    0.12456   0.13023   0.13689   0.14081   0.14392

 Mulliken charges:
               1
     1  O   -3.710378
     2  C    0.256876
     3  C    1.490274
     4  C   -1.055363
     5  C   -3.169951
     6  H    1.229843
     7  H    1.549923
     8  H    1.552007
     9  N    2.203333
    10  O   -2.449642
    11  O   -2.414535
    12  H    0.865722
    13  H    0.841228
    14  P    3.536679
    15  H   -0.726017
 Sum of Mulliken charges =  -0.00000

 Dipole moment (field-independent basis, Debye):
    X=             -1.3604    Y=              0.2978    Z=              1.0459  Tot=              1.7416

 Test job not archived.
 1\1\GINC-SE048\SP\RHF\Aug-CC-pVDZ\C4H6N1O3P1\OHZDE\08-Apr-2025\0\\#t h
 f aug-cc-pvdz iop(5/13=1,5/36=2,99/5=2) pseudo=read geom=check guess=(
 read,tcheck) scf=(maxcycle=1)\\title\\0,1\O,0,-1.61321,-1.013278,0.286
 516\C,0,-2.713216,-0.261222,0.511444\C,0,-0.69052,-0.212472,-0.36279\C
 ,0,-2.539441,1.004902,0.039739\C,0,-1.230521,1.036781,-0.52447\H,0,-3.
 254661,1.810656,0.086779\H,0,-3.529981,-0.757683,1.008787\H,0,-0.73149
 5,1.873146,-0.985397\N,0,2.085262,-0.019965,0.117342\O,0,1.886719,-0.1
 53427,1.511701\O,0,1.92667,1.364215,-0.211985\H,0,2.826143,1.70558,-0.

 Normal termination of Gaussian 16 at Tue Apr  8 23:37:51 2025.
