 Gaussian 16, Revision C.01,

 ----------------------------------------------------------------------
 #t hf aug-cc-pvdz symm=none int=(grid=ultrafine) guess=(read,tcheck) s
 table=opt
 ----------------------------------------------------------------------
 -----
 title
 -----
 Symbolic Z-matrix:
 Charge =  0 Multiplicity = 2

 SCF Done:  E(UHF) =  -478.259482310     A.U. after   19 cycles
 Normal termination of Gaussian 16 at Tue Apr  8 23:43:12 2025.
 Gaussian 16:  ES64L-G16RevC.01  3-Jul-2019

 ----------------------------------------------------------------------
 #t hf aug-cc-pvdz iop(5/13=1,5/36=2,99/5=2) pseudo=read geom=check gue
 ss=(read,tcheck) scf=(maxcycle=1)
 ----------------------------------------------------------------------
 -----
 title
 -----
 Structure from the checkpoint file:  "BDE49_nonexpt_1689_mol2.chk"
 Charge =  0 Multiplicity = 2

                         Standard orientation:
 ---------------------------------------------------------------------
 Center     Atomic      Atomic             Coordinates (Angstroms)
 Number     Number       Type             X           Y           Z
 ---------------------------------------------------------------------
      1          6           0       -0.542366    0.132987    0.006054
      2         14           0        1.365894   -0.048424   -0.089909
      3          8           0       -1.052409    1.220143    0.015166
      4          8           0       -1.318268   -0.989069    0.005331
      5          1           0       -0.763547   -1.777894    0.044741
      6          1           0        1.844427   -1.324503    0.504997
      7          1           0        2.016211    1.133834    0.508692
 ---------------------------------------------------------------------

 SCF Done:  E(UHF) =  -479.162083086     A.U. after    2 cycles

 The electronic state is 2-A.
 Alpha  occ. eigenvalues --  -76.26385 -21.13193 -21.06914 -11.49457  -5.59840
 Alpha  occ. eigenvalues --   -2.23209  -2.22176  -2.20479  -1.82122  -1.66407
 Alpha  occ. eigenvalues --   -0.88090  -0.76971  -0.63936  -0.55553  -0.54803
 Alpha  occ. eigenvalues --   -0.50599  -0.45722  -0.35427  -0.32244  -0.26906
 Alpha virt. eigenvalues --    0.03286   0.04546   0.05856   0.06297   0.07503
 Alpha virt. eigenvalues --    0.08600   0.09824   0.12028   0.13260   0.14064
 Alpha virt. eigenvalues --    0.15348   0.15894   0.16764   0.17401   0.20460

  Beta  occ. eigenvalues --  -76.25810 -21.13226 -21.06462 -11.49629  -5.58946
  Beta  occ. eigenvalues --   -2.22496  -2.21489  -2.16766  -1.81993  -1.65731
  Beta  occ. eigenvalues --   -0.85720  -0.75708  -0.62778  -0.55334  -0.54497
  Beta  occ. eigenvalues --   -0.50159  -0.45485  -0.34133  -0.28887
  Beta virt. eigenvalues --    0.01677   0.03544   0.04797   0.06100   0.07716
  Beta virt. eigenvalues --    0.08145   0.08909   0.10802   0.12840   0.14018
  Beta virt. eigenvalues --    0.15021   0.15919   0.17528   0.18186   0.19377

 Mulliken charges and spin densities:
               1          2
     1  C    2.973663  -0.138752
     2  Si   3.710415   1.042285
     3  O   -2.408388   0.127204
     4  O   -2.585195  -0.000619
     5  H    1.070696  -0.008103
     6  H   -1.360779  -0.019159
     7  H   -1.400413  -0.002855
 Sum of Mulliken charges =  -0.00000   1.00000

 Dipole moment (field-independent basis, Debye):
    X=              1.0388    Y=             -1.3188    Z=             -0.2228  Tot=              1.6935
                          Isotropic Fermi Contact Couplings
        Atom                 a.u.       MegaHertz       Gauss      10(-4) cm-1
     1  C(13)             -0.00367      -4.12842      -1.47312      -1.37709
     2  Si(29)             0.45529    -404.62527    -144.38036    -134.96846
     3  O(17)              0.02544     -15.42438      -5.50380      -5.14502
     4  O(17)             -0.00481       2.91333       1.03955       0.97178
     5  H(1)               0.00002       0.09696       0.03460       0.03234
     6  H(1)               0.00119       5.33102       1.90224       1.77824
     7  H(1)               0.00153       6.85709       2.44678       2.28728
 --------------------------------------------------------

 Normal termination of Gaussian 16 at Tue Apr  8 23:43:14 2025.
