 Gaussian 16, Revision C.01,

 ----------------------------------------------------------------------
 #t hf aug-cc-pvdz symm=none int=(grid=ultrafine) guess=(read,tcheck) s
 table=(opt,rrhf)
 ----------------------------------------------------------------------
 -----
 title
 -----
 Symbolic Z-matrix:
 Charge =  0 Multiplicity = 1

 SCF Done:  E(RHF) =  -311.067990642     A.U. after   15 cycles
 Normal termination of Gaussian 16 at Wed Apr  9 00:38:28 2025.
 Gaussian 16:  ES64L-G16RevC.01  3-Jul-2019

 ----------------------------------------------------------------------
 #t hf aug-cc-pvdz iop(5/13=1,5/36=2,99/5=2) pseudo=read geom=check gue
 ss=(read,tcheck) scf=(maxcycle=1)
 ----------------------------------------------------------------------
 -----
 title
 -----
 Structure from the checkpoint file:  "BDE49_nonexpt_572_mol1.chk"
 Charge =  0 Multiplicity = 1

                         Standard orientation:
 ---------------------------------------------------------------------
 Center     Atomic      Atomic             Coordinates (Angstroms)
 Number     Number       Type             X           Y           Z
 ---------------------------------------------------------------------
      1          6           0        1.346889    1.321858   -0.000001
      2          6           0       -0.026248    1.104234   -0.000003
      3          6           0       -0.528528   -0.202052   -0.000002
      4          6           0        2.241950    0.252619    0.000002
      5          6           0        1.744638   -1.047403    0.000003
      6          6           0        0.371632   -1.273498    0.000001
      7          1           0        1.720076    2.339960   -0.000001
      8          1           0       -0.708426    1.943616   -0.000006
      9          1           0       -0.008761   -2.290728    0.000001
     10          1           0        3.310569    0.431710    0.000004
     11          1           0        2.424301   -1.892094    0.000005
     12          5           0       -3.023587    0.379925    0.000003
     13          7           0       -1.918061   -0.476606   -0.000005
     14          1           0       -2.884313    1.560331    0.000019
     15          1           0       -4.104537   -0.120184    0.000006
     16          1           0       -2.106547   -1.470546   -0.000012
 ---------------------------------------------------------------------

 SCF Done:  E(RHF) =  -312.561914695     A.U. after    2 cycles

 The electronic state is 1-A.
 Alpha  occ. eigenvalues --  -15.73628 -11.52539 -11.45227 -11.43083 -11.40613
 Alpha  occ. eigenvalues --  -11.40451 -11.36288  -7.61320  -1.43756  -1.28708
 Alpha  occ. eigenvalues --   -1.09458  -1.07413  -0.89390  -0.86869  -0.79477
 Alpha  occ. eigenvalues --   -0.71852  -0.67546  -0.61118  -0.58258  -0.57151
 Alpha  occ. eigenvalues --   -0.53870  -0.52409  -0.47108  -0.44980  -0.44503
 Alpha  occ. eigenvalues --   -0.43977  -0.33284  -0.29107
 Alpha virt. eigenvalues --    0.03148   0.03541   0.04117   0.04460   0.05487
 Alpha virt. eigenvalues --    0.05721   0.06980   0.07912   0.10097   0.10675
 Alpha virt. eigenvalues --    0.10813   0.11884   0.12139   0.12811   0.13277

 Mulliken charges:
               1
     1  C   -0.612330
     2  C   -2.502795
     3  C    5.953624
     4  C   -2.832308
     5  C   -0.693685
     6  C   -3.163901
     7  H    1.499070
     8  H    1.984258
     9  H    1.776006
    10  H    1.552293
    11  H    1.516584
    12  B    7.388435
    13  N   -5.786309
    14  H   -3.296240
    15  H   -4.022474
    16  H    1.239772
 Sum of Mulliken charges =   0.00000

 Dipole moment (field-independent basis, Debye):
    X=              0.6662    Y=             -0.9166    Z=             -0.0000  Tot=              1.1331

 Test job not archived.
 1\1\GINC-SE461\SP\RHF\Aug-CC-pVDZ\C6H8B1N1\OHZDE\09-Apr-2025\0\\#t hf
 aug-cc-pvdz iop(5/13=1,5/36=2,99/5=2) pseudo=read geom=check guess=(re
 ad,tcheck) scf=(maxcycle=1)\\title\\0,1\C,0,1.346889,1.321858,-0.00000
 1\C,0,-0.026248,1.104234,-0.000003\C,0,-0.528528,-0.202052,-0.000002\C
 ,0,2.24195,0.252619,0.000002\C,0,1.744638,-1.047403,0.000003\C,0,0.371
 632,-1.273498,0.000001\H,0,1.720076,2.33996,-0.000001\H,0,-0.708426,1.
 943616,-0.000006\H,0,-0.008761,-2.290728,0.000001\H,0,3.310569,0.43171
 ,0.000004\H,0,2.424301,-1.892094,0.000005\B,0,-3.023587,0.379925,0.000

 Normal termination of Gaussian 16 at Wed Apr  9 00:38:34 2025.
