 Gaussian 16, Revision C.01,

 ----------------------------------------------------------------------
 #t hf aug-cc-pvdz symm=none int=(grid=ultrafine) guess=(read,tcheck) s
 table=opt
 ----------------------------------------------------------------------
 -----
 title
 -----
 Symbolic Z-matrix:
 Charge =  0 Multiplicity = 2

 SCF Done:  E(UHF) =  -571.745958090     A.U. after   21 cycles
 Normal termination of Gaussian 16 at Tue Apr  8 23:41:54 2025.
 Gaussian 16:  ES64L-G16RevC.01  3-Jul-2019

 ----------------------------------------------------------------------
 #t hf aug-cc-pvdz iop(5/13=1,5/36=2,99/5=2) pseudo=read geom=check gue
 ss=(read,tcheck) scf=(maxcycle=1)
 ----------------------------------------------------------------------
 -----
 title
 -----
 Structure from the checkpoint file:  "BDE49_nonexpt_1635_mol2.chk"
 Charge =  0 Multiplicity = 2

                         Standard orientation:
 ---------------------------------------------------------------------
 Center     Atomic      Atomic             Coordinates (Angstroms)
 Number     Number       Type             X           Y           Z
 ---------------------------------------------------------------------
      1          6           0        1.205440    0.261300    0.165744
      2         15           0       -1.360438   -0.822310   -0.190483
      3          6           0       -2.030313    0.900848   -0.254041
      4          1           0       -2.446547    1.185798    0.718477
      5          1           0       -2.826394    0.951636   -0.999367
      6          1           0       -1.244444    1.618454   -0.505375
      7          8           0        1.183477    1.471570    0.109859
      8          6           0        2.277689   -0.557066   -0.526173
      9          1           0        1.828278   -1.348593   -1.133249
     10          1           0        2.909152   -1.045056    0.223950
     11          1           0        2.892041    0.091086   -1.149450
     12          6           0        0.131920   -0.516382    0.914738
     13          1           0       -0.182889    0.068194    1.782667
     14          1           0        0.501153   -1.491622    1.239107
 ---------------------------------------------------------------------

 SCF Done:  E(UHF) =  -573.003474423     A.U. after    2 cycles

 The electronic state is 2-A.
 Alpha  occ. eigenvalues -- -105.18020 -21.05088 -11.49728 -11.39652 -11.38527
 Alpha  occ. eigenvalues --  -11.36862  -2.76229  -1.70947  -1.48805  -1.46866
 Alpha  occ. eigenvalues --   -1.46205  -1.14572  -1.03309  -0.98550  -0.75417
 Alpha  occ. eigenvalues --   -0.65564  -0.63099  -0.61541  -0.58852  -0.56424
 Alpha  occ. eigenvalues --   -0.56208  -0.52203  -0.48145  -0.42798  -0.29329
 Alpha  occ. eigenvalues --   -0.20782  -0.07384   0.02022
 Alpha virt. eigenvalues --    0.04256   0.05298   0.05732   0.06156   0.06719
 Alpha virt. eigenvalues --    0.06988   0.07528   0.08397   0.09374   0.10959
 Alpha virt. eigenvalues --    0.11729   0.12709   0.13320   0.14695   0.15616

  Beta  occ. eigenvalues -- -105.17389 -21.05072 -11.49643 -11.39727 -11.38565
  Beta  occ. eigenvalues --  -11.36986  -2.74304  -1.70888  -1.46740  -1.45378
  Beta  occ. eigenvalues --   -1.22772  -1.14405  -1.03042  -0.98326  -0.74951
  Beta  occ. eigenvalues --   -0.63150  -0.62133  -0.61314  -0.57858  -0.56129
  Beta  occ. eigenvalues --   -0.55451  -0.51915  -0.48070  -0.42517  -0.29255
  Beta  occ. eigenvalues --   -0.21697  -0.04919
  Beta virt. eigenvalues --    0.04011   0.05311   0.05743   0.05831   0.06717
  Beta virt. eigenvalues --    0.06985   0.07091   0.08073   0.09633   0.10010
  Beta virt. eigenvalues --    0.11217   0.12234   0.12846   0.13836   0.15124

 Mulliken charges and spin densities:
               1          2
     1  C    3.807187  -0.655894
     2  P    4.256710   1.446395
     3  C   -5.834722  -0.237882
     4  H    1.073934   0.002037
     5  H    1.252969   0.012880
     6  H    1.280488  -0.010778
     7  O   -3.302472   0.077701
     8  C   -4.222095   0.231340
     9  H    0.943085   0.362720
    10  H    0.825929   0.340903
    11  H    1.342315  -0.165920
    12  C   -4.196545  -0.339173
    13  H    1.197861   0.037785
    14  H    1.575357  -0.102113
 Sum of Mulliken charges =  -0.00000   1.00000

 Dipole moment (field-independent basis, Debye):
    X=             -4.0619    Y=             -2.2858    Z=             -0.1761  Tot=              4.6642
                          Isotropic Fermi Contact Couplings
        Atom                 a.u.       MegaHertz       Gauss      10(-4) cm-1
     1  C(13)              0.02039      22.92487       8.18016       7.64691
     2  P(31)              0.30242     547.71616     195.43875     182.69845
     3  C(13)             -0.00310      -3.48194      -1.24244      -1.16145
     4  H(1)               0.00678      30.30575      10.81384      10.10891
     5  H(1)               0.00028       1.22976       0.43881       0.41020
     6  H(1)               0.00553      24.70283       8.81459       8.23998
     7  O(17)              0.00286      -1.73367      -0.61862      -0.57829
     8  C(13)              0.01801      20.25046       7.22587       6.75483

 Normal termination of Gaussian 16 at Tue Apr  8 23:41:59 2025.
