 Gaussian 16, Revision C.01,

 ----------------------------------------------------------------------
 #t hf aug-cc-pvdz symm=none int=(grid=ultrafine) guess=(read,tcheck) s
 table=(opt,rrhf)
 ----------------------------------------------------------------------
 -----
 title
 -----
 Symbolic Z-matrix:
 Charge =  0 Multiplicity = 1

 SCF Done:  E(RHF) =  -1406.83842791     A.U. after   15 cycles
 Normal termination of Gaussian 16 at Tue Apr  8 23:18:56 2025.
 Gaussian 16:  ES64L-G16RevC.01  3-Jul-2019

 ----------------------------------------------------------------------
 #t hf aug-cc-pvdz iop(5/13=1,5/36=2,99/5=2) pseudo=read geom=check gue
 ss=(read,tcheck) scf=(maxcycle=1)
 ----------------------------------------------------------------------
 -----
 title
 -----
 Structure from the checkpoint file:  "BDE49_nonexpt_1061_mol1.chk"
 Charge =  0 Multiplicity = 1

                         Standard orientation:
 ---------------------------------------------------------------------
 Center     Atomic      Atomic             Coordinates (Angstroms)
 Number     Number       Type             X           Y           Z
 ---------------------------------------------------------------------
      1         17           0        2.562498   -0.272901    0.000328
      2          8           0        0.939548   -0.904385   -0.000051
      3          6           0       -0.079629   -0.003633   -0.000327
      4         16           0        0.012790    1.616686   -0.000066
      5         16           0       -1.520769   -1.029611   -0.000158
      6          6           0       -2.850746    0.205558    0.000028
      7          1           0       -3.772656   -0.378854    0.000141
      8          1           0       -2.798251    0.824261   -0.893720
      9          1           0       -2.798024    0.824242    0.893776
 ---------------------------------------------------------------------

 SCF Done:  E(RHF) =  -1408.22047345     A.U. after    2 cycles

 The electronic state is 1-A.
 Alpha  occ. eigenvalues --  -99.96677 -75.72439 -75.67535 -21.16791 -13.16567
 Alpha  occ. eigenvalues --  -13.14697 -13.13590 -13.05161 -13.03587 -12.99165
 Alpha  occ. eigenvalues --  -11.53223 -11.41573 -10.53309  -9.73207  -9.72352
 Alpha  occ. eigenvalues --   -9.72198  -8.06691  -8.01855  -1.85295  -1.30870
 Alpha  occ. eigenvalues --   -1.23832  -1.13849  -0.99159  -0.79340  -0.65859
 Alpha  occ. eigenvalues --   -0.62922  -0.62675  -0.60516  -0.59009  -0.51141
 Alpha  occ. eigenvalues --   -0.50499  -0.46175  -0.39280  -0.32246  -0.24592
 Alpha  occ. eigenvalues --   -0.24052
 Alpha virt. eigenvalues --    0.01264   0.02634   0.05320   0.05695   0.05998
 Alpha virt. eigenvalues --    0.08052   0.08949   0.09483   0.11412   0.12275
 Alpha virt. eigenvalues --    0.12893   0.13754   0.14668   0.15048   0.16498

 Mulliken charges:
               1
     1  Cl   0.619077
     2  O   -2.061052
     3  C   -0.436441
     4  S    1.140182
     5  S    1.182572
     6  C   -4.659728
     7  H    1.300686
     8  H    1.457289
     9  H    1.457414
 Sum of Mulliken charges =  -0.00000

 Dipole moment (field-independent basis, Debye):
    X=             -3.7027    Y=              0.1098    Z=              0.0009  Tot=              3.7043

 Test job not archived.
 1\1\GINC-SE453\SP\RHF\Aug-CC-pVDZ\C2H3Cl1O1S2\OHZDE\08-Apr-2025\0\\#t
 hf aug-cc-pvdz iop(5/13=1,5/36=2,99/5=2) pseudo=read geom=check guess=
 (read,tcheck) scf=(maxcycle=1)\\title\\0,1\Cl,0,2.562498,-0.272901,0.0
 00328\O,0,0.939548,-0.904385,-0.000051\C,0,-0.079629,-0.003633,-0.0003
 27\S,0,0.01279,1.616686,-0.000066\S,0,-1.520769,-1.029611,-0.000158\C,
 0,-2.850746,0.205558,0.000028\H,0,-3.772656,-0.378855,0.000141\H,0,-2.
 798251,0.824261,-0.89372\H,0,-2.798024,0.824242,0.893776\\Version=ES64
 L-G16RevC.01\State=1-A\HF=-1408.2204734\RMSD=1.099e-01\Dipole=-1.45675

 Normal termination of Gaussian 16 at Tue Apr  8 23:18:59 2025.
