 Gaussian 16, Revision C.01,

 ----------------------------------------------------------------------
 #t hf aug-cc-pvdz symm=none int=(grid=ultrafine) guess=(read,tcheck) s
 table=(opt,rrhf)
 ----------------------------------------------------------------------
 -----
 title
 -----
 Symbolic Z-matrix:
 Charge =  0 Multiplicity = 1

 SCF Done:  E(RHF) =  -836.264096323     A.U. after   17 cycles
 Normal termination of Gaussian 16 at Tue Apr  8 23:56:39 2025.
 Gaussian 16:  ES64L-G16RevC.01  3-Jul-2019

 ----------------------------------------------------------------------
 #t hf aug-cc-pvdz iop(5/13=1,5/36=2,99/5=2) pseudo=read geom=check gue
 ss=(read,tcheck) scf=(maxcycle=1)
 ----------------------------------------------------------------------
 -----
 title
 -----
 Structure from the checkpoint file:  "BDE49_nonexpt_1998_mol1.chk"
 Charge =  0 Multiplicity = 1

                         Standard orientation:
 ---------------------------------------------------------------------
 Center     Atomic      Atomic             Coordinates (Angstroms)
 Number     Number       Type             X           Y           Z
 ---------------------------------------------------------------------
      1          6           0       -0.225613    2.041035   -0.849778
      2         14           0       -0.026805    0.560849    0.203756
      3          7           0        1.480236   -0.394407   -0.250583
      4          7           0       -1.383391   -0.673474   -0.021795
      5          8           0       -1.198223   -1.807555    0.397106
      6          8           0       -2.414061   -0.255845   -0.543631
      7          8           0        1.427634   -0.737637   -1.435348
      8          8           0        2.396879   -0.610205    0.520157
      9          9           0        0.017751    0.849312    1.760371
     10          1           0       -0.259564    1.742588   -1.898975
     11          1           0        0.610530    2.728929   -0.700242
     12          1           0       -1.157533    2.551677   -0.597661
 ---------------------------------------------------------------------

 SCF Done:  E(RHF) =  -838.643703869     A.U. after    2 cycles

 The electronic state is 1-A.
 Alpha  occ. eigenvalues --  -76.37026 -29.34450 -21.13794 -21.13184 -21.12982
 Alpha  occ. eigenvalues --  -21.12733 -16.00221 -16.00113 -11.42385  -5.72125
 Alpha  occ. eigenvalues --   -2.37944  -2.35334  -2.35193  -2.01073  -2.00880
 Alpha  occ. eigenvalues --   -1.72237  -1.71854  -1.15222  -1.06227  -1.00190
 Alpha  occ. eigenvalues --   -0.85345  -0.74366  -0.73555  -0.69356  -0.67727
 Alpha  occ. eigenvalues --   -0.63998  -0.63718  -0.62545  -0.62406  -0.55910
 Alpha  occ. eigenvalues --   -0.43594  -0.43291  -0.39220  -0.36472  -0.35445
 Alpha  occ. eigenvalues --   -0.34671  -0.33878  -0.33610  -0.33116
 Alpha virt. eigenvalues --    0.02419   0.05062   0.05638   0.07162   0.07539
 Alpha virt. eigenvalues --    0.07891   0.09064   0.10210   0.10729   0.13300
 Alpha virt. eigenvalues --    0.13469   0.14725   0.15341   0.15838   0.17637

 Mulliken charges:
               1
     1  C   -5.107262
     2  Si   4.449623
     3  N    3.000812
     4  N    4.119460
     5  O   -2.547890
     6  O   -2.249792
     7  O   -2.175818
     8  O   -2.266825
     9  F   -0.879533
    10  H    1.233869
    11  H    1.172375
    12  H    1.250979
 Sum of Mulliken charges =   0.00000

 Dipole moment (field-independent basis, Debye):
    X=              0.0426    Y=              3.5212    Z=              2.2228  Tot=              4.1643

 Test job not archived.
 1\1\GINC-SE333\SP\RHF\Aug-CC-pVDZ\C1H3F1N2O4Si1\OHZDE\08-Apr-2025\0\\#
 t hf aug-cc-pvdz iop(5/13=1,5/36=2,99/5=2) pseudo=read geom=check gues
 s=(read,tcheck) scf=(maxcycle=1)\\title\\0,1\C,0,-0.225613,2.041035,-0
 .849778\Si,0,-0.026805,0.560849,0.203756\N,0,1.480236,-0.394407,-0.250
 583\N,0,-1.383391,-0.673474,-0.021795\O,0,-1.198223,-1.807555,0.397106
 \O,0,-2.414061,-0.255845,-0.543631\O,0,1.427634,-0.737637,-1.435348\O,
 0,2.396879,-0.610205,0.520157\F,0,0.017751,0.849312,1.760371\H,0,-0.25
 9564,1.742588,-1.898975\H,0,0.61053,2.728929,-0.700242\H,0,-1.157533,2

 Normal termination of Gaussian 16 at Tue Apr  8 23:56:45 2025.
