 Gaussian 16, Revision C.01,

 ----------------------------------------------------------------------
 #t hf aug-cc-pvdz symm=none int=(grid=ultrafine) guess=(read,tcheck) s
 table=(opt,rrhf)
 ----------------------------------------------------------------------
 -----
 title
 -----
 Symbolic Z-matrix:
 Charge =  0 Multiplicity = 1

 SCF Done:  E(RHF) =  -301.192389685     A.U. after   13 cycles
 Normal termination of Gaussian 16 at Wed Apr  9 00:32:46 2025.
 Gaussian 16:  ES64L-G16RevC.01  3-Jul-2019

 ----------------------------------------------------------------------
 #t hf aug-cc-pvdz iop(5/13=1,5/36=2,99/5=2) pseudo=read geom=check gue
 ss=(read,tcheck) scf=(maxcycle=1)
 ----------------------------------------------------------------------
 -----
 title
 -----
 Structure from the checkpoint file:  "BDE49_nonexpt_385_mol1.chk"
 Charge =  0 Multiplicity = 1

                         Standard orientation:
 ---------------------------------------------------------------------
 Center     Atomic      Atomic             Coordinates (Angstroms)
 Number     Number       Type             X           Y           Z
 ---------------------------------------------------------------------
      1          9           0       -1.620514   -0.764011   -0.000021
      2          9           0       -0.680527    1.290237   -0.000003
      3          5           0       -0.513384   -0.029549    0.000033
      4          6           0        0.888903   -0.671016    0.000006
      5          6           0        2.003069    0.068617    0.000004
      6          1           0        0.971438   -1.754889   -0.000012
      7          1           0        1.957795    1.153453    0.000021
      8          1           0        2.995230   -0.372462   -0.000013
 ---------------------------------------------------------------------

 SCF Done:  E(RHF) =  -302.347737785     A.U. after    2 cycles

 The electronic state is 1-A.
 Alpha  occ. eigenvalues --  -29.25228 -29.25107 -11.43727 -11.37145  -7.69803
 Alpha  occ. eigenvalues --   -1.23411  -1.06801  -0.83866  -0.74571  -0.65960
 Alpha  occ. eigenvalues --   -0.58458  -0.52999  -0.51038  -0.44571  -0.43739
 Alpha  occ. eigenvalues --   -0.36986  -0.33490  -0.32704  -0.26409
 Alpha virt. eigenvalues --    0.03021   0.04686   0.04694   0.05698   0.06473
 Alpha virt. eigenvalues --    0.08579   0.08632   0.09377   0.12932   0.14579
 Alpha virt. eigenvalues --    0.15958   0.16475   0.17398   0.18229   0.19285

 Mulliken charges:
               1
     1  F    0.340468
     2  F   -0.726080
     3  B    1.526712
     4  C   -3.567227
     5  C   -1.883033
     6  H    1.437440
     7  H    1.492312
     8  H    1.379408
 Sum of Mulliken charges =   0.00000

 Dipole moment (field-independent basis, Debye):
    X=             -1.3055    Y=              1.0305    Z=             -0.0001  Tot=              1.6632

 Test job not archived.
 1\1\GINC-SE099\SP\RHF\Aug-CC-pVDZ\C2H3B1F2\OHZDE\09-Apr-2025\0\\#t hf
 aug-cc-pvdz iop(5/13=1,5/36=2,99/5=2) pseudo=read geom=check guess=(re
 ad,tcheck) scf=(maxcycle=1)\\title\\0,1\F,0,1.620514,-0.764011,0.00002
 1\F,0,0.680527,1.290237,0.000003\B,0,0.513384,-0.029549,-0.000033\C,0,
 -0.888903,-0.671016,-0.000006\C,0,-2.003069,0.068617,-0.000004\H,0,-0.
 971438,-1.754889,0.000012\H,0,-1.957795,1.153453,-0.000021\H,0,-2.9952
 3,-0.372462,0.000013\\Version=ES64L-G16RevC.01\State=1-A\HF=-302.34773
 78\RMSD=5.003e-01\Dipole=0.5136051,0.4054293,0.0000436\Quadrupole=1.83

 Normal termination of Gaussian 16 at Wed Apr  9 00:32:54 2025.
