 Gaussian 16, Revision C.01,

 ----------------------------------------------------------------------
 #t hf aug-cc-pvdz symm=none int=(grid=ultrafine) guess=(read,tcheck) s
 table=(opt,rrhf)
 ----------------------------------------------------------------------
 -----
 title
 -----
 Symbolic Z-matrix:
 Charge =  0 Multiplicity = 1

 SCF Done:  E(RHF) =  -545.097271894     A.U. after   13 cycles
 Normal termination of Gaussian 16 at Wed Apr  9 00:34:25 2025.
 Gaussian 16:  ES64L-G16RevC.01  3-Jul-2019

 ----------------------------------------------------------------------
 #t hf aug-cc-pvdz iop(5/13=1,5/36=2,99/5=2) pseudo=read geom=check gue
 ss=(read,tcheck) scf=(maxcycle=1)
 ----------------------------------------------------------------------
 -----
 title
 -----
 Structure from the checkpoint file:  "BDE49_nonexpt_426_mol1.chk"
 Charge =  0 Multiplicity = 1

                         Standard orientation:
 ---------------------------------------------------------------------
 Center     Atomic      Atomic             Coordinates (Angstroms)
 Number     Number       Type             X           Y           Z
 ---------------------------------------------------------------------
      1          9           0        2.200947   -0.939985    0.762337
      2          5           0        1.879213    0.112086    0.034828
      3          9           0        2.845907    0.926674   -0.360545
      4          8           0        0.601652    0.459684   -0.279081
      5          6           0       -0.467863   -0.434558   -0.233463
      6          8           0       -0.322140   -1.612458   -0.441538
      7          7           0       -1.636537    0.204898    0.018841
      8          6           0       -1.773818    1.632666    0.275832
      9          1           0       -2.141630    1.803155    1.293816
     10          1           0       -2.492636    2.067997   -0.425975
     11          1           0       -0.818748    2.132119    0.154494
     12          6           0       -2.862121   -0.582838    0.059429
     13          1           0       -3.575490   -0.210372   -0.682879
     14          1           0       -3.323968   -0.517079    1.050125
     15          1           0       -2.622809   -1.620163   -0.157566
 ---------------------------------------------------------------------

 SCF Done:  E(RHF) =  -547.292993969     A.U. after    2 cycles

 The electronic state is 1-A.
 Alpha  occ. eigenvalues --  -29.26227 -29.26036 -21.08206 -21.04365 -15.76850
 Alpha  occ. eigenvalues --  -11.54358 -11.41855 -11.40754  -7.73876  -1.89367
 Alpha  occ. eigenvalues --   -1.69688  -1.44855  -1.12566  -1.06270  -0.99536
 Alpha  occ. eigenvalues --   -0.81213  -0.77546  -0.70609  -0.67811  -0.65432
 Alpha  occ. eigenvalues --   -0.59757  -0.57516  -0.57056  -0.56472  -0.54071
 Alpha  occ. eigenvalues --   -0.51712  -0.50382  -0.46016  -0.45222  -0.39038
 Alpha  occ. eigenvalues --   -0.35029  -0.34324  -0.31488  -0.27835  -0.26006
 Alpha virt. eigenvalues --    0.00327   0.03018   0.04385   0.05072   0.05322
 Alpha virt. eigenvalues --    0.05817   0.06392   0.07080   0.07211   0.09077
 Alpha virt. eigenvalues --    0.09895   0.12781   0.13305   0.13713   0.14168

 Mulliken charges:
               1
     1  F   -0.805329
     2  B    2.085249
     3  F   -0.476525
     4  O   -2.810059
     5  C    5.784503
     6  O   -2.583290
     7  N   -2.874684
     8  C   -3.499724
     9  H    1.410408
    10  H    1.420556
    11  H    1.679936
    12  C   -3.490980
    13  H    1.406532
    14  H    1.411364
    15  H    1.342043
 Sum of Mulliken charges =  -0.00000

 Dipole moment (field-independent basis, Debye):
    X=              0.0695    Y=              0.6582    Z=              1.2013  Tot=              1.3716

 Test job not archived.
 1\1\GINC-SE459\SP\RHF\Aug-CC-pVDZ\C3H6B1F2N1O2\OHZDE\09-Apr-2025\0\\#t
  hf aug-cc-pvdz iop(5/13=1,5/36=2,99/5=2) pseudo=read geom=check guess
 =(read,tcheck) scf=(maxcycle=1)\\title\\0,1\F,0,2.200947,-0.939985,0.7
 62337\B,0,1.879213,0.112086,0.034828\F,0,2.845907,0.926674,-0.360545\O
 ,0,0.601652,0.459684,-0.279081\C,0,-0.467863,-0.434558,-0.233463\O,0,-
 0.32214,-1.612458,-0.441538\N,0,-1.636537,0.204898,0.018841\C,0,-1.773
 818,1.632666,0.275832\H,0,-2.14163,1.803155,1.293816\H,0,-2.492636,2.0
 67997,-0.425975\H,0,-0.818748,2.132119,0.154494\C,0,-2.862121,-0.58283

 Normal termination of Gaussian 16 at Wed Apr  9 00:34:31 2025.
