 Gaussian 16, Revision C.01,

 ----------------------------------------------------------------------
 #t hf aug-cc-pvdz symm=none int=(grid=ultrafine) guess=(read,tcheck) s
 table=(opt,rrhf)
 ----------------------------------------------------------------------
 -----
 title
 -----
 Symbolic Z-matrix:
 Charge =  0 Multiplicity = 1

 SCF Done:  E(RHF) =  -2201.95076760     A.U. after   14 cycles
 Normal termination of Gaussian 16 at Tue Apr  8 23:17:53 2025.
 Gaussian 16:  ES64L-G16RevC.01  3-Jul-2019

 ----------------------------------------------------------------------
 #t hf aug-cc-pvdz iop(5/13=1,5/36=2,99/5=2) pseudo=read geom=check gue
 ss=(read,tcheck) scf=(maxcycle=1)
 ----------------------------------------------------------------------
 -----
 title
 -----
 Structure from the checkpoint file:  "BDE49_nonexpt_1025_mol1.chk"
 Charge =  0 Multiplicity = 1

                         Standard orientation:
 ---------------------------------------------------------------------
 Center     Atomic      Atomic             Coordinates (Angstroms)
 Number     Number       Type             X           Y           Z
 ---------------------------------------------------------------------
      1         17           0       -2.490601    0.000000   -0.517899
      2          8           0       -0.879234    0.000000   -1.135320
      3         14           0        0.355585    0.000000   -0.031843
      4         17           0        2.006711    0.000000   -1.218334
      5         17           0        0.302406    1.662203    1.148362
      6         17           0        0.302406   -1.662203    1.148363
 ---------------------------------------------------------------------

 SCF Done:  E(RHF) =  -2203.36977603     A.U. after    2 cycles

 The electronic state is 1-A.
 Alpha  occ. eigenvalues --  -99.97206 -99.92018 -99.92017 -99.91981 -76.37513
 Alpha  occ. eigenvalues --  -21.13876 -10.53873 -10.49587 -10.49565 -10.49471
 Alpha  occ. eigenvalues --   -9.73714  -9.72950  -9.72808  -9.69370  -9.69363
 Alpha  occ. eigenvalues --   -9.69335  -9.68840  -9.68805  -9.68727  -9.68629
 Alpha  occ. eigenvalues --   -9.68627  -9.68564  -5.71625  -2.36538  -2.33328
 Alpha  occ. eigenvalues --   -2.33000  -1.77780  -1.35516  -1.31637  -1.31625
 Alpha  occ. eigenvalues --   -1.26477  -0.81010  -0.66315  -0.65506  -0.65431
 Alpha  occ. eigenvalues --   -0.61698  -0.61604  -0.58059  -0.57483  -0.57434
 Alpha  occ. eigenvalues --   -0.54655  -0.54546  -0.53179  -0.45030  -0.42870
 Alpha virt. eigenvalues --   -0.00382   0.03460   0.06186   0.06186   0.06355
 Alpha virt. eigenvalues --    0.06777   0.09569   0.10610   0.11688   0.12478
 Alpha virt. eigenvalues --    0.12825   0.13170   0.13888   0.14948   0.16145

 Mulliken charges:
               1
     1  Cl   0.645281
     2  O   -1.956074
     3  Si   3.348822
     4  Cl  -0.672195
     5  Cl  -0.682917
     6  Cl  -0.682917
 Sum of Mulliken charges =  -0.00000

 Dipole moment (field-independent basis, Debye):
    X=              0.6633    Y=              0.0000    Z=             -0.9604  Tot=              1.1672

 Test job not archived.
 1\1\GINC-SE227\SP\RHF\Aug-CC-pVDZ\Cl4O1Si1\OHZDE\08-Apr-2025\0\\#t hf
 aug-cc-pvdz iop(5/13=1,5/36=2,99/5=2) pseudo=read geom=check guess=(re
 ad,tcheck) scf=(maxcycle=1)\\title\\0,1\Cl,0,-2.490601,0.,-0.517899\O,
 0,-0.879234,0.,-1.13532\Si,0,0.355585,0.,-0.031843\Cl,0,2.006711,0.,-1
 .218334\Cl,0,0.302406,1.662203,1.148362\Cl,0,0.302406,-1.662203,1.1483
 63\\Version=ES64L-G16RevC.01\State=1-A\HF=-2203.369776\RMSD=2.549e-02\
 Dipole=0.2609431,0.0000007,-0.3778591\Quadrupole=0.1348808,-0.4552557,
 0.3203749,0.0000004,-1.1036811,0.0000018\PG=C01 [X(Cl4O1Si1)]\\@

 Normal termination of Gaussian 16 at Tue Apr  8 23:17:55 2025.
