 Gaussian 16, Revision C.01,

 ----------------------------------------------------------------------
 #t hf aug-cc-pvdz symm=none int=(grid=ultrafine) guess=(read,tcheck) s
 table=opt
 ----------------------------------------------------------------------
 -----
 title
 -----
 Symbolic Z-matrix:
 Charge =  0 Multiplicity = 2

 SCF Done:  E(UHF) =  -736.919974739     A.U. after   15 cycles
 Normal termination of Gaussian 16 at Tue Apr  8 23:13:54 2025.
 Gaussian 16:  ES64L-G16RevC.01  3-Jul-2019

 ----------------------------------------------------------------------
 #t hf aug-cc-pvdz iop(5/13=1,5/36=2,99/5=2) pseudo=read geom=check gue
 ss=(read,tcheck) scf=(maxcycle=1)
 ----------------------------------------------------------------------
 -----
 title
 -----
 Structure from the checkpoint file:  "BDE49_expt_802_mol2.chk"
 Charge =  0 Multiplicity = 2

                         Standard orientation:
 ---------------------------------------------------------------------
 Center     Atomic      Atomic             Coordinates (Angstroms)
 Number     Number       Type             X           Y           Z
 ---------------------------------------------------------------------
      1         14           0        1.122362   -0.000000    0.386138
      2         14           0       -1.109999    0.000000   -0.383104
      3          6           0        2.021696   -1.551170   -0.208903
      4          1           0        1.153643   -0.000000    1.880325
      5          6           0        2.021696    1.551170   -0.208903
      6          6           0       -2.089753    1.548446    0.108096
      7          6           0       -2.089754   -1.548446    0.108097
      8          1           0        2.041871    1.600510   -1.301212
      9          1           0        3.055862    1.557715    0.148968
     10          1           0        1.537021    2.459397    0.159648
     11          1           0        1.537021   -2.459397    0.159647
     12          1           0        3.055862   -1.557716    0.148968
     13          1           0        2.041872   -1.600510   -1.301212
     14          1           0       -2.251459   -1.580386    1.192014
     15          1           0       -1.566666   -2.463061   -0.181619
     16          1           0       -3.071651   -1.556747   -0.374361
     17          1           0       -2.251459    1.580386    1.192014
     18          1           0       -3.071651    1.556748   -0.374361
     19          1           0       -1.566666    2.463061   -0.181619
 ---------------------------------------------------------------------

 SCF Done:  E(UHF) =  -738.064719639     A.U. after    2 cycles

 The electronic state is 2-A.
 Alpha  occ. eigenvalues --  -76.19742 -76.19341 -11.34695 -11.34601 -11.34372
 Alpha  occ. eigenvalues --  -11.34238  -5.53449  -5.53083  -2.17062  -2.16788
 Alpha  occ. eigenvalues --   -2.16070  -2.15785  -2.14853  -2.13962  -1.06116
 Alpha  occ. eigenvalues --   -1.04805  -1.00765  -1.00135  -0.71733  -0.62357
 Alpha  occ. eigenvalues --   -0.56569  -0.56334  -0.56139  -0.55285  -0.54813
 Alpha  occ. eigenvalues --   -0.54453  -0.54261  -0.53667  -0.42944  -0.40384
 Alpha  occ. eigenvalues --   -0.38439  -0.32830  -0.23575
 Alpha virt. eigenvalues --    0.03562   0.04195   0.04473   0.05866   0.06218
 Alpha virt. eigenvalues --    0.06589   0.06785   0.06882   0.07129   0.07361
 Alpha virt. eigenvalues --    0.07646   0.08187   0.08242   0.08915   0.08963

  Beta  occ. eigenvalues --  -76.19324 -76.19241 -11.34699 -11.34606 -11.34387
  Beta  occ. eigenvalues --  -11.34253  -5.53051  -5.52680  -2.16807  -2.16412
  Beta  occ. eigenvalues --   -2.15768  -2.15357  -2.14244  -2.11172  -1.05734
  Beta  occ. eigenvalues --   -1.04443  -1.00693  -1.00056  -0.70046  -0.59280
  Beta  occ. eigenvalues --   -0.56479  -0.56205  -0.55368  -0.54978  -0.54716
  Beta  occ. eigenvalues --   -0.54284  -0.53915  -0.53605  -0.42465  -0.40190
  Beta  occ. eigenvalues --   -0.38309  -0.31365
  Beta virt. eigenvalues --    0.02851   0.04340   0.04611   0.05717   0.06250
  Beta virt. eigenvalues --    0.06262   0.06619   0.06802   0.07018   0.07364
  Beta virt. eigenvalues --    0.07376   0.07996   0.08261   0.08268   0.09018

 Mulliken charges and spin densities:
               1          2
     1  Si   4.820750  -0.145757
     2  Si   3.791239   1.354978
     3  C   -5.303429  -0.025755
     4  H   -2.488444   0.019567
     5  C   -5.303429  -0.025755
     6  C   -5.586948  -0.041814
     7  C   -5.586947  -0.041814
     8  H    1.361669   0.008771
     9  H    1.218044  -0.006214
    10  H    1.338239   0.002150
    11  H    1.338239   0.002150
    12  H    1.218044  -0.006214
    13  H    1.361669   0.008771
    14  H    1.247787  -0.002370
    15  H    1.379841  -0.005272
    16  H    1.283024  -0.043891
    17  H    1.247786  -0.002370
    18  H    1.283024  -0.043891
    19  H    1.379842  -0.005272
 Sum of Mulliken charges =  -0.00000   1.00000

 Dipole moment (field-independent basis, Debye):
    X=             -0.1189    Y=              0.0000    Z=             -0.3169  Tot=              0.3385
                          Isotropic Fermi Contact Couplings
        Atom                 a.u.       MegaHertz       Gauss      10(-4) cm-1
     1  Si(29)             0.03614     -32.12114     -11.46162     -10.71446
     2  Si(29)             0.31547    -280.36247    -100.04030     -93.51885
     3  C(13)             -0.00335      -3.76801      -1.34452      -1.25687
     4  H(1)               0.00734      32.83018      11.71463      10.95097
     5  C(13)             -0.00335      -3.76801      -1.34452      -1.25687
     6  C(13)              0.00609       6.84754       2.44337       2.28409
     7  C(13)              0.00609       6.84751       2.44336       2.28408
     8  H(1)              -0.00008      -0.36804      -0.13133      -0.12277

 Normal termination of Gaussian 16 at Tue Apr  8 23:14:02 2025.
