 Gaussian 16, Revision C.01,

 ----------------------------------------------------------------------
 #t hf aug-cc-pvdz symm=none int=(grid=ultrafine) guess=(read,tcheck) s
 table=opt
 ----------------------------------------------------------------------
 -----
 title
 -----
 Symbolic Z-matrix:
 Charge =  0 Multiplicity = 2

 SCF Done:  E(UHF) =  -969.442429039     A.U. after   17 cycles
 Normal termination of Gaussian 16 at Tue Apr  8 22:57:46 2025.
 Gaussian 16:  ES64L-G16RevC.01  3-Jul-2019

 ----------------------------------------------------------------------
 #t hf aug-cc-pvdz iop(5/13=1,5/36=2,99/5=2) pseudo=read geom=check gue
 ss=(read,tcheck) scf=(maxcycle=1)
 ----------------------------------------------------------------------
 -----
 title
 -----
 Structure from the checkpoint file:  "BDE49_expt_1866_mol2.chk"
 Charge =  0 Multiplicity = 2

                         Standard orientation:
 ---------------------------------------------------------------------
 Center     Atomic      Atomic             Coordinates (Angstroms)
 Number     Number       Type             X           Y           Z
 ---------------------------------------------------------------------
      1          8           0        0.000003    0.000495    1.646595
      2         16           0        0.000050    0.000019    0.025293
      3          9           0       -1.614400    0.000051   -0.047229
      4          9           0       -0.000059    1.610702    0.082208
      5          9           0        0.000114   -0.000496   -1.579629
      6          9           0        1.614470   -0.000107   -0.047105
      7          9           0       -0.000217   -1.610625    0.083150
 ---------------------------------------------------------------------

 SCF Done:  E(UHF) =  -971.700452079     A.U. after    2 cycles

 The electronic state is 2-A.
 Alpha  occ. eigenvalues --  -76.11109 -29.34626 -29.34553 -29.34007 -29.33119
 Alpha  occ. eigenvalues --  -29.33049 -21.21268 -13.58787 -13.58542 -13.58197
 Alpha  occ. eigenvalues --   -8.45186  -1.91433  -1.55771  -1.08658  -1.07588
 Alpha  occ. eigenvalues --   -0.91601  -0.70976  -0.66356  -0.62058  -0.61990
 Alpha  occ. eigenvalues --   -0.59422  -0.51359  -0.46832  -0.44969  -0.42600
 Alpha  occ. eigenvalues --   -0.41468  -0.38679  -0.37073  -0.35657  -0.34331
 Alpha  occ. eigenvalues --   -0.34244  -0.34064  -0.25173  -0.22060  -0.21080
 Alpha virt. eigenvalues --    0.09098   0.10448   0.10684   0.11965   0.18323
 Alpha virt. eigenvalues --    0.19016   0.19221   0.19323   0.21299   0.23266
 Alpha virt. eigenvalues --    0.24776   0.25884   0.26190   0.28689   0.28932

  Beta  occ. eigenvalues --  -76.11178 -29.34462 -29.34390 -29.34000 -29.33183
  Beta  occ. eigenvalues --  -29.33113 -21.17411 -13.59043 -13.58642 -13.58214
  Beta  occ. eigenvalues --   -8.45287  -1.82805  -1.50577  -1.07607  -1.07497
  Beta  occ. eigenvalues --   -0.90309  -0.70928  -0.60984  -0.60903  -0.59406
  Beta  occ. eigenvalues --   -0.56170  -0.50504  -0.44465  -0.44035  -0.40009
  Beta  occ. eigenvalues --   -0.37707  -0.36353  -0.35582  -0.34538  -0.34262
  Beta  occ. eigenvalues --   -0.33624  -0.28543  -0.21701  -0.21035
  Beta virt. eigenvalues --    0.09193   0.09609   0.10686   0.11653   0.12002
  Beta virt. eigenvalues --    0.18985   0.19089   0.19320   0.19438   0.21376
  Beta virt. eigenvalues --    0.23278   0.24844   0.26258   0.27255   0.28802

 Mulliken charges and spin densities:
               1          2
     1  O   -1.827514   1.021854
     2  S    0.720798  -0.131068
     3  F    0.244319  -0.008847
     4  F    0.232400   0.061455
     5  F    0.153252   0.003999
     6  F    0.244322  -0.008850
     7  F    0.232423   0.061458
 Sum of Mulliken charges =  -0.00000   1.00000

 Dipole moment (field-independent basis, Debye):
    X=              0.0000    Y=             -0.0010    Z=             -3.0595  Tot=              3.0595
                          Isotropic Fermi Contact Couplings
        Atom                 a.u.       MegaHertz       Gauss      10(-4) cm-1
     1  O(17)              0.17534    -106.28963     -37.92678     -35.45440
     2  S(33)             -0.10820     -37.16413     -13.26109     -12.39662
     3  F(19)             -0.00735     -30.92971     -11.03649     -10.31704
     4  F(19)              0.02505     105.39955      37.60918      35.15750
     5  F(19)              0.00011       0.44232       0.15783       0.14754
     6  F(19)             -0.00735     -30.93550     -11.03855     -10.31897
     7  F(19)              0.02505     105.39651      37.60810      35.15649
 --------------------------------------------------------

 Normal termination of Gaussian 16 at Tue Apr  8 22:57:49 2025.
