 Gaussian 16, Revision C.01,

 ----------------------------------------------------------------------
 #t hf aug-cc-pvdz symm=none int=(grid=ultrafine) guess=(read,tcheck) s
 table=(opt,rrhf)
 ----------------------------------------------------------------------
 -----
 title
 -----
 Symbolic Z-matrix:
 Charge =  0 Multiplicity = 1

 SCF Done:  E(RHF) =  -912.639496216     A.U. after   16 cycles
 Normal termination of Gaussian 16 at Tue Apr  8 22:39:12 2025.
 Gaussian 16:  ES64L-G16RevC.01  3-Jul-2019

 ----------------------------------------------------------------------
 #t hf aug-cc-pvdz iop(5/13=1,5/36=2,99/5=2) pseudo=read geom=check gue
 ss=(read,tcheck) scf=(maxcycle=1)
 ----------------------------------------------------------------------
 -----
 title
 -----
 Structure from the checkpoint file:  "BDE49_expt_1119_mol1.chk"
 Charge =  0 Multiplicity = 1

                         Standard orientation:
 ---------------------------------------------------------------------
 Center     Atomic      Atomic             Coordinates (Angstroms)
 Number     Number       Type             X           Y           Z
 ---------------------------------------------------------------------
      1          6           0       -0.221685    1.159000    0.030199
      2          6           0        1.162053    1.227608    0.040943
      3          6           0        1.897103    0.048752    0.009938
      4          6           0        1.238730   -1.173547   -0.038003
      5          6           0       -0.151298   -1.220170   -0.039404
      6          6           0       -0.923621   -0.049211   -0.006272
      7          9           0       -0.889491    2.335653    0.049403
      8          9           0        1.946918   -2.301697   -0.083887
      9          9           0       -0.711392   -2.421555   -0.101989
     10          9           0        1.784837    2.405910    0.081604
     11          9           0        3.225287    0.092309    0.016248
     12          6           0       -2.434848   -0.150069    0.055504
     13          8           0       -2.991320   -1.131989    0.450342
     14          8           0       -3.138238    0.917886   -0.372020
     15          1           0       -2.567576    1.663068   -0.596409
 ---------------------------------------------------------------------

 SCF Done:  E(RHF) =  -916.100833927     A.U. after    2 cycles

 The electronic state is 1-A.
 Alpha  occ. eigenvalues --  -29.35900 -29.35230 -29.34626 -29.34032 -29.33466
 Alpha  occ. eigenvalues --  -21.14376 -21.07520 -11.63331 -11.57955 -11.57494
 Alpha  occ. eigenvalues --  -11.56231 -11.54407 -11.52408 -11.48471  -1.85111
 Alpha  occ. eigenvalues --   -1.68237  -1.50274  -1.31302  -1.29219  -1.11163
 Alpha  occ. eigenvalues --   -1.10224  -0.94415  -0.94307  -0.82028  -0.79384
 Alpha  occ. eigenvalues --   -0.78663  -0.77344  -0.70021  -0.67202  -0.65861
 Alpha  occ. eigenvalues --   -0.60039  -0.58569  -0.55093  -0.53606  -0.50657
 Alpha  occ. eigenvalues --   -0.46575  -0.45692  -0.44811  -0.44205  -0.42847
 Alpha  occ. eigenvalues --   -0.42092  -0.40377  -0.37617  -0.35615  -0.33577
 Alpha  occ. eigenvalues --   -0.33253  -0.32803  -0.32419  -0.30536  -0.27565
 Alpha  occ. eigenvalues --   -0.25019  -0.21137
 Alpha virt. eigenvalues --    0.04962   0.06705   0.09079   0.09342   0.09987
 Alpha virt. eigenvalues --    0.10292   0.10567   0.10905   0.11201   0.11504
 Alpha virt. eigenvalues --    0.11657   0.12123   0.12548   0.13329   0.13997

 Mulliken charges:
               1
     1  C    3.157811
     2  C   -2.090616
     3  C    0.597071
     4  C   -2.256917
     5  C    2.449332
     6  C   -6.036814
     7  F    1.008911
     8  F    1.175750
     9  F    1.129051
    10  F    1.225347
    11  F    1.142041
    12  C    3.690679
    13  O   -3.094932
    14  O   -3.135247
    15  H    1.038533
 Sum of Mulliken charges =  -0.00000

 Dipole moment (field-independent basis, Debye):
    X=              4.9044    Y=              1.1252    Z=             -0.3669  Tot=              5.0451

 Test job not archived.
 1\1\GINC-SE166\SP\RHF\Aug-CC-pVDZ\C7H1F5O2\OHZDE\08-Apr-2025\0\\#t hf
 aug-cc-pvdz iop(5/13=1,5/36=2,99/5=2) pseudo=read geom=check guess=(re
 ad,tcheck) scf=(maxcycle=1)\\title\\0,1\C,0,-0.221685,1.159,0.030199\C
 ,0,1.162053,1.227608,0.040943\C,0,1.897103,0.048752,0.009938\C,0,1.238
 73,-1.173547,-0.038003\C,0,-0.151298,-1.22017,-0.039404\C,0,-0.923621,
 -0.049211,-0.006272\F,0,-0.889491,2.335653,0.049403\F,0,1.946918,-2.30
 1697,-0.083887\F,0,-0.711392,-2.421555,-0.101989\F,0,1.784837,2.40591,
 0.081604\F,0,3.225287,0.09231,0.016248\C,0,-2.434848,-0.150069,0.05550

 Normal termination of Gaussian 16 at Tue Apr  8 22:39:22 2025.
