 Gaussian 16, Revision C.01,

 ----------------------------------------------------------------------
 #t hf aug-cc-pvdz symm=none int=(grid=ultrafine) guess=(read,tcheck) s
 table=(opt,rrhf)
 ----------------------------------------------------------------------
 -----
 title
 -----
 Symbolic Z-matrix:
 Charge =  0 Multiplicity = 1

 SCF Done:  E(RHF) =  -799.208486832     A.U. after   17 cycles
 Normal termination of Gaussian 16 at Wed Apr  9 00:43:58 2025.
 Gaussian 16:  ES64L-G16RevC.01  3-Jul-2019

 ----------------------------------------------------------------------
 #t hf aug-cc-pvdz iop(5/13=1,5/36=2,99/5=2) pseudo=read geom=check gue
 ss=(read,tcheck) scf=(maxcycle=1)
 ----------------------------------------------------------------------
 -----
 title
 -----
 Structure from the checkpoint file:  "BDE49_nonexpt_706_mol1.chk"
 Charge =  0 Multiplicity = 1

                         Standard orientation:
 ---------------------------------------------------------------------
 Center     Atomic      Atomic             Coordinates (Angstroms)
 Number     Number       Type             X           Y           Z
 ---------------------------------------------------------------------
      1         15           0       -0.091357    0.143779   -1.008594
      2          7           0       -1.375994   -0.759603   -0.015802
      3          5           0        1.493885   -0.484371   -0.032644
      4          8           0       -2.413289   -0.187179    0.263138
      5          8           0       -1.156857   -1.951844    0.234933
      6          8           0        2.556739    0.361592   -0.086283
      7          8           0        1.560459   -1.692690    0.557822
      8          6           0       -0.358892    1.875781   -0.405336
      9          6           0       -0.206892    2.153595    1.092068
     10          1           0       -1.347409    2.170635   -0.765415
     11          1           0        0.368972    2.455085   -0.985734
     12          1           0       -0.396186    3.210486    1.300685
     13          1           0        0.803358    1.921013    1.434336
     14          1           0       -0.920961    1.569589    1.675217
     15          1           0        0.700290   -2.149815    0.533620
     16          1           0        3.343113   -0.009884    0.332774
 ---------------------------------------------------------------------

 SCF Done:  E(RHF) =  -801.364581552     A.U. after    2 cycles

 The electronic state is 1-A.
 Alpha  occ. eigenvalues -- -105.22341 -21.10790 -21.09476 -21.08397 -21.06748
 Alpha  occ. eigenvalues --  -15.98390 -11.42872 -11.38298  -7.67724  -2.80532
 Alpha  occ. eigenvalues --   -1.99257  -1.83746  -1.69832  -1.68054  -1.54179
 Alpha  occ. eigenvalues --   -1.51642  -1.49069  -1.15516  -0.97050  -0.88373
 Alpha  occ. eigenvalues --   -0.76686  -0.74704  -0.65898  -0.65207  -0.63230
 Alpha  occ. eigenvalues --   -0.60771  -0.58895  -0.55825  -0.52487  -0.52401
 Alpha  occ. eigenvalues --   -0.50667  -0.48966  -0.44435  -0.38454  -0.33225
 Alpha  occ. eigenvalues --   -0.32194  -0.25053  -0.16958  -0.03938
 Alpha virt. eigenvalues --    0.03485   0.04435   0.05179   0.05669   0.06188
 Alpha virt. eigenvalues --    0.07101   0.07217   0.07886   0.08968   0.09195
 Alpha virt. eigenvalues --    0.10163   0.10400   0.11499   0.11785   0.13235

 Mulliken charges:
               1
     1  P    3.077277
     2  N    4.073071
     3  B    5.732038
     4  O   -2.633077
     5  O   -2.778497
     6  O   -3.864680
     7  O   -4.093637
     8  C   -4.856843
     9  C   -3.975754
    10  H    1.275162
    11  H    1.311631
    12  H    1.043950
    13  H    1.356040
    14  H    1.463403
    15  H    1.797790
    16  H    1.072127
 Sum of Mulliken charges =   0.00000

 Dipole moment (field-independent basis, Debye):
    X=              0.0230    Y=              1.9271    Z=             -2.6172  Tot=              3.2502

 Test job not archived.
 1\1\GINC-SE141\SP\RHF\Aug-CC-pVDZ\C2H7B1N1O4P1\OHZDE\09-Apr-2025\0\\#t
  hf aug-cc-pvdz iop(5/13=1,5/36=2,99/5=2) pseudo=read geom=check guess
 =(read,tcheck) scf=(maxcycle=1)\\title\\0,1\P,0,-0.091357,0.143779,-1.
 008594\N,0,-1.375994,-0.759602,-0.015802\B,0,1.493885,-0.484371,-0.032
 644\O,0,-2.413289,-0.187178,0.263138\O,0,-1.156858,-1.951843,0.234933\
 O,0,2.556739,0.361591,-0.086283\O,0,1.560459,-1.69269,0.557822\C,0,-0.
 358891,1.875781,-0.405336\C,0,-0.206891,2.153595,1.092068\H,0,-1.34740
 8,2.170636,-0.765415\H,0,0.368973,2.455085,-0.985734\H,0,-0.396185,3.2

 Normal termination of Gaussian 16 at Wed Apr  9 00:44:06 2025.
