 Gaussian 16, Revision C.01,

 ----------------------------------------------------------------------
 #t hf aug-cc-pvdz symm=none int=(grid=ultrafine) guess=(read,tcheck) s
 table=(opt,rrhf)
 ----------------------------------------------------------------------
 -----
 title
 -----
 Symbolic Z-matrix:
 Charge =  0 Multiplicity = 1

 SCF Done:  E(RHF) =  -903.230161099     A.U. after   12 cycles
 Normal termination of Gaussian 16 at Wed Apr  9 00:03:00 2025.
 Gaussian 16:  ES64L-G16RevC.01  3-Jul-2019

 ----------------------------------------------------------------------
 #t hf aug-cc-pvdz iop(5/13=1,5/36=2,99/5=2) pseudo=read geom=check gue
 ss=(read,tcheck) scf=(maxcycle=1)
 ----------------------------------------------------------------------
 -----
 title
 -----
 Structure from the checkpoint file:  "BDE49_nonexpt_2162_mol1.chk"
 Charge =  0 Multiplicity = 1

                         Standard orientation:
 ---------------------------------------------------------------------
 Center     Atomic      Atomic             Coordinates (Angstroms)
 Number     Number       Type             X           Y           Z
 ---------------------------------------------------------------------
      1          6           0        2.401118   -0.308423   -0.066500
      2          8           0        1.281582    0.548385   -0.280599
      3         14           0       -0.199845    0.421174    0.394809
      4          6           0       -1.254677    1.794639   -0.261289
      5          1           0       -1.326802    1.737006   -1.349742
      6          1           0       -0.821410    2.762230    0.007086
      7          1           0        2.213610   -1.302450   -0.482542
      8          1           0        2.630434   -0.404129    1.000517
      9         17           0       -1.053948   -1.426786   -0.114285
     10          1           0       -2.263083    1.737427    0.156105
     11          1           0        3.258634    0.134799   -0.573583
     12          1           0       -0.107745    0.389671    1.869196
 ---------------------------------------------------------------------

 SCF Done:  E(RHF) =  -904.353383541     A.U. after    2 cycles

 The electronic state is 1-A.
 Alpha  occ. eigenvalues --  -99.87266 -76.26226 -21.05427 -11.41455 -11.35902
 Alpha  occ. eigenvalues --  -10.44670  -9.64578  -9.64038  -9.63932  -5.60327
 Alpha  occ. eigenvalues --   -2.27074  -2.23062  -2.21597  -1.70533  -1.27679
 Alpha  occ. eigenvalues --   -1.05382  -0.98570  -0.72990  -0.61971  -0.61616
 Alpha  occ. eigenvalues --   -0.58247  -0.58028  -0.54561  -0.53614  -0.52285
 Alpha  occ. eigenvalues --   -0.49821  -0.43374  -0.37703  -0.36427
 Alpha virt. eigenvalues --    0.03447   0.04425   0.06092   0.06166   0.06412
 Alpha virt. eigenvalues --    0.06761   0.07873   0.08357   0.08893   0.09445
 Alpha virt. eigenvalues --    0.11594   0.13802   0.14435   0.14850   0.15490

 Mulliken charges:
               1
     1  C   -2.532730
     2  O   -3.308743
     3  Si   5.903498
     4  C   -4.887258
     5  H    1.292070
     6  H    1.358902
     7  H    1.315604
     8  H    1.364243
     9  Cl  -0.918687
    10  H    1.242950
    11  H    1.379195
    12  H   -2.209044
 Sum of Mulliken charges =   0.00000

 Dipole moment (field-independent basis, Debye):
    X=              1.2788    Y=              1.8491    Z=             -0.1403  Tot=              2.2526

 Test job not archived.
 1\1\GINC-SE250\SP\RHF\Aug-CC-pVDZ\C2H7Cl1O1Si1\OHZDE\09-Apr-2025\0\\#t
  hf aug-cc-pvdz iop(5/13=1,5/36=2,99/5=2) pseudo=read geom=check guess
 =(read,tcheck) scf=(maxcycle=1)\\title\\0,1\C,0,2.401118,-0.308423,-0.
 0665\O,0,1.281582,0.548385,-0.280599\Si,0,-0.199845,0.421174,0.394809\
 C,0,-1.254677,1.794639,-0.261289\H,0,-1.326802,1.737006,-1.349742\H,0,
 -0.82141,2.76223,0.007086\H,0,2.21361,-1.30245,-0.482542\H,0,2.630434,
 -0.404129,1.000517\Cl,0,-1.053948,-1.426786,-0.114285\H,0,-2.263083,1.
 737427,0.156105\H,0,3.258634,0.134799,-0.573583\H,0,-0.107745,0.389671

 Normal termination of Gaussian 16 at Wed Apr  9 00:03:04 2025.
