 Gaussian 16, Revision C.01,

 ----------------------------------------------------------------------
 #t hf aug-cc-pvdz symm=none int=(grid=ultrafine) guess=(read,tcheck) s
 table=(opt,rrhf)
 ----------------------------------------------------------------------
 -----
 title
 -----
 Symbolic Z-matrix:
 Charge =  0 Multiplicity = 1

 SCF Done:  E(RHF) =  -1897.64706413     A.U. after   15 cycles
 Normal termination of Gaussian 16 at Tue Apr  8 23:48:31 2025.
 Gaussian 16:  ES64L-G16RevC.01  3-Jul-2019

 ----------------------------------------------------------------------
 #t hf aug-cc-pvdz iop(5/13=1,5/36=2,99/5=2) pseudo=read geom=check gue
 ss=(read,tcheck) scf=(maxcycle=1)
 ----------------------------------------------------------------------
 -----
 title
 -----
 Structure from the checkpoint file:  "BDE49_nonexpt_1779_mol1.chk"
 Charge =  0 Multiplicity = 1

                         Standard orientation:
 ---------------------------------------------------------------------
 Center     Atomic      Atomic             Coordinates (Angstroms)
 Number     Number       Type             X           Y           Z
 ---------------------------------------------------------------------
      1          6           0        0.008518   -1.209803    0.307816
      2          6           0        1.367449   -1.193626    0.013606
      3          6           0        2.065596    0.000010   -0.137990
      4          6           0        1.367432    1.193636    0.013611
      5          6           0        0.008501    1.209793    0.307820
      6          6           0       -0.684155   -0.000010    0.455492
      7          1           0       -0.496688   -2.161142    0.420551
      8         17           0        2.230013   -2.708175   -0.167934
      9         14           0       -2.512800   -0.000024    0.843424
     10          1           0       -0.496717    2.161125    0.420559
     11         17           0       -3.636699    0.000003   -0.912107
     12         17           0        2.229976    2.708197   -0.167925
     13          1           0        3.122445    0.000017   -0.364829
     14          1           0       -2.872921    1.222484    1.584565
     15          1           0       -2.872909   -1.222562    1.584522
 ---------------------------------------------------------------------

 SCF Done:  E(RHF) =  -1899.62403019     A.U. after    2 cycles

 The electronic state is 1-A.
 Alpha  occ. eigenvalues --  -99.91073 -99.91064 -99.88873 -76.27438 -11.54514
 Alpha  occ. eigenvalues --  -11.49160 -11.47445 -11.45875 -11.45751 -11.40589
 Alpha  occ. eigenvalues --  -10.48425 -10.48416 -10.46259  -9.68449  -9.68421
 Alpha  occ. eigenvalues --   -9.67570  -9.67531  -9.67378  -9.67368  -9.66178
 Alpha  occ. eigenvalues --   -9.65564  -9.65528  -5.61018  -2.25492  -2.24020
 Alpha  occ. eigenvalues --   -2.23126  -1.44447  -1.35530  -1.29384  -1.26802
 Alpha  occ. eigenvalues --   -1.12388  -1.10187  -0.91163  -0.89257  -0.79387
 Alpha  occ. eigenvalues --   -0.73799  -0.67826  -0.66098  -0.62632  -0.60629
 Alpha  occ. eigenvalues --   -0.58512  -0.56969  -0.56455  -0.56087  -0.54890
 Alpha  occ. eigenvalues --   -0.52469  -0.51498  -0.49752  -0.49292  -0.48021
 Alpha  occ. eigenvalues --   -0.42671  -0.37240  -0.35800
 Alpha virt. eigenvalues --    0.02830   0.04617   0.05184   0.05359   0.05421
 Alpha virt. eigenvalues --    0.06362   0.07101   0.07124   0.07330   0.09214
 Alpha virt. eigenvalues --    0.09244   0.09563   0.10251   0.11203   0.11449

 Mulliken charges:
               1
     1  C   -1.654327
     2  C   -0.297576
     3  C    0.379435
     4  C   -0.297578
     5  C   -1.654276
     6  C   -0.789412
     7  H    1.884814
     8  Cl  -0.796385
     9  Si   4.534046
    10  H    1.884817
    11  Cl  -0.957852
    12  Cl  -0.796385
    13  H    1.805551
    14  H   -1.622435
    15  H   -1.622436
 Sum of Mulliken charges =   0.00000

 Dipole moment (field-independent basis, Debye):
    X=             -0.1010    Y=             -0.0000    Z=              1.3701  Tot=              1.3738

 Test job not archived.
 1\1\GINC-SE249\SP\RHF\Aug-CC-pVDZ\C6H5Cl3Si1\OHZDE\08-Apr-2025\0\\#t h
 f aug-cc-pvdz iop(5/13=1,5/36=2,99/5=2) pseudo=read geom=check guess=(
 read,tcheck) scf=(maxcycle=1)\\title\\0,1\C,0,0.008518,-1.209803,0.307
 816\C,0,1.367449,-1.193626,0.013606\C,0,2.065596,0.00001,-0.13799\C,0,
 1.367432,1.193636,0.013611\C,0,0.008501,1.209793,0.30782\C,0,-0.684155
 ,-0.00001,0.455492\H,0,-0.496688,-2.161142,0.420551\Cl,0,2.230013,-2.7
 08175,-0.167934\Si,0,-2.5128,-0.000024,0.843424\H,0,-0.496717,2.161125
 ,0.420559\Cl,0,-3.636699,0.000003,-0.912107\Cl,0,2.229976,2.708197,-0.

 Normal termination of Gaussian 16 at Tue Apr  8 23:48:40 2025.
