 Gaussian 16, Revision C.01,

 ----------------------------------------------------------------------
 #t hf aug-cc-pvdz symm=none int=(grid=ultrafine) guess=(read,tcheck) s
 table=opt
 ----------------------------------------------------------------------
 -----
 title
 -----
 Symbolic Z-matrix:
 Charge =  0 Multiplicity = 2

 SCF Done:  E(UHF) =  -973.354355603     A.U. after   17 cycles
 Normal termination of Gaussian 16 at Wed Apr  9 00:38:57 2025.
 Gaussian 16:  ES64L-G16RevC.01  3-Jul-2019

 ----------------------------------------------------------------------
 #t hf aug-cc-pvdz iop(5/13=1,5/36=2,99/5=2) pseudo=read geom=check gue
 ss=(read,tcheck) scf=(maxcycle=1)
 ----------------------------------------------------------------------
 -----
 title
 -----
 Structure from the checkpoint file:  "BDE49_nonexpt_606_mol3.chk"
 Charge =  0 Multiplicity = 2

                         Standard orientation:
 ---------------------------------------------------------------------
 Center     Atomic      Atomic             Coordinates (Angstroms)
 Number     Number       Type             X           Y           Z
 ---------------------------------------------------------------------
      1          7           0        0.000000   -0.000000    0.814373
      2         17           0        0.000000    1.420630   -0.167665
      3         17           0       -0.000000   -1.420630   -0.167665
 ---------------------------------------------------------------------

 SCF Done:  E(UHF) =  -974.049331946     A.U. after    2 cycles

 The electronic state is 2-B1.
 Alpha  occ. eigenvalues --  -99.94499 -99.94481 -15.89308 -10.51796 -10.51739
 Alpha  occ. eigenvalues --   -9.71357  -9.71028  -9.70761  -9.70707  -9.70677
 Alpha  occ. eigenvalues --   -9.70520  -1.53571  -1.32809  -1.10491  -0.70259
 Alpha  occ. eigenvalues --   -0.70073  -0.67048  -0.56390  -0.52795  -0.48816
 Alpha  occ. eigenvalues --   -0.45715
 Alpha virt. eigenvalues --   -0.01179   0.05252   0.09863   0.11602   0.11728
 Alpha virt. eigenvalues --    0.11771   0.15763   0.16745   0.16772   0.18523
 Alpha virt. eigenvalues --    0.20514   0.21210   0.26361   0.26770   0.27227

  Beta  occ. eigenvalues --  -99.94528 -99.94510 -15.85591 -10.51824 -10.51766
  Beta  occ. eigenvalues --   -9.71939  -9.71611  -9.70684  -9.70525  -9.70365
  Beta  occ. eigenvalues --   -9.70305  -1.48607  -1.33043  -1.02825  -0.68945
  Beta  occ. eigenvalues --   -0.65615  -0.60423  -0.53983  -0.52835  -0.46603
  Beta virt. eigenvalues --    0.00719   0.01607   0.06083   0.09838   0.11710
  Beta virt. eigenvalues --    0.11751   0.12173   0.15768   0.17052   0.17314
  Beta virt. eigenvalues --    0.18698   0.20464   0.22528   0.26561   0.27287

 Mulliken charges and spin densities:
               1          2
     1  N   -1.202395   1.125123
     2  Cl   0.601197  -0.062562
     3  Cl   0.601197  -0.062562
 Sum of Mulliken charges =   0.00000   1.00000

 Dipole moment (field-independent basis, Debye):
    X=             -0.0000    Y=              0.0000    Z=             -0.0262  Tot=              0.0262
                          Isotropic Fermi Contact Couplings
        Atom                 a.u.       MegaHertz       Gauss      10(-4) cm-1
     1  N(14)              0.19418      62.73950      22.38701      20.92764
     2  Cl(35)             0.03787      16.60327       5.92446       5.53826
     3  Cl(35)             0.03787      16.60327       5.92446       5.53826
 --------------------------------------------------------
       Center         ----  Spin Dipole Couplings  ----
                      3XX-RR        3YY-RR        3ZZ-RR
 --------------------------------------------------------
     1   Atom        1.661097     -0.847319     -0.813777

 Normal termination of Gaussian 16 at Wed Apr  9 00:38:59 2025.
