 Gaussian 16, Revision C.01,

 ----------------------------------------------------------------------
 #t hf aug-cc-pvdz symm=none int=(grid=ultrafine) guess=(read,tcheck) s
 table=(opt,rrhf)
 ----------------------------------------------------------------------
 -----
 title
 -----
 Symbolic Z-matrix:
 Charge =  0 Multiplicity = 1

 SCF Done:  E(RHF) =  -926.842633067     A.U. after   15 cycles
 Normal termination of Gaussian 16 at Tue Apr  8 23:28:54 2025.
 Gaussian 16:  ES64L-G16RevC.01  3-Jul-2019

 ----------------------------------------------------------------------
 #t hf aug-cc-pvdz iop(5/13=1,5/36=2,99/5=2) pseudo=read geom=check gue
 ss=(read,tcheck) scf=(maxcycle=1)
 ----------------------------------------------------------------------
 -----
 title
 -----
 Structure from the checkpoint file:  "BDE49_nonexpt_1282_mol1.chk"
 Charge =  0 Multiplicity = 1

                         Standard orientation:
 ---------------------------------------------------------------------
 Center     Atomic      Atomic             Coordinates (Angstroms)
 Number     Number       Type             X           Y           Z
 ---------------------------------------------------------------------
      1          6           0       -0.115692    0.137259   -0.506948
      2          7           0       -0.250243    1.572703   -0.026163
      3         15           0        1.587906   -0.443091   -0.082242
      4          8           0        0.042922    1.797169    1.149378
      5          8           0       -0.667928    2.398335   -0.808726
      6          8           0        2.640747    0.335385   -0.738336
      7          8           0        1.526273   -1.989617   -0.486414
      8          1           0       -0.188328    0.200962   -1.592449
      9          6           0       -1.249944   -0.711806    0.087815
     10          6           0       -2.654322   -0.276386   -0.349675
     11          1           0       -1.167297   -0.698481    1.177636
     12          1           0       -1.063493   -1.742141   -0.227876
     13          6           0       -3.740869   -1.196217    0.214345
     14          1           0       -2.707559   -0.267949   -1.444097
     15          1           0       -2.844913    0.751925   -0.026407
     16          1           0       -3.603308   -2.227602   -0.123656
     17          1           0       -4.733524   -0.870407   -0.104835
     18          1           0       -3.727665   -1.199986    1.308193
     19          1           0        2.244764   -2.221251   -1.087588
     20          8           0        1.582853   -0.552888    1.505176
     21          1           0        1.290457    0.288191    1.895995
 ---------------------------------------------------------------------

 SCF Done:  E(RHF) =  -929.620739319     A.U. after    2 cycles

 The electronic state is 1-A.
 Alpha  occ. eigenvalues -- -105.32624 -21.13712 -21.12628 -21.12308 -21.11064
 Alpha  occ. eigenvalues --  -21.03796 -16.01481 -11.51451 -11.45161 -11.41360
 Alpha  occ. eigenvalues --  -11.37830  -2.95135  -2.01918  -2.00937  -1.92910
 Alpha  occ. eigenvalues --   -1.81505  -1.71537  -1.57496  -1.41493  -1.29575
 Alpha  occ. eigenvalues --   -1.25933  -1.15490  -1.02233  -0.89159  -0.83858
 Alpha  occ. eigenvalues --   -0.74448  -0.72084  -0.70348  -0.64893  -0.63910
 Alpha  occ. eigenvalues --   -0.61364  -0.59708  -0.58011  -0.56348  -0.54918
 Alpha  occ. eigenvalues --   -0.50874  -0.49385  -0.49171  -0.45514  -0.43941
 Alpha  occ. eigenvalues --   -0.37756  -0.35994  -0.35589  -0.34354  -0.33739
 Alpha  occ. eigenvalues --   -0.29602  -0.27483  -0.17267
 Alpha virt. eigenvalues --    0.03335   0.04299   0.04892   0.05387   0.05460
 Alpha virt. eigenvalues --    0.06867   0.06927   0.07544   0.08501   0.09186
 Alpha virt. eigenvalues --    0.09695   0.10649   0.10958   0.12583   0.13243

 Mulliken charges:
               1
     1  C   -5.261929
     2  N    4.937691
     3  P   10.566375
     4  O   -2.843087
     5  O   -2.891993
     6  O   -3.092803
     7  O   -3.043585
     8  H    1.955875
     9  C   -1.340115
    10  C   -3.329328
    11  H    1.696738
    12  H    1.491379
    13  C   -4.337832
    14  H    1.378236
    15  H    1.563142
    16  H    1.315798
    17  H    1.091309
    18  H    1.318798
    19  H    0.963565
    20  O   -3.210512
    21  H    1.072275
 Sum of Mulliken charges =   0.00000

 Dipole moment (field-independent basis, Debye):
    X=             -2.6105    Y=             -3.4436    Z=              0.4365  Tot=              4.3432

 Test job not archived.
 1\1\GINC-SE332\SP\RHF\Aug-CC-pVDZ\C4H10N1O5P1\OHZDE\08-Apr-2025\0\\#t
 hf aug-cc-pvdz iop(5/13=1,5/36=2,99/5=2) pseudo=read geom=check guess=
 (read,tcheck) scf=(maxcycle=1)\\title\\0,1\C,0,-0.115692,0.137259,-0.5
 06948\N,0,-0.250243,1.572703,-0.026163\P,0,1.587906,-0.443091,-0.08224
 2\O,0,0.042922,1.797169,1.149378\O,0,-0.667928,2.398335,-0.808726\O,0,
 2.640747,0.335384,-0.738336\O,0,1.526273,-1.989617,-0.486414\H,0,-0.18
 8328,0.200962,-1.592449\C,0,-1.249944,-0.711806,0.087815\C,0,-2.654322
 ,-0.276385,-0.349675\H,0,-1.167297,-0.698481,1.177636\H,0,-1.063493,-1

 Normal termination of Gaussian 16 at Tue Apr  8 23:29:05 2025.
