 Gaussian 16, Revision C.01,

 ----------------------------------------------------------------------
 #t hf aug-cc-pvdz symm=none int=(grid=ultrafine) guess=(read,tcheck) s
 table=(opt,rrhf)
 ----------------------------------------------------------------------
 -----
 title
 -----
 Symbolic Z-matrix:
 Charge =  0 Multiplicity = 1

 SCF Done:  E(RHF) =  -844.973989942     A.U. after   12 cycles
 Normal termination of Gaussian 16 at Wed Apr  9 00:15:11 2025.
 Gaussian 16:  ES64L-G16RevC.01  3-Jul-2019

 ----------------------------------------------------------------------
 #t hf aug-cc-pvdz iop(5/13=1,5/36=2,99/5=2) pseudo=read geom=check gue
 ss=(read,tcheck) scf=(maxcycle=1)
 ----------------------------------------------------------------------
 -----
 title
 -----
 Structure from the checkpoint file:  "BDE49_nonexpt_2475_mol1.chk"
 Charge =  0 Multiplicity = 1

                         Standard orientation:
 ---------------------------------------------------------------------
 Center     Atomic      Atomic             Coordinates (Angstroms)
 Number     Number       Type             X           Y           Z
 ---------------------------------------------------------------------
      1         14           0        0.530187    0.941816   -0.000066
      2          6           0       -1.057058   -0.108879   -0.000017
      3          6           0       -2.251099    0.871892   -0.000208
      4          1           0       -2.252454    1.515286    0.884967
      5          1           0       -3.193895    0.311859   -0.000182
      6          1           0       -2.252362    1.515053   -0.885553
      7          6           0       -1.120690   -0.992741   -1.262363
      8          1           0       -2.059778   -1.559016   -1.275475
      9          1           0       -0.300259   -1.714471   -1.299783
     10          1           0       -1.082643   -0.396550   -2.178981
     11          6           0       -1.120829   -0.992417    1.262548
     12          1           0       -1.082901   -0.395988    2.179016
     13          1           0       -0.300388   -1.714122    1.300255
     14          1           0       -2.059910   -1.558702    1.275693
     15         16           0        2.259502   -0.380807    0.000074
     16          1           0        3.161718    0.616571    0.000285
     17          1           0        0.573123    1.810308    1.201395
     18          1           0        0.573146    1.810128   -1.201656
 ---------------------------------------------------------------------

 SCF Done:  E(RHF) =  -846.198924856     A.U. after    2 cycles

 The electronic state is 1-A.
 Alpha  occ. eigenvalues --  -76.23011 -75.67973 -13.14740 -13.06869 -13.03218
 Alpha  occ. eigenvalues --  -11.40909 -11.39320 -11.39082 -11.34871  -8.01922
 Alpha  occ. eigenvalues --   -5.56585  -2.20660  -2.19027  -2.18904  -1.26064
 Alpha  occ. eigenvalues --   -1.09658  -1.00794  -1.00593  -0.81660  -0.71860
 Alpha  occ. eigenvalues --   -0.61122  -0.60644  -0.60234  -0.54509  -0.54385
 Alpha  occ. eigenvalues --   -0.51671  -0.50390  -0.48060  -0.44312  -0.43893
 Alpha  occ. eigenvalues --   -0.37219  -0.33255  -0.26744
 Alpha virt. eigenvalues --    0.03463   0.04129   0.04994   0.05700   0.05888
 Alpha virt. eigenvalues --    0.06097   0.06148   0.06523   0.06579   0.08636
 Alpha virt. eigenvalues --    0.09021   0.09752   0.10043   0.10783   0.11775

 Mulliken charges:
               1
     1  Si   6.149836
     2  C    1.075104
     3  C   -4.195079
     4  H    1.314766
     5  H    1.263244
     6  H    1.314806
     7  C   -4.444611
     8  H    1.245154
     9  H    1.266505
    10  H    1.310053
    11  C   -4.444718
    12  H    1.310106
    13  H    1.266498
    14  H    1.245138
    15  S   -2.697839
    16  H    0.964160
    17  H   -1.971551
    18  H   -1.971572
 Sum of Mulliken charges =   0.00000

 Dipole moment (field-independent basis, Debye):
    X=             -0.5507    Y=             -1.8797    Z=             -0.0000  Tot=              1.9587

 Test job not archived.
 1\1\GINC-SE361\SP\RHF\Aug-CC-pVDZ\C4H12S1Si1\OHZDE\09-Apr-2025\0\\#t h
 f aug-cc-pvdz iop(5/13=1,5/36=2,99/5=2) pseudo=read geom=check guess=(
 read,tcheck) scf=(maxcycle=1)\\title\\0,1\Si,0,0.530187,0.941816,-0.00
 0066\C,0,-1.057058,-0.108879,-0.000017\C,0,-2.251099,0.871892,-0.00020
 8\H,0,-2.252454,1.515286,0.884967\H,0,-3.193895,0.311859,-0.000182\H,0
 ,-2.252362,1.515053,-0.885553\C,0,-1.12069,-0.992741,-1.262363\H,0,-2.
 059778,-1.559016,-1.275475\H,0,-0.300259,-1.714471,-1.299783\H,0,-1.08
 2643,-0.39655,-2.178981\C,0,-1.120829,-0.992417,1.262548\H,0,-1.082901

 Normal termination of Gaussian 16 at Wed Apr  9 00:15:18 2025.
