 Gaussian 16, Revision C.01,

 ----------------------------------------------------------------------
 #t hf aug-cc-pvdz symm=none int=(grid=ultrafine) guess=(read,tcheck) s
 table=(opt,rrhf)
 ----------------------------------------------------------------------
 -----
 title
 -----
 Symbolic Z-matrix:
 Charge =  0 Multiplicity = 1

 SCF Done:  E(RHF) =  -421.558913628     A.U. after   15 cycles

 1\1\GINC-SE368\Stability\RHF\Aug-CC-pVDZ\C9H10O1\OHZDE\08-Apr-2025\0\\
 #t hf aug-cc-pvdz symm=none int=(grid=ultrafine) guess=(read,tcheck) s
 table=(opt,rrhf)\\title\\0,1\C,0,-2.196928,-1.370482,0.000005\C,0,-0.8
 17096,-1.183006,-0.000032\C,0,-3.050613,-0.269711,0.000038\C,0,-2.5217
 33,1.021669,0.000033\C,0,-1.145716,1.208673,-0.000005\C,0,-0.27688,0.1
 09226,-0.00004\H,0,-0.167502,-2.049537,-0.000057\H,0,-2.605142,-2.3747
 53,0.00001\C,0,2.16523,-0.802657,-0.000018\C,0,3.632511,-0.382356,0.00
 0054\H,0,3.866443,0.221465,0.878586\H,0,3.866533,0.221446,-0.878468\H,

 Normal termination of Gaussian 16 at Tue Apr  8 23:04:00 2025.
 Gaussian 16:  ES64L-G16RevC.01  3-Jul-2019

 ----------------------------------------------------------------------
 #t hf aug-cc-pvdz iop(5/13=1,5/36=2,99/5=2) pseudo=read geom=check gue
 ss=(read,tcheck) scf=(maxcycle=1)
 ----------------------------------------------------------------------
 -----
 title
 -----
 Structure from the checkpoint file:  "BDE49_expt_234_mol1.chk"
 Charge =  0 Multiplicity = 1

                         Standard orientation:
 ---------------------------------------------------------------------
 Center     Atomic      Atomic             Coordinates (Angstroms)
 Number     Number       Type             X           Y           Z
 ---------------------------------------------------------------------
      1          6           0       -2.196928   -1.370482    0.000005
      2          6           0       -0.817096   -1.183006   -0.000032
      3          6           0       -3.050613   -0.269711    0.000038
      4          6           0       -2.521733    1.021669    0.000033
      5          6           0       -1.145716    1.208673   -0.000005
      6          6           0       -0.276880    0.109226   -0.000040
      7          1           0       -0.167502   -2.049537   -0.000057
      8          1           0       -2.605142   -2.374753    0.000010
      9          6           0        2.165230   -0.802657   -0.000018
     10          6           0        3.632511   -0.382356    0.000054
     11          1           0        3.866443    0.221465    0.878586
     12          1           0        3.866533    0.221446   -0.878468
     13          1           0        4.282375   -1.260779    0.000096
     14          1           0       -4.124889   -0.416948    0.000068
     15          6           0        1.202301    0.379454   -0.000084
     16          1           0       -0.712405    2.201149   -0.000011
     17          1           0       -3.184608    1.879551    0.000058
     18          1           0        1.940270   -1.427655    0.872715
     19          1           0        1.940359   -1.427671   -0.872761
     20          8           0        1.619014    1.521107    0.000008
 ---------------------------------------------------------------------

 SCF Done:  E(RHF) =  -423.545256892     A.U. after    2 cycles

 The electronic state is 1-A.
 Alpha  occ. eigenvalues --  -21.04451 -11.52960 -11.50289 -11.44480 -11.43635
 Alpha  occ. eigenvalues --  -11.42440 -11.42016 -11.41572 -11.37982 -11.36902
 Alpha  occ. eigenvalues --   -1.70718  -1.35055  -1.18592  -1.11049  -1.10004
 Alpha  occ. eigenvalues --   -0.95733  -0.88385  -0.86718  -0.76386  -0.71582
 Alpha  occ. eigenvalues --   -0.65642  -0.63240  -0.61953  -0.59318  -0.58157
 Alpha  occ. eigenvalues --   -0.53946  -0.52829  -0.49657  -0.49439  -0.48121
 Alpha  occ. eigenvalues --   -0.45188  -0.43964  -0.43182  -0.33895  -0.32315
 Alpha  occ. eigenvalues --   -0.28299
 Alpha virt. eigenvalues --    0.03147   0.04530   0.04928   0.05584   0.06266
 Alpha virt. eigenvalues --    0.06404   0.06674   0.07144   0.07442   0.08255
 Alpha virt. eigenvalues --    0.09151   0.09349   0.11351   0.12185   0.13048

 Mulliken charges:
               1
     1  C   -2.745545
     2  C    1.747186
     3  C   -3.297225
     4  C   -1.374734
     5  C   -3.972376
     6  C    3.818119
     7  H    1.857374
     8  H    1.486042
     9  C   -4.672582
    10  C   -3.993536
    11  H    1.228998
    12  H    1.228997
    13  H    0.943887
    14  H    1.533864
    15  C    3.920889
    16  H    1.782845
    17  H    1.466795
    18  H    1.523929
    19  H    1.523889
    20  O   -4.006814
 Sum of Mulliken charges =  -0.00000

 Dipole moment (field-independent basis, Debye):
    X=             -0.8610    Y=             -1.0414    Z=              0.0001  Tot=              1.3512

 Test job not archived.
 1\1\GINC-SE368\SP\RHF\Aug-CC-pVDZ\C9H10O1\OHZDE\08-Apr-2025\0\\#t hf a
 ug-cc-pvdz iop(5/13=1,5/36=2,99/5=2) pseudo=read geom=check guess=(rea
 d,tcheck) scf=(maxcycle=1)\\title\\0,1\C,0,-2.196928,-1.370482,0.00000
 5\C,0,-0.817096,-1.183006,-0.000032\C,0,-3.050613,-0.269711,0.000038\C
 ,0,-2.521733,1.021669,0.000033\C,0,-1.145716,1.208673,-0.000005\C,0,-0
 .27688,0.109226,-0.00004\H,0,-0.167502,-2.049537,-0.000057\H,0,-2.6051
 42,-2.374753,0.00001\C,0,2.16523,-0.802657,-0.000018\C,0,3.632511,-0.3
 82356,0.000054\H,0,3.866443,0.221465,0.878586\H,0,3.866533,0.221446,-0

 Normal termination of Gaussian 16 at Tue Apr  8 23:04:09 2025.
