 Gaussian 16, Revision C.01,

 ----------------------------------------------------------------------
 #t hf aug-cc-pvdz symm=none int=(grid=ultrafine) guess=(read,tcheck) s
 table=(opt,rrhf)
 ----------------------------------------------------------------------
 -----
 title
 -----
 Symbolic Z-matrix:
 Charge =  0 Multiplicity = 1

 SCF Done:  E(RHF) =  -1287.24117980     A.U. after   12 cycles
 Normal termination of Gaussian 16 at Tue Apr  8 23:46:21 2025.
 Gaussian 16:  ES64L-G16RevC.01  3-Jul-2019

 ----------------------------------------------------------------------
 #t hf aug-cc-pvdz iop(5/13=1,5/36=2,99/5=2) pseudo=read geom=check gue
 ss=(read,tcheck) scf=(maxcycle=1)
 ----------------------------------------------------------------------
 -----
 title
 -----
 Structure from the checkpoint file:  "BDE49_nonexpt_1759_mol1.chk"
 Charge =  0 Multiplicity = 1

                         Standard orientation:
 ---------------------------------------------------------------------
 Center     Atomic      Atomic             Coordinates (Angstroms)
 Number     Number       Type             X           Y           Z
 ---------------------------------------------------------------------
      1         14           0       -1.398660    0.918018    0.120927
      2          6           0        0.406661    0.760960   -0.386286
      3          6           0        1.212439   -0.221672    0.444666
      4          1           0        0.846796   -1.241539    0.344881
      5          1           0        1.237547    0.049415    1.499023
      6         17           0        2.960666   -0.277849   -0.080589
      7         17           0       -2.365831   -0.918614   -0.091149
      8          1           0        0.840938    1.765087   -0.308659
      9          1           0        0.443959    0.482538   -1.443985
     10          1           0       -2.085793    1.886991   -0.753693
     11          1           0       -1.529002    1.309381    1.538717
 ---------------------------------------------------------------------

 SCF Done:  E(RHF) =  -1288.29144651     A.U. after    2 cycles

 The electronic state is 1-A.
 Alpha  occ. eigenvalues --  -99.88977 -99.87817 -76.26919 -11.46347 -11.38857
 Alpha  occ. eigenvalues --  -10.46378 -10.45044  -9.66279  -9.65690  -9.65606
 Alpha  occ. eigenvalues --   -9.64915  -9.64220  -9.64166  -5.60503  -2.24015
 Alpha  occ. eigenvalues --   -2.22714  -2.22407  -1.33518  -1.29307  -1.13593
 Alpha  occ. eigenvalues --   -0.92161  -0.77573  -0.68100  -0.61632  -0.59233
 Alpha  occ. eigenvalues --   -0.57333  -0.55343  -0.54059  -0.53758  -0.49035
 Alpha  occ. eigenvalues --   -0.47543  -0.47206  -0.42445
 Alpha virt. eigenvalues --    0.02980   0.04718   0.05035   0.05469   0.06744
 Alpha virt. eigenvalues --    0.07035   0.07255   0.07662   0.09243   0.09672
 Alpha virt. eigenvalues --    0.11476   0.11931   0.12931   0.13579   0.14452

 Mulliken charges:
               1
     1  Si   5.397090
     2  C   -3.335829
     3  C   -3.471742
     4  H    1.540216
     5  H    1.626099
     6  Cl   0.008813
     7  Cl  -0.887860
     8  H    1.471727
     9  H    1.351042
    10  H   -1.832906
    11  H   -1.866649
 Sum of Mulliken charges =  -0.00000

 Dipole moment (field-independent basis, Debye):
    X=             -1.0580    Y=              1.5227    Z=              0.3946  Tot=              1.8958

 Test job not archived.
 1\1\GINC-SE249\SP\RHF\Aug-CC-pVDZ\C2H6Cl2Si1\OHZDE\08-Apr-2025\0\\#t h
 f aug-cc-pvdz iop(5/13=1,5/36=2,99/5=2) pseudo=read geom=check guess=(
 read,tcheck) scf=(maxcycle=1)\\title\\0,1\Si,0,-1.39866,0.918018,0.120
 927\C,0,0.406661,0.76096,-0.386286\C,0,1.212439,-0.221672,0.444666\H,0
 ,0.846796,-1.241539,0.344881\H,0,1.237547,0.049415,1.499023\Cl,0,2.960
 666,-0.277849,-0.080589\Cl,0,-2.365831,-0.918614,-0.091149\H,0,0.84093
 8,1.765087,-0.308659\H,0,0.443959,0.482538,-1.443985\H,0,-2.085793,1.8
 86991,-0.753693\H,0,-1.529002,1.309381,1.538717\\Version=ES64L-G16RevC

 Normal termination of Gaussian 16 at Tue Apr  8 23:46:25 2025.
