 Gaussian 16, Revision C.01,

 ----------------------------------------------------------------------
 #t hf aug-cc-pvdz symm=none int=(grid=ultrafine) guess=(read,tcheck) s
 table=(opt,rrhf)
 ----------------------------------------------------------------------
 -----
 title
 -----
 Symbolic Z-matrix:
 Charge =  0 Multiplicity = 1

 SCF Done:  E(RHF) =  -838.247695773     A.U. after   16 cycles
 Normal termination of Gaussian 16 at Wed Apr  9 00:44:41 2025.
 Gaussian 16:  ES64L-G16RevC.01  3-Jul-2019

 ----------------------------------------------------------------------
 #t hf aug-cc-pvdz iop(5/13=1,5/36=2,99/5=2) pseudo=read geom=check gue
 ss=(read,tcheck) scf=(maxcycle=1)
 ----------------------------------------------------------------------
 -----
 title
 -----
 Structure from the checkpoint file:  "BDE49_nonexpt_704_mol1.chk"
 Charge =  0 Multiplicity = 1

                         Standard orientation:
 ---------------------------------------------------------------------
 Center     Atomic      Atomic             Coordinates (Angstroms)
 Number     Number       Type             X           Y           Z
 ---------------------------------------------------------------------
      1         15           0       -0.419244   -0.095818    1.080747
      2          7           0       -0.880700   -1.503876   -0.040747
      3          5           0       -1.107576    1.372497   -0.028214
      4          8           0       -0.099786   -2.427331   -0.177847
      5          8           0       -2.020052   -1.486693   -0.524676
      6          8           0       -0.490352    2.566598    0.176134
      7          8           0       -2.167489    1.237840   -0.847880
      8          6           0        1.415946   -0.059774    0.832503
      9          6           0        1.960455    0.177370   -0.581622
     10          1           0        1.795048   -0.998287    1.246661
     11          1           0        1.747668    0.735525    1.511957
     12          6           0        3.492273    0.156543   -0.621982
     13          1           0        1.596780    1.141759   -0.947694
     14          1           0        1.569568   -0.592691   -1.252241
     15          1           0        3.917593    0.930539    0.024138
     16          1           0        3.857877    0.332337   -1.636986
     17          1           0        3.883952   -0.809370   -0.290028
     18          1           0       -2.463903    0.310914   -0.898353
     19          1           0       -0.903748    3.283054   -0.321600
 ---------------------------------------------------------------------

 SCF Done:  E(RHF) =  -840.608136864     A.U. after    2 cycles

 The electronic state is 1-A.
 Alpha  occ. eigenvalues -- -105.22340 -21.10742 -21.09425 -21.08336 -21.06685
 Alpha  occ. eigenvalues --  -15.98339 -11.43666 -11.40333 -11.36906  -7.67670
 Alpha  occ. eigenvalues --   -2.80493  -1.99203  -1.83701  -1.69786  -1.67999
 Alpha  occ. eigenvalues --   -1.54449  -1.51675  -1.49194  -1.21332  -1.01396
 Alpha  occ. eigenvalues --   -0.94267  -0.85723  -0.76706  -0.74734  -0.66528
 Alpha  occ. eigenvalues --   -0.65435  -0.64156  -0.60871  -0.59078  -0.56426
 Alpha  occ. eigenvalues --   -0.55736  -0.53487  -0.51817  -0.48648  -0.48203
 Alpha  occ. eigenvalues --   -0.47661  -0.44332  -0.38380  -0.33152  -0.32121
 Alpha  occ. eigenvalues --   -0.24980  -0.16959  -0.03843
 Alpha virt. eigenvalues --    0.03567   0.04408   0.05071   0.05733   0.06048
 Alpha virt. eigenvalues --    0.06106   0.06454   0.07090   0.07972   0.08830
 Alpha virt. eigenvalues --    0.09329   0.09427   0.10571   0.11066   0.11913

 Mulliken charges:
               1
     1  P    2.972855
     2  N    4.003209
     3  B    5.783498
     4  O   -2.658568
     5  O   -2.756568
     6  O   -3.925467
     7  O   -4.128768
     8  C   -4.556409
     9  C   -2.846787
    10  H    1.368420
    11  H    1.363502
    12  C   -4.385098
    13  H    1.596707
    14  H    1.635129
    15  H    1.243472
    16  H    1.143085
    17  H    1.293182
    18  H    1.791207
    19  H    1.063402
 Sum of Mulliken charges =   0.00000

 Dipole moment (field-independent basis, Debye):
    X=              1.2759    Y=              0.3715    Z=              2.6985  Tot=              3.0079

 Test job not archived.
 1\1\GINC-SE092\SP\RHF\Aug-CC-pVDZ\C3H9B1N1O4P1\OHZDE\09-Apr-2025\0\\#t
  hf aug-cc-pvdz iop(5/13=1,5/36=2,99/5=2) pseudo=read geom=check guess
 =(read,tcheck) scf=(maxcycle=1)\\title\\0,1\P,0,-0.419244,-0.095818,1.
 080747\N,0,-0.8807,-1.503876,-0.040747\B,0,-1.107576,1.372497,-0.02821
 4\O,0,-0.099786,-2.427331,-0.177847\O,0,-2.020052,-1.486693,-0.524676\
 O,0,-0.490352,2.566598,0.176134\O,0,-2.167489,1.23784,-0.84788\C,0,1.4
 15946,-0.059774,0.832503\C,0,1.960455,0.17737,-0.581622\H,0,1.795048,-
 0.998287,1.246661\H,0,1.747668,0.735525,1.511957\C,0,3.492273,0.156543

 Normal termination of Gaussian 16 at Wed Apr  9 00:44:52 2025.
