 Gaussian 16, Revision C.01,

 ----------------------------------------------------------------------
 #t hf aug-cc-pvdz symm=none int=(grid=ultrafine) guess=(read,tcheck) s
 table=opt
 ----------------------------------------------------------------------
 -----
 title
 -----
 Symbolic Z-matrix:
 Charge =  0 Multiplicity = 2

 SCF Done:  E(UHF) =  -627.955789327     A.U. after   26 cycles
 Normal termination of Gaussian 16 at Tue Apr  8 23:17:30 2025.
 Gaussian 16:  ES64L-G16RevC.01  3-Jul-2019

 ----------------------------------------------------------------------
 #t hf aug-cc-pvdz iop(5/13=1,5/36=2,99/5=2) pseudo=read geom=check gue
 ss=(read,tcheck) scf=(maxcycle=1)
 ----------------------------------------------------------------------
 -----
 title
 -----
 Structure from the checkpoint file:  "BDE49_nonexpt_1006_mol2.chk"
 Charge =  0 Multiplicity = 2

                         Standard orientation:
 ---------------------------------------------------------------------
 Center     Atomic      Atomic             Coordinates (Angstroms)
 Number     Number       Type             X           Y           Z
 ---------------------------------------------------------------------
      1          6           0       -0.947402    0.221798   -0.375886
      2          6           0        0.347638   -0.495877   -0.033560
      3         16           0        1.904308    0.341777   -0.047958
      4          8           0        0.443192   -1.675421    0.233449
      5          6           0       -1.009218    1.623632    0.247444
      6          1           0       -1.030184    1.566213    1.338786
      7          1           0       -1.913940    2.137781   -0.085213
      8          1           0       -0.154235    2.239255   -0.043266
      9          6           0       -2.159313   -0.644458   -0.016567
     10          1           0       -0.907501    0.340705   -1.468084
     11          1           0       -2.240471   -0.770266    1.066188
     12          1           0       -2.081579   -1.637031   -0.461812
     13          1           0       -3.076786   -0.172295   -0.375445
 ---------------------------------------------------------------------

 SCF Done:  E(UHF) =  -629.227635279     A.U. after    2 cycles

 The electronic state is 2-A.
 Alpha  occ. eigenvalues --  -75.72932 -21.06700 -13.17377 -13.10406 -13.04379
 Alpha  occ. eigenvalues --  -11.51611 -11.44084 -11.40182 -11.37564  -8.06799
 Alpha  occ. eigenvalues --   -1.73151  -1.26413  -1.14871  -1.02024  -0.92454
 Alpha  occ. eigenvalues --   -0.73650  -0.65125  -0.62954  -0.59184  -0.55486
 Alpha  occ. eigenvalues --   -0.52275  -0.51653  -0.50494  -0.45168  -0.45010
 Alpha  occ. eigenvalues --   -0.32514  -0.26595  -0.26057
 Alpha virt. eigenvalues --    0.03099   0.05261   0.05493   0.05620   0.05999
 Alpha virt. eigenvalues --    0.06917   0.07194   0.07855   0.11126   0.11803
 Alpha virt. eigenvalues --    0.12269   0.13697   0.14386   0.14770   0.15144

  Beta  occ. eigenvalues --  -75.71913 -21.06475 -13.16806 -13.04627 -13.03394
  Beta  occ. eigenvalues --  -11.51715 -11.44087 -11.40164 -11.37557  -8.05658
  Beta  occ. eigenvalues --   -1.72692  -1.25871  -1.07973  -1.01789  -0.91449
  Beta  occ. eigenvalues --   -0.72824  -0.64667  -0.61901  -0.58923  -0.55444
  Beta  occ. eigenvalues --   -0.52132  -0.51132  -0.49928  -0.44999  -0.44875
  Beta  occ. eigenvalues --   -0.27055  -0.25051
  Beta virt. eigenvalues --    0.02571   0.03925   0.05511   0.05640   0.05937
  Beta virt. eigenvalues --    0.06296   0.06926   0.07245   0.08354   0.11276
  Beta virt. eigenvalues --    0.11855   0.12376   0.14089   0.14642   0.14911

 Mulliken charges and spin densities:
               1          2
     1  C   -2.483712  -0.013021
     2  C    2.372444  -0.108598
     3  S    0.782598   1.115827
     4  O   -2.952332  -0.007504
     5  C   -3.494614   0.003083
     6  H    1.318944   0.001175
     7  H    1.234695  -0.000650
     8  H    1.292122   0.024871
     9  C   -3.533367  -0.010433
    10  H    1.670553  -0.002257
    11  H    1.294959  -0.000293
    12  H    1.279247  -0.004253
    13  H    1.218462   0.002053
 Sum of Mulliken charges =  -0.00000   1.00000

 Dipole moment (field-independent basis, Debye):
    X=             -0.1918    Y=              1.3193    Z=             -0.2527  Tot=              1.3569
                          Isotropic Fermi Contact Couplings
        Atom                 a.u.       MegaHertz       Gauss      10(-4) cm-1
     1  C(13)             -0.00143      -1.61139      -0.57498      -0.53750
     2  C(13)             -0.01142     -12.84191      -4.58231      -4.28360
     3  S(33)              0.32642     112.11710      40.00617      37.39824
     4  O(17)              0.03323     -20.14405      -7.18790      -6.71933
     5  C(13)              0.00723       8.12881       2.90056       2.71148
     6  H(1)              -0.00013      -0.56476      -0.20152      -0.18839
     7  H(1)               0.00041       1.82229       0.65024       0.60785
     8  H(1)               0.00082       3.67265       1.31049       1.22507

 Normal termination of Gaussian 16 at Tue Apr  8 23:17:35 2025.
