 Gaussian 16, Revision C.01,

 ----------------------------------------------------------------------
 #t hf aug-cc-pvdz symm=none int=(grid=ultrafine) guess=(read,tcheck) s
 table=opt
 ----------------------------------------------------------------------
 -----
 title
 -----
 Symbolic Z-matrix:
 Charge =  0 Multiplicity = 2

 SCF Done:  E(UHF) =  -576.581448013     A.U. after   16 cycles

 1\1\GINC-SE338\Stability\UHF\Aug-CC-pVDZ\C3H6Cl1\OHZDE\08-Apr-2025\0\\
 #t hf aug-cc-pvdz symm=none int=(grid=ultrafine) guess=(read,tcheck) s
 table=opt\\title\\0,2\C,0,-0.18295,0.397856,0.\C,0,0.021566,1.07472,1.
 31036\H,0,-0.492651,0.548296,2.117746\H,0,-0.358534,2.099444,1.265304\
 C,0,0.021566,1.07472,-1.31036\Cl,0,0.021566,-1.343461,0.\H,0,-0.358534
 ,2.099444,-1.265304\H,0,-0.492651,0.548296,-2.117746\H,0,1.087327,1.12
 9789,-1.583952\H,0,1.087327,1.129789,1.583952\\Version=ES64L-G16RevC.0
 1\HF=-576.581448\S2=0.766423\S2-1=0.\S2A=0.75022\RMSD=6.120e-09\Dipole

 Normal termination of Gaussian 16 at Tue Apr  8 22:39:30 2025.
 Gaussian 16:  ES64L-G16RevC.01  3-Jul-2019

 ----------------------------------------------------------------------
 #t hf aug-cc-pvdz iop(5/13=1,5/36=2,99/5=2) pseudo=read geom=check gue
 ss=(read,tcheck) scf=(maxcycle=1)
 ----------------------------------------------------------------------
 -----
 title
 -----
 Structure from the checkpoint file:  "BDE49_expt_1233_mol2.chk"
 Charge =  0 Multiplicity = 2

                         Standard orientation:
 ---------------------------------------------------------------------
 Center     Atomic      Atomic             Coordinates (Angstroms)
 Number     Number       Type             X           Y           Z
 ---------------------------------------------------------------------
      1          6           0       -0.182950    0.397856   -0.000000
      2          6           0        0.021566    1.074720    1.310360
      3          1           0       -0.492651    0.548296    2.117746
      4          1           0       -0.358534    2.099444    1.265304
      5          6           0        0.021566    1.074720   -1.310360
      6         17           0        0.021566   -1.343461    0.000000
      7          1           0       -0.358534    2.099444   -1.265304
      8          1           0       -0.492651    0.548296   -2.117746
      9          1           0        1.087327    1.129789   -1.583952
     10          1           0        1.087327    1.129789    1.583952
 ---------------------------------------------------------------------

 SCF Done:  E(UHF) =  -577.412772815     A.U. after    2 cycles

 The electronic state is 2-A'.
 Alpha  occ. eigenvalues --  -99.88246 -11.44172 -11.39410 -11.37438 -10.45628
 Alpha  occ. eigenvalues --   -9.65365  -9.64747  -9.64733  -1.36067  -1.15890
 Alpha  occ. eigenvalues --   -1.03287  -0.83010  -0.64456  -0.64002  -0.61195
 Alpha  occ. eigenvalues --   -0.55656  -0.52656  -0.51687  -0.50819  -0.46520
 Alpha  occ. eigenvalues --   -0.31935
 Alpha virt. eigenvalues --    0.03043   0.05668   0.06044   0.06802   0.06839
 Alpha virt. eigenvalues --    0.07162   0.08419   0.09511   0.12871   0.14144
 Alpha virt. eigenvalues --    0.14573   0.15309   0.15698   0.16796   0.17579

  Beta  occ. eigenvalues --  -99.88236 -11.42159 -11.39690 -11.37134 -10.45616
  Beta  occ. eigenvalues --   -9.65641  -9.64726  -9.64435  -1.34051  -1.13953
  Beta  occ. eigenvalues --   -1.03112  -0.78159  -0.63200  -0.60505  -0.58772
  Beta  occ. eigenvalues --   -0.54520  -0.51323  -0.50949  -0.50335  -0.45985
  Beta virt. eigenvalues --    0.02850   0.05693   0.05935   0.06694   0.06842
  Beta virt. eigenvalues --    0.07176   0.08789   0.09303   0.10488   0.12934
  Beta virt. eigenvalues --    0.14270   0.14639   0.15772   0.16126   0.17432

 Mulliken charges and spin densities:
               1          2
     1  C   -0.365740   1.651941
     2  C   -3.590041  -0.346581
     3  H    1.326193   0.010532
     4  H    1.303419   0.003835
     5  C   -3.590041  -0.346581
     6  Cl  -0.174900  -0.052292
     7  H    1.303419   0.003835
     8  H    1.326193   0.010532
     9  H    1.230750   0.032389
    10  H    1.230750   0.032389
 Sum of Mulliken charges =   0.00000   1.00000

 Dipole moment (field-independent basis, Debye):
    X=              0.0352    Y=              2.2685    Z=             -0.0000  Tot=              2.2688
                          Isotropic Fermi Contact Couplings
        Atom                 a.u.       MegaHertz       Gauss      10(-4) cm-1
     1  C(13)              0.19651     220.91901      78.82940      73.69065
     2  C(13)             -0.02754     -30.96520     -11.04915     -10.32888
     3  H(1)               0.00697      31.14889      11.11470      10.39015
     4  H(1)               0.00341      15.22350       5.43212       5.07801
     5  C(13)             -0.02754     -30.96520     -11.04915     -10.32888
     6  Cl(35)             0.03052      13.38067       4.77456       4.46331
     7  H(1)               0.00341      15.22350       5.43212       5.07801
     8  H(1)               0.00697      31.14889      11.11470      10.39015

 Normal termination of Gaussian 16 at Tue Apr  8 22:39:32 2025.
