 Gaussian 16, Revision C.01,

 ----------------------------------------------------------------------
 #t hf aug-cc-pvdz symm=none int=(grid=ultrafine) guess=(read,tcheck) s
 table=(opt,rrhf)
 ----------------------------------------------------------------------
 -----
 title
 -----
 Symbolic Z-matrix:
 Charge =  0 Multiplicity = 1

 SCF Done:  E(RHF) =  -1086.34700509     A.U. after   12 cycles

 1\1\GINC-SE403\Stability\RHF\Aug-CC-pVDZ\H4S2Si1\OHZDE\08-Apr-2025\0\\
 #t hf aug-cc-pvdz symm=none int=(grid=ultrafine) guess=(read,tcheck) s
 table=(opt,rrhf)\\title\\0,1\Si,0,1.625929,-0.40291,-0.000245\S,0,-0.0
 58887,0.965786,0.008757\S,0,-1.62733,-0.448063,-0.086147\H,0,-1.807491
 ,-0.60791,1.239542\H,0,2.824519,0.466491,0.020354\H,0,1.606782,-1.2370
 34,-1.218761\H,0,1.592661,-1.264365,1.200534\\Version=ES64L-G16RevC.01
 \HF=-1086.3470051\RMSD=9.217e-09\Dipole=0.3267587,-0.3691461,0.3412962
 \Quadrupole=1.2324665,-1.3237824,0.0913159,0.7261801,-1.5245447,-0.581

 Normal termination of Gaussian 16 at Tue Apr  8 23:58:21 2025.
 Gaussian 16:  ES64L-G16RevC.01  3-Jul-2019

 ----------------------------------------------------------------------
 #t hf aug-cc-pvdz iop(5/13=1,5/36=2,99/5=2) pseudo=read geom=check gue
 ss=(read,tcheck) scf=(maxcycle=1)
 ----------------------------------------------------------------------
 -----
 title
 -----
 Structure from the checkpoint file:  "BDE49_nonexpt_2052_mol1.chk"
 Charge =  0 Multiplicity = 1

                         Standard orientation:
 ---------------------------------------------------------------------
 Center     Atomic      Atomic             Coordinates (Angstroms)
 Number     Number       Type             X           Y           Z
 ---------------------------------------------------------------------
      1         14           0        1.625929   -0.402910   -0.000245
      2         16           0       -0.058887    0.965786    0.008757
      3         16           0       -1.627330   -0.448063   -0.086147
      4          1           0       -1.807491   -0.607910    1.239542
      5          1           0        2.824519    0.466491    0.020354
      6          1           0        1.606782   -1.237034   -1.218761
      7          1           0        1.592661   -1.264365    1.200534
 ---------------------------------------------------------------------

 SCF Done:  E(RHF) =  -1086.96784348     A.U. after    2 cycles

 The electronic state is 1-A.
 Alpha  occ. eigenvalues --  -76.25204 -75.72508 -75.70614 -13.15513 -13.10653
 Alpha  occ. eigenvalues --  -13.09251 -13.07113 -13.05349 -13.03764  -8.06131
 Alpha  occ. eigenvalues --   -8.04548  -5.58489  -2.20471  -2.20329  -2.20274
 Alpha  occ. eigenvalues --   -1.20893  -0.99590  -0.76851  -0.53234  -0.49708
 Alpha  occ. eigenvalues --   -0.48680  -0.40883  -0.37471  -0.27912  -0.24550
 Alpha virt. eigenvalues --    0.02569   0.03570   0.03879   0.05333   0.07742
 Alpha virt. eigenvalues --    0.08889   0.09948   0.10228   0.11341   0.12707
 Alpha virt. eigenvalues --    0.13267   0.15052   0.15665   0.16358   0.16775

 Mulliken charges:
               1
     1  Si   6.619087
     2  S   -1.464554
     3  S   -1.356301
     4  H    1.213204
     5  H   -1.619441
     6  H   -1.702278
     7  H   -1.689718
 Sum of Mulliken charges =   0.00000

 Dipole moment (field-independent basis, Debye):
    X=             -1.2123    Y=              0.9700    Z=             -0.8904  Tot=              1.7898

 Test job not archived.
 1\1\GINC-SE403\SP\RHF\Aug-CC-pVDZ\H4S2Si1\OHZDE\08-Apr-2025\0\\#t hf a
 ug-cc-pvdz iop(5/13=1,5/36=2,99/5=2) pseudo=read geom=check guess=(rea
 d,tcheck) scf=(maxcycle=1)\\title\\0,1\Si,0,1.625929,-0.40291,-0.00024
 5\S,0,-0.058887,0.965786,0.008757\S,0,-1.62733,-0.448063,-0.086147\H,0
 ,-1.807491,-0.60791,1.239542\H,0,2.824519,0.466491,0.020354\H,0,1.6067
 82,-1.237034,-1.218761\H,0,1.592661,-1.264365,1.200534\\Version=ES64L-
 G16RevC.01\State=1-A\HF=-1086.9678435\RMSD=1.148e-01\Dipole=-0.4769363
 ,0.3816336,-0.3503233\Quadrupole=1.0606938,-0.0266643,-1.0340295,1.455

 Normal termination of Gaussian 16 at Tue Apr  8 23:58:24 2025.
