 Gaussian 16, Revision C.01,

 ----------------------------------------------------------------------
 #t hf aug-cc-pvdz symm=none int=(grid=ultrafine) guess=(read,tcheck) s
 table=(opt,rrhf)
 ----------------------------------------------------------------------
 -----
 title
 -----
 Symbolic Z-matrix:
 Charge =  0 Multiplicity = 1

 SCF Done:  E(RHF) =  -765.677052806     A.U. after   14 cycles
 Normal termination of Gaussian 16 at Tue Apr  8 23:53:56 2025.
 Gaussian 16:  ES64L-G16RevC.01  3-Jul-2019

 ----------------------------------------------------------------------
 #t hf aug-cc-pvdz iop(5/13=1,5/36=2,99/5=2) pseudo=read geom=check gue
 ss=(read,tcheck) scf=(maxcycle=1)
 ----------------------------------------------------------------------
 -----
 title
 -----
 Structure from the checkpoint file:  "BDE49_nonexpt_1937_mol1.chk"
 Charge =  0 Multiplicity = 1

                         Standard orientation:
 ---------------------------------------------------------------------
 Center     Atomic      Atomic             Coordinates (Angstroms)
 Number     Number       Type             X           Y           Z
 ---------------------------------------------------------------------
      1         14           0        1.914909   -0.333902    0.033277
      2          6           0        0.470133    0.865233   -0.334265
      3          1           0        3.115409    0.155183   -0.682139
      4          1           0        1.562874   -1.691679   -0.430731
      5          1           0        2.184286   -0.356806    1.488798
      6          6           0       -0.739694    0.508830    0.443322
      7         16           0       -2.027402   -0.324609   -0.094921
      8          1           0       -0.721372    0.824585    1.489880
      9          1           0        0.277820    0.828340   -1.409098
     10          1           0        0.828050    1.864379   -0.058193
 ---------------------------------------------------------------------

 SCF Done:  E(RHF) =  -766.449070689     A.U. after    2 cycles

 The electronic state is 1-A.
 Alpha  occ. eigenvalues --  -76.23420 -75.66965 -13.14986 -13.00409 -12.98379
 Alpha  occ. eigenvalues --  -11.47930 -11.38996  -8.01120  -5.56847  -2.20303
 Alpha  occ. eigenvalues --   -2.19133  -2.19049  -1.24451  -1.04570  -0.82200
 Alpha  occ. eigenvalues --   -0.76255  -0.64090  -0.56950  -0.49721  -0.48093
 Alpha  occ. eigenvalues --   -0.47701  -0.43376  -0.31395  -0.22104
 Alpha virt. eigenvalues --    0.03046   0.04301   0.05189   0.05531   0.06928
 Alpha virt. eigenvalues --    0.07041   0.07474   0.08046   0.08752   0.09720
 Alpha virt. eigenvalues --    0.10486   0.12161   0.14076   0.14994   0.15347

 Mulliken charges:
               1
     1  Si   6.043881
     2  C   -4.004974
     3  H   -1.662291
     4  H   -1.736159
     5  H   -1.683096
     6  C   -2.009262
     7  S    0.995464
     8  H    1.314399
     9  H    1.395790
    10  H    1.346248
 Sum of Mulliken charges =   0.00000

 Dipole moment (field-independent basis, Debye):
    X=             -0.3882    Y=              0.0798    Z=             -0.3973  Tot=              0.5612

 Test job not archived.
 1\1\GINC-SE092\SP\RHF\Aug-CC-pVDZ\C2H6S1Si1\OHZDE\08-Apr-2025\0\\#t hf
  aug-cc-pvdz iop(5/13=1,5/36=2,99/5=2) pseudo=read geom=check guess=(r
 ead,tcheck) scf=(maxcycle=1)\\title\\0,1\Si,0,1.914909,-0.333902,0.033
 277\C,0,0.470133,0.865233,-0.334265\H,0,3.115409,0.155183,-0.682139\H,
 0,1.562874,-1.691679,-0.430731\H,0,2.184286,-0.356806,1.488798\C,0,-0.
 739694,0.50883,0.443322\S,0,-2.027402,-0.324609,-0.094921\H,0,-0.72137
 2,0.824585,1.48988\H,0,0.27782,0.82834,-1.409098\H,0,0.82805,1.864379,
 -0.058193\\Version=ES64L-G16RevC.01\State=1-A\HF=-766.4490707\RMSD=2.3

 Normal termination of Gaussian 16 at Tue Apr  8 23:53:59 2025.
