 Gaussian 16, Revision C.01,

 ----------------------------------------------------------------------
 #t hf aug-cc-pvdz symm=none int=(grid=ultrafine) guess=(read,tcheck) s
 table=(opt,rrhf)
 ----------------------------------------------------------------------
 -----
 title
 -----
 Symbolic Z-matrix:
 Charge =  0 Multiplicity = 1

 SCF Done:  E(RHF) =  -1193.76553956     A.U. after   12 cycles
 Normal termination of Gaussian 16 at Tue Apr  8 23:15:47 2025.
 Gaussian 16:  ES64L-G16RevC.01  3-Jul-2019

 ----------------------------------------------------------------------
 #t hf aug-cc-pvdz iop(5/13=1,5/36=2,99/5=2) pseudo=read geom=check gue
 ss=(read,tcheck) scf=(maxcycle=1)
 ----------------------------------------------------------------------
 -----
 title
 -----
 Structure from the checkpoint file:  "BDE49_expt_845_mol1.chk"
 Charge =  0 Multiplicity = 1

                         Standard orientation:
 ---------------------------------------------------------------------
 Center     Atomic      Atomic             Coordinates (Angstroms)
 Number     Number       Type             X           Y           Z
 ---------------------------------------------------------------------
      1         16           0       -0.000000    1.697366   -0.386156
      2         16           0        0.000000    0.000000    0.842569
      3          1           0       -1.332044    1.805597   -0.562052
      4         16           0       -0.000000   -1.697366   -0.386156
      5          1           0        1.332044   -1.805597   -0.562052
 ---------------------------------------------------------------------

 SCF Done:  E(RHF) =  -1194.44513362     A.U. after    2 cycles

 The electronic state is 1-A.
 Alpha  occ. eigenvalues --  -75.74385 -75.72703 -75.72687 -13.15985 -13.14172
 Alpha  occ. eigenvalues --  -13.13188 -13.09674 -13.08528 -13.06630 -13.06002
 Alpha  occ. eigenvalues --  -13.04734 -13.02874  -8.08033  -8.06572  -8.06309
 Alpha  occ. eigenvalues --   -1.25967  -1.11594  -0.94771  -0.55358  -0.50845
 Alpha  occ. eigenvalues --   -0.42118  -0.40357  -0.27337  -0.26016  -0.25550
 Alpha virt. eigenvalues --    0.02390   0.02875   0.04372   0.06662   0.11479
 Alpha virt. eigenvalues --    0.12624   0.13454   0.13925   0.14452   0.15502
 Alpha virt. eigenvalues --    0.15648   0.17037   0.19044   0.20196   0.21156

 Mulliken charges:
               1
     1  S   -1.012817
     2  S   -0.415873
     3  H    1.220753
     4  S   -1.012817
     5  H    1.220753
 Sum of Mulliken charges =  -0.00000

 Dipole moment (field-independent basis, Debye):
    X=              0.0000    Y=              0.0000    Z=              0.2761  Tot=              0.2761

 Test job not archived.
 1\1\GINC-SE126\SP\RHF\Aug-CC-pVDZ\H2S3\OHZDE\08-Apr-2025\0\\#t hf aug-
 cc-pvdz iop(5/13=1,5/36=2,99/5=2) pseudo=read geom=check guess=(read,t
 check) scf=(maxcycle=1)\\title\\0,1\S,0,0.,1.697366,-0.386156\S,0,0.,0
 .,0.842569\H,0,-1.332044,1.805597,-0.562052\S,0,0.,-1.697366,-0.386156
 \H,0,1.332044,-1.805597,-0.562052\\Version=ES64L-G16RevC.01\State=1-A\
 HF=-1194.4451336\RMSD=9.676e-02\Dipole=0.,0.,0.1086384\Quadrupole=-0.1
 110182,1.1769526,-1.0659344,1.3617909,0.,0.\PG=C02 [C2(S1),X(H2S2)]\\@

 Normal termination of Gaussian 16 at Tue Apr  8 23:15:49 2025.
