 Gaussian 16, Revision C.01,

 ----------------------------------------------------------------------
 #t hf aug-cc-pvdz symm=none int=(grid=ultrafine) guess=(read,tcheck) s
 table=(opt,rrhf)
 ----------------------------------------------------------------------
 -----
 title
 -----
 Symbolic Z-matrix:
 Charge =  0 Multiplicity = 1

 SCF Done:  E(RHF) =  -1020.44202627     A.U. after   17 cycles
 Normal termination of Gaussian 16 at Tue Apr  8 23:35:39 2025.
 Gaussian 16:  ES64L-G16RevC.01  3-Jul-2019

 ----------------------------------------------------------------------
 #t hf aug-cc-pvdz iop(5/13=1,5/36=2,99/5=2) pseudo=read geom=check gue
 ss=(read,tcheck) scf=(maxcycle=1)
 ----------------------------------------------------------------------
 -----
 title
 -----
 Structure from the checkpoint file:  "BDE49_nonexpt_1383_mol1.chk"
 Charge =  0 Multiplicity = 1

                         Standard orientation:
 ---------------------------------------------------------------------
 Center     Atomic      Atomic             Coordinates (Angstroms)
 Number     Number       Type             X           Y           Z
 ---------------------------------------------------------------------
      1          6           0        0.846930    0.433765   -0.375937
      2          6           0        1.557176   -0.488382   -1.151959
      3          1           0        1.136287   -0.853549   -2.082313
      4          6           0        2.805920   -0.938466   -0.729916
      5          1           0        3.350759   -1.657318   -1.330991
      6          6           0        3.358635   -0.452439    0.452557
      7          1           0        4.334863   -0.795962    0.775305
      8          6           0        2.660538    0.481573    1.218711
      9          1           0        3.092548    0.862942    2.136915
     10          6           0        1.405525    0.921333    0.812669
     11          1           0        0.861383    1.647073    1.405298
     12         15           0       -0.782710    1.014458   -0.980182
     13          9           0       -0.842997    2.482813   -0.278650
     14          6           0       -1.846439    0.155459    0.337915
     15          8           0       -2.474283    0.759336    1.164769
     16          6           0       -1.941148   -1.381807    0.265091
     17          9           0       -1.575012   -1.799092   -0.988089
     18          9           0       -1.068143   -1.921272    1.157903
     19          1           0       -2.948378   -1.743008    0.485088
 ---------------------------------------------------------------------

 SCF Done:  E(RHF) =  -1023.38331892     A.U. after    2 cycles

 The electronic state is 1-A.
 Alpha  occ. eigenvalues -- -105.25768 -29.31043 -29.30599 -29.27765 -21.10342
 Alpha  occ. eigenvalues --  -11.56244 -11.53369 -11.49596 -11.45131 -11.44783
 Alpha  occ. eigenvalues --  -11.42827 -11.42240 -11.38103  -2.84580  -1.75485
 Alpha  occ. eigenvalues --   -1.59647  -1.57245  -1.52929  -1.34488  -1.31643
 Alpha  occ. eigenvalues --   -1.10926  -1.09690  -0.92273  -0.88153  -0.85402
 Alpha  occ. eigenvalues --   -0.82580  -0.79944  -0.76028  -0.71645  -0.64603
 Alpha  occ. eigenvalues --   -0.60412  -0.60132  -0.58583  -0.52966  -0.52518
 Alpha  occ. eigenvalues --   -0.50541  -0.49335  -0.46956  -0.46453  -0.44076
 Alpha  occ. eigenvalues --   -0.40332  -0.37033  -0.35157  -0.33684  -0.32939
 Alpha  occ. eigenvalues --   -0.32257  -0.31791  -0.30122  -0.24339  -0.21290
 Alpha  occ. eigenvalues --   -0.18129  -0.01537
 Alpha virt. eigenvalues --    0.03769   0.04973   0.05144   0.05333   0.06744
 Alpha virt. eigenvalues --    0.07828   0.08532   0.08583   0.09813   0.10214
 Alpha virt. eigenvalues --    0.10677   0.11470   0.12062   0.12609   0.12851

 Mulliken charges:
               1
     1  C    1.578624
     2  C   -3.605453
     3  H    1.896172
     4  C   -0.930375
     5  H    1.534338
     6  C   -2.305824
     7  H    1.463156
     8  C   -0.422137
     9  H    1.539253
    10  C   -3.707395
    11  H    1.844301
    12  P    3.215847
    13  F   -0.413044
    14  C   -0.157682
    15  O   -2.904002
    16  C   -0.703585
    17  F    0.221634
    18  F    0.168284
    19  H    1.687887
 Sum of Mulliken charges =  -0.00000

 Dipole moment (field-independent basis, Debye):
    X=              3.1079    Y=              1.2070    Z=              0.1417  Tot=              3.3371

 Test job not archived.
 1\1\GINC-SE083\SP\RHF\Aug-CC-pVDZ\C8H6F3O1P1\OHZDE\08-Apr-2025\0\\#t h
 f aug-cc-pvdz iop(5/13=1,5/36=2,99/5=2) pseudo=read geom=check guess=(
 read,tcheck) scf=(maxcycle=1)\\title\\0,1\C,0,0.84693,0.433765,-0.3759
 37\C,0,1.557176,-0.488382,-1.151959\H,0,1.136287,-0.853549,-2.082313\C
 ,0,2.80592,-0.938465,-0.729916\H,0,3.350759,-1.657317,-1.330991\C,0,3.
 358635,-0.452438,0.452557\H,0,4.334863,-0.795961,0.775305\C,0,2.660538
 ,0.481573,1.218711\H,0,3.092548,0.862943,2.136915\C,0,1.405525,0.92133
 3,0.812669\H,0,0.861383,1.647073,1.405298\P,0,-0.78271,1.014458,-0.980

 Normal termination of Gaussian 16 at Tue Apr  8 23:35:55 2025.
