 Gaussian 16, Revision C.01,

 ----------------------------------------------------------------------
 #t hf aug-cc-pvdz symm=none int=(grid=ultrafine) guess=(read,tcheck) s
 table=(opt,rrhf)
 ----------------------------------------------------------------------
 -----
 title
 -----
 Symbolic Z-matrix:
 Charge =  0 Multiplicity = 1

 SCF Done:  E(RHF) =  -1070.63867293     A.U. after   13 cycles
 Normal termination of Gaussian 16 at Wed Apr  9 00:12:38 2025.
 Gaussian 16:  ES64L-G16RevC.01  3-Jul-2019

 ----------------------------------------------------------------------
 #t hf aug-cc-pvdz iop(5/13=1,5/36=2,99/5=2) pseudo=read geom=check gue
 ss=(read,tcheck) scf=(maxcycle=1)
 ----------------------------------------------------------------------
 -----
 title
 -----
 Structure from the checkpoint file:  "BDE49_nonexpt_2426_mol1.chk"
 Charge =  0 Multiplicity = 1

                         Standard orientation:
 ---------------------------------------------------------------------
 Center     Atomic      Atomic             Coordinates (Angstroms)
 Number     Number       Type             X           Y           Z
 ---------------------------------------------------------------------
      1         14           0        2.088929    0.721082   -0.231751
      2         14           0        0.628484   -0.987289    0.481934
      3          1           0        3.413644    0.468291    0.383913
      4          1           0        1.577445    2.038359    0.200309
      5          1           0        2.206526    0.669325   -1.705828
      6         16           0       -1.361847   -0.824780   -0.469515
      7          1           0        0.434702   -1.013705    1.948171
      8          1           0        1.046534   -2.326961    0.009694
      9          6           0       -1.759544    0.739941    0.059057
     10          7           0       -2.053687    1.806917    0.402725
 ---------------------------------------------------------------------

 SCF Done:  E(RHF) =  -1071.57897180     A.U. after    2 cycles

 The electronic state is 1-A.
 Alpha  occ. eigenvalues --  -76.27119 -76.24010 -75.73914 -15.76976 -13.21228
 Alpha  occ. eigenvalues --  -13.14061 -13.08295 -11.44735  -8.08121  -5.60490
 Alpha  occ. eigenvalues --   -5.57425  -2.22373  -2.22200  -2.21565  -2.19562
 Alpha  occ. eigenvalues --   -2.19496  -2.18351  -1.32668  -1.16583  -0.83488
 Alpha  occ. eigenvalues --   -0.74606  -0.65014  -0.52927  -0.51566  -0.50271
 Alpha  occ. eigenvalues --   -0.49494  -0.48909  -0.48225  -0.40546  -0.34088
 Alpha  occ. eigenvalues --   -0.28360
 Alpha virt. eigenvalues --    0.03119   0.03530   0.03797   0.05759   0.06884
 Alpha virt. eigenvalues --    0.07081   0.07675   0.08322   0.08555   0.09351
 Alpha virt. eigenvalues --    0.10067   0.10641   0.10922   0.11378   0.12740

 Mulliken charges:
               1
     1  Si   4.648947
     2  Si   4.633202
     3  H   -1.491855
     4  H   -1.402653
     5  H   -1.530454
     6  S   -0.335643
     7  H   -1.750688
     8  H   -1.701969
     9  C    0.832526
    10  N   -1.901413
 Sum of Mulliken charges =   0.00000

 Dipole moment (field-independent basis, Debye):
    X=              1.3654    Y=             -3.5436    Z=             -1.5855  Tot=              4.1153

 Test job not archived.
 1\1\GINC-SE460\SP\RHF\Aug-CC-pVDZ\C1H5N1S1Si2\OHZDE\09-Apr-2025\0\\#t
 hf aug-cc-pvdz iop(5/13=1,5/36=2,99/5=2) pseudo=read geom=check guess=
 (read,tcheck) scf=(maxcycle=1)\\title\\0,1\Si,0,2.088929,0.721082,-0.2
 31751\Si,0,0.628484,-0.987289,0.481934\H,0,3.413644,0.468291,0.383913\
 H,0,1.577445,2.038359,0.200309\H,0,2.206526,0.669325,-1.705828\S,0,-1.
 361847,-0.82478,-0.469515\H,0,0.434702,-1.013705,1.948171\H,0,1.046534
 ,-2.326961,0.009694\C,0,-1.759544,0.739941,0.059057\N,0,-2.053687,1.80
 6917,0.402725\\Version=ES64L-G16RevC.01\State=1-A\HF=-1071.5789718\RMS

 Normal termination of Gaussian 16 at Wed Apr  9 00:12:42 2025.
