 Gaussian 16, Revision C.01,

 ----------------------------------------------------------------------
 #t hf aug-cc-pvdz symm=none int=(grid=ultrafine) guess=(read,tcheck) s
 table=opt
 ----------------------------------------------------------------------
 -----
 title
 -----
 Symbolic Z-matrix:
 Charge =  0 Multiplicity = 2

 SCF Done:  E(UHF) =  -509.678039999     A.U. after   18 cycles
 Normal termination of Gaussian 16 at Tue Apr  8 23:36:07 2025.
 Gaussian 16:  ES64L-G16RevC.01  3-Jul-2019

 ----------------------------------------------------------------------
 #t hf aug-cc-pvdz iop(5/13=1,5/36=2,99/5=2) pseudo=read geom=check gue
 ss=(read,tcheck) scf=(maxcycle=1)
 ----------------------------------------------------------------------
 -----
 title
 -----
 Structure from the checkpoint file:  "BDE49_nonexpt_1493_mol2.chk"
 Charge =  0 Multiplicity = 2

                         Standard orientation:
 ---------------------------------------------------------------------
 Center     Atomic      Atomic             Coordinates (Angstroms)
 Number     Number       Type             X           Y           Z
 ---------------------------------------------------------------------
      1          6           0        0.482679   -0.149804   -0.000009
      2          8           0        0.967453   -1.266010   -0.000032
      3          7           0        1.230151    0.991714   -0.000011
      4          1           0        2.235981    0.900578   -0.000019
      5          1           0        0.820376    1.908650    0.000026
      6         15           0       -1.388863   -0.009380    0.000022
      7          1           0       -1.470164    1.416382    0.000061
 ---------------------------------------------------------------------

 SCF Done:  E(UHF) =  -510.558761872     A.U. after    2 cycles

 The electronic state is 2-A.
 Alpha  occ. eigenvalues -- -105.20561 -21.04491 -15.79179 -11.48657  -2.78432
 Alpha  occ. eigenvalues --   -1.72098  -1.49222  -1.46555  -1.46025  -1.34462
 Alpha  occ. eigenvalues --   -0.84250  -0.75455  -0.68070  -0.54389  -0.53635
 Alpha  occ. eigenvalues --   -0.40329  -0.34507  -0.21368  -0.08595   0.00190
 Alpha virt. eigenvalues --    0.03453   0.05919   0.06309   0.08891   0.11426
 Alpha virt. eigenvalues --    0.12504   0.12970   0.14221   0.14237   0.16746
 Alpha virt. eigenvalues --    0.17440   0.17900   0.20447   0.21141   0.22032

  Beta  occ. eigenvalues -- -105.19934 -21.04024 -15.79177 -11.48971  -2.76510
  Beta  occ. eigenvalues --   -1.71314  -1.47306  -1.44250  -1.34372  -1.22250
  Beta  occ. eigenvalues --   -0.83482  -0.74458  -0.66168  -0.54426  -0.53095
  Beta  occ. eigenvalues --   -0.40155  -0.33011  -0.21586  -0.06764
  Beta virt. eigenvalues --    0.03476   0.05931   0.06419   0.07829   0.09156
  Beta virt. eigenvalues --    0.12058   0.13331   0.14009   0.14302   0.16364
  Beta virt. eigenvalues --    0.16920   0.17604   0.18468   0.20675   0.21521

 Mulliken charges and spin densities:
               1          2
     1  C    2.276848  -0.259038
     2  O   -2.568302   0.130670
     3  N   -2.607986   0.012675
     4  H    0.690589   0.008773
     5  H    0.733445  -0.013793
     6  P    2.661124   1.294033
     7  H   -1.185717  -0.173320
 Sum of Mulliken charges =  -0.00000   1.00000

 Dipole moment (field-independent basis, Debye):
    X=             -1.9460    Y=             -0.6084    Z=             -0.0000  Tot=              2.0389
                          Isotropic Fermi Contact Couplings
        Atom                 a.u.       MegaHertz       Gauss      10(-4) cm-1
     1  C(13)             -0.01666     -18.72431      -6.68130      -6.24576
     2  O(17)              0.02631     -15.94898      -5.69099      -5.32001
     3  N(14)              0.00113       0.36534       0.13036       0.12186
     4  H(1)               0.00004       0.19844       0.07081       0.06619
     5  H(1)               0.00015       0.65035       0.23206       0.21693
     6  P(31)              0.24530     444.25472     158.52113     148.18742
     7  H(1)              -0.00696     -31.10032     -11.09737     -10.37395
 --------------------------------------------------------

 Normal termination of Gaussian 16 at Tue Apr  8 23:36:10 2025.
