 Gaussian 16, Revision C.01,

 ----------------------------------------------------------------------
 #t hf aug-cc-pvdz symm=none int=(grid=ultrafine) guess=(read,tcheck) s
 table=opt
 ----------------------------------------------------------------------
 -----
 title
 -----
 Symbolic Z-matrix:
 Charge =  0 Multiplicity = 2

 SCF Done:  E(UHF) =  -627.957178187     A.U. after   25 cycles
 Normal termination of Gaussian 16 at Tue Apr  8 23:23:29 2025.
 Gaussian 16:  ES64L-G16RevC.01  3-Jul-2019

 ----------------------------------------------------------------------
 #t hf aug-cc-pvdz iop(5/13=1,5/36=2,99/5=2) pseudo=read geom=check gue
 ss=(read,tcheck) scf=(maxcycle=1)
 ----------------------------------------------------------------------
 -----
 title
 -----
 Structure from the checkpoint file:  "BDE49_nonexpt_1195_mol2.chk"
 Charge =  0 Multiplicity = 2

                         Standard orientation:
 ---------------------------------------------------------------------
 Center     Atomic      Atomic             Coordinates (Angstroms)
 Number     Number       Type             X           Y           Z
 ---------------------------------------------------------------------
      1         16           0        2.206702   -0.219017    0.311278
      2          6           0        0.568415    0.186350   -0.222527
      3          8           0        0.405938    1.357279   -0.490315
      4          6           0       -0.478179   -0.895982   -0.341962
      5          6           0       -1.911693   -0.368074   -0.489223
      6          1           0       -0.382303   -1.561130    0.523710
      7          1           0       -0.193899   -1.495005   -1.216176
      8          6           0       -2.458465    0.280617    0.785877
      9          1           0       -2.550806   -1.207147   -0.781047
     10          1           0       -1.940875    0.350699   -1.312387
     11          1           0       -2.453811   -0.424977    1.622685
     12          1           0       -3.488664    0.614671    0.640176
     13          1           0       -1.864847    1.151458    1.072135
 ---------------------------------------------------------------------

 SCF Done:  E(UHF) =  -629.227284789     A.U. after    2 cycles

 The electronic state is 2-A.
 Alpha  occ. eigenvalues --  -75.73116 -21.06835 -13.16995 -13.08711 -13.04434
 Alpha  occ. eigenvalues --  -11.51658 -11.43858 -11.40227 -11.36280  -8.06969
 Alpha  occ. eigenvalues --   -1.73191  -1.24683  -1.15886  -1.04151  -0.88282
 Alpha  occ. eigenvalues --   -0.74081  -0.65057  -0.64498  -0.58323  -0.56430
 Alpha  occ. eigenvalues --   -0.51655  -0.49486  -0.48343  -0.46100  -0.44594
 Alpha  occ. eigenvalues --   -0.32444  -0.26784  -0.26558
 Alpha virt. eigenvalues --    0.03270   0.05190   0.05410   0.05854   0.06014
 Alpha virt. eigenvalues --    0.06806   0.07316   0.07835   0.10148   0.11363
 Alpha virt. eigenvalues --    0.12942   0.13451   0.14180   0.14466   0.15109

  Beta  occ. eigenvalues --  -75.72103 -21.06648 -13.16427 -13.03801 -13.02629
  Beta  occ. eigenvalues --  -11.51756 -11.43854 -11.40223 -11.36277  -8.05833
  Beta  occ. eigenvalues --   -1.72797  -1.24115  -1.10488  -1.02002  -0.87740
  Beta  occ. eigenvalues --   -0.73249  -0.64640  -0.64017  -0.58170  -0.55524
  Beta  occ. eigenvalues --   -0.51270  -0.49298  -0.48162  -0.45874  -0.44451
  Beta  occ. eigenvalues --   -0.27353  -0.25208
  Beta virt. eigenvalues --    0.02850   0.03559   0.05231   0.05791   0.05885
  Beta virt. eigenvalues --    0.06199   0.06972   0.07834   0.07901   0.10315
  Beta virt. eigenvalues --    0.11588   0.12970   0.13715   0.14355   0.14734

 Mulliken charges and spin densities:
               1          2
     1  S    0.799435   1.095063
     2  C    2.010640  -0.065974
     3  O   -2.802635  -0.019377
     4  C   -3.222904  -0.001157
     5  C   -2.663909   0.000036
     6  H    1.624272  -0.000651
     7  H    1.447897  -0.002866
     8  C   -3.658322  -0.003211
     9  H    1.281650   0.000347
    10  H    1.416334  -0.002799
    11  H    1.284379  -0.000638
    12  H    1.150870  -0.000540
    13  H    1.332292   0.001765
 Sum of Mulliken charges =  -0.00000   1.00000

 Dipole moment (field-independent basis, Debye):
    X=              0.0441    Y=             -1.0460    Z=              0.2186  Tot=              1.0695
                          Isotropic Fermi Contact Couplings
        Atom                 a.u.       MegaHertz       Gauss      10(-4) cm-1
     1  S(33)              0.31707     108.90616      38.86042      36.32718
     2  C(13)             -0.01091     -12.26141      -4.37518      -4.08997
     3  O(17)              0.02876     -17.43694      -6.22193      -5.81634
     4  C(13)              0.00006       0.06360       0.02270       0.02122
     5  C(13)              0.00271       3.04209       1.08549       1.01473
     6  H(1)               0.00058       2.57799       0.91989       0.85993
     7  H(1)              -0.00016      -0.72927      -0.26022      -0.24326
     8  C(13)             -0.00010      -0.11369      -0.04057      -0.03792

 Normal termination of Gaussian 16 at Tue Apr  8 23:23:33 2025.
