 Gaussian 16, Revision C.01,

 ----------------------------------------------------------------------
 #t hf aug-cc-pvdz symm=none int=(grid=ultrafine) guess=(read,tcheck) s
 table=(opt,rrhf)
 ----------------------------------------------------------------------
 -----
 title
 -----
 Symbolic Z-matrix:
 Charge =  0 Multiplicity = 1

 SCF Done:  E(RHF) =  -1087.17302028     A.U. after   15 cycles
 Normal termination of Gaussian 16 at Tue Apr  8 23:02:16 2025.
 Gaussian 16:  ES64L-G16RevC.01  3-Jul-2019

 ----------------------------------------------------------------------
 #t hf aug-cc-pvdz iop(5/13=1,5/36=2,99/5=2) pseudo=read geom=check gue
 ss=(read,tcheck) scf=(maxcycle=1)
 ----------------------------------------------------------------------
 -----
 title
 -----
 Structure from the checkpoint file:  "BDE49_expt_1975_mol1.chk"
 Charge =  0 Multiplicity = 1

                         Standard orientation:
 ---------------------------------------------------------------------
 Center     Atomic      Atomic             Coordinates (Angstroms)
 Number     Number       Type             X           Y           Z
 ---------------------------------------------------------------------
      1         16           0        1.451733   -0.000000    0.959793
      2          6           0       -0.225887    0.000000    0.382066
      3         17           0        2.544279   -0.000000   -0.844328
      4          6           0       -0.896745    1.213759    0.185893
      5          6           0       -0.896745   -1.213759    0.185893
      6          6           0       -2.232562   -1.209692   -0.202116
      7          6           0       -2.899011    0.000000   -0.395864
      8          6           0       -2.232562    1.209692   -0.202115
      9          1           0       -0.366077    2.145247    0.338729
     10          1           0       -2.753477    2.148120   -0.352731
     11          1           0       -0.366077   -2.145247    0.338728
     12          1           0       -2.753478   -2.148120   -0.352732
     13          1           0       -3.940284    0.000000   -0.697647
 ---------------------------------------------------------------------

 SCF Done:  E(RHF) =  -1088.74187038     A.U. after    2 cycles

 The electronic state is 1-A.
 Alpha  occ. eigenvalues --  -99.89749 -75.74357 -13.22083 -13.11615 -13.09831
 Alpha  occ. eigenvalues --  -11.53258 -11.45358 -11.45005 -11.43196 -11.42253
 Alpha  occ. eigenvalues --  -11.38395 -10.46801  -9.66584  -9.65988  -9.65865
 Alpha  occ. eigenvalues --   -8.08037  -1.38341  -1.30620  -1.15522  -1.11225
 Alpha  occ. eigenvalues --   -1.02643  -0.88483  -0.85221  -0.72720  -0.65959
 Alpha  occ. eigenvalues --   -0.60303  -0.59449  -0.58842  -0.56213  -0.53776
 Alpha  occ. eigenvalues --   -0.51736  -0.50450  -0.46987  -0.39484  -0.35668
 Alpha  occ. eigenvalues --   -0.34804  -0.25548
 Alpha virt. eigenvalues --    0.02627   0.04205   0.04799   0.04911   0.05703
 Alpha virt. eigenvalues --    0.06419   0.07805   0.08540   0.10309   0.10977
 Alpha virt. eigenvalues --    0.12624   0.12702   0.13575   0.13582   0.13958

 Mulliken charges:
               1
     1  S    0.412164
     2  C    2.902384
     3  Cl  -0.318588
     4  C   -3.783145
     5  C   -3.783143
     6  C   -0.588561
     7  C   -2.340907
     8  C   -0.588551
     9  H    1.748728
    10  H    1.538254
    11  H    1.748728
    12  H    1.538253
    13  H    1.514385
 Sum of Mulliken charges =  -0.00000

 Dipole moment (field-independent basis, Debye):
    X=             -3.4287    Y=              0.0000    Z=              2.4912  Tot=              4.2381

 Test job not archived.
 1\1\GINC-SE059\SP\RHF\Aug-CC-pVDZ\C6H5Cl1S1\OHZDE\08-Apr-2025\0\\#t hf
  aug-cc-pvdz iop(5/13=1,5/36=2,99/5=2) pseudo=read geom=check guess=(r
 ead,tcheck) scf=(maxcycle=1)\\title\\0,1\S,0,1.451733,0.,0.959793\C,0,
 -0.225887,0.,0.382066\Cl,0,2.544279,0.,-0.844328\C,0,-0.896745,1.21375
 9,0.185893\C,0,-0.896745,-1.213759,0.185893\C,0,-2.232562,-1.209692,-0
 .202116\C,0,-2.899011,0.,-0.395864\C,0,-2.232562,1.209692,-0.202115\H,
 0,-0.366077,2.145247,0.338729\H,0,-2.753477,2.14812,-0.352731\H,0,-0.3
 66077,-2.145247,0.338728\H,0,-2.753478,-2.14812,-0.352732\H,0,-3.94028

 Normal termination of Gaussian 16 at Tue Apr  8 23:02:21 2025.
