 Gaussian 16, Revision C.01,

 ----------------------------------------------------------------------
 #t hf aug-cc-pvdz symm=none int=(grid=ultrafine) guess=(read,tcheck) s
 table=opt
 ----------------------------------------------------------------------
 -----
 title
 -----
 Symbolic Z-matrix:
 Charge =  0 Multiplicity = 2

 SCF Done:  E(UHF) =  -1100.68732540     A.U. after   19 cycles
 Normal termination of Gaussian 16 at Wed Apr  9 00:52:09 2025.
 Gaussian 16:  ES64L-G16RevC.01  3-Jul-2019

 ----------------------------------------------------------------------
 #t hf aug-cc-pvdz iop(5/13=1,5/36=2,99/5=2) pseudo=read geom=check gue
 ss=(read,tcheck) scf=(maxcycle=1)
 ----------------------------------------------------------------------
 -----
 title
 -----
 Structure from the checkpoint file:  "BDE49_nonexpt_937_mol2.chk"
 Charge =  0 Multiplicity = 2

                         Standard orientation:
 ---------------------------------------------------------------------
 Center     Atomic      Atomic             Coordinates (Angstroms)
 Number     Number       Type             X           Y           Z
 ---------------------------------------------------------------------
      1         17           0       -2.113776    0.089720   -0.000001
      2         16           0        0.681218   -0.203527    0.000001
      3          8           0        0.686320   -0.910764   -1.256056
      4          7           0       -0.647838    0.923663   -0.000002
      5          6           0        1.981237    1.021490   -0.000000
      6          1           0        2.914415    0.457761    0.000001
      7          1           0        1.893317    1.625519   -0.900920
      8          8           0        0.686318   -0.910761    1.256060
      9          1           0        1.893316    1.625522    0.900918
 ---------------------------------------------------------------------

 SCF Done:  E(UHF) =  -1102.23918153     A.U. after    2 cycles

 The electronic state is 2-A.
 Alpha  occ. eigenvalues --  -99.95472 -75.92155 -21.07523 -21.07521 -15.86038
 Alpha  occ. eigenvalues --  -13.54921 -13.44295 -13.33369 -11.44327 -10.52770
 Alpha  occ. eigenvalues --   -9.72451  -9.71756  -9.71607  -8.27469  -1.86384
 Alpha  occ. eigenvalues --   -1.67821  -1.51293  -1.24004  -1.13278  -0.90308
 Alpha  occ. eigenvalues --   -0.70708  -0.69473  -0.68005  -0.64661  -0.61331
 Alpha  occ. eigenvalues --   -0.57050  -0.51966  -0.51548  -0.43969  -0.40901
 Alpha  occ. eigenvalues --   -0.40863  -0.40162  -0.37476
 Alpha virt. eigenvalues --    0.01533   0.03910   0.05372   0.05420   0.07880
 Alpha virt. eigenvalues --    0.10171   0.11312   0.11814   0.13822   0.13893
 Alpha virt. eigenvalues --    0.15054   0.15598   0.16378   0.16938   0.18544

  Beta  occ. eigenvalues --  -99.95419 -75.92226 -21.07429 -21.07427 -15.82727
  Beta  occ. eigenvalues --  -13.55010 -13.44400 -13.33620 -11.44351 -10.52714
  Beta  occ. eigenvalues --   -9.72821  -9.71577  -9.71162  -8.27559  -1.86166
  Beta  occ. eigenvalues --   -1.67580  -1.46254  -1.21543  -1.09868  -0.88648
  Beta  occ. eigenvalues --   -0.69849  -0.66760  -0.65252  -0.60555  -0.58675
  Beta  occ. eigenvalues --   -0.56780  -0.50943  -0.46782  -0.41866  -0.40136
  Beta  occ. eigenvalues --   -0.38376  -0.37756
  Beta virt. eigenvalues --    0.00534   0.02030   0.04654   0.05385   0.05461
  Beta virt. eigenvalues --    0.08062   0.10192   0.11393   0.11889   0.13843
  Beta virt. eigenvalues --    0.13909   0.15102   0.15714   0.16586   0.16964

 Mulliken charges and spin densities:
               1          2
     1  Cl   0.675206  -0.019263
     2  S    6.606950  -0.084724
     3  O   -2.453702   0.033488
     4  N   -1.888781   1.046666
     5  C   -4.444892  -0.012290
     6  H    1.328954  -0.001782
     7  H    1.314983   0.002209
     8  O   -2.453701   0.033488
     9  H    1.314983   0.002209
 Sum of Mulliken charges =  -0.00000   1.00000

 Dipole moment (field-independent basis, Debye):
    X=              1.9559    Y=              1.1770    Z=             -0.0000  Tot=              2.2827
                          Isotropic Fermi Contact Couplings
        Atom                 a.u.       MegaHertz       Gauss      10(-4) cm-1
     1  Cl(35)             0.06158      27.00036       9.63440       9.00635
     2  S(33)             -0.07309     -25.10452      -8.95792      -8.37397
     3  O(17)              0.00340      -2.05899      -0.73470      -0.68680
     4  N(14)              0.20808      67.23051      23.98952      22.42568
     5  C(13)             -0.00464      -5.22023      -1.86271      -1.74128
     6  H(1)              -0.00041      -1.85275      -0.66111      -0.61801
     7  H(1)               0.00015       0.68982       0.24614       0.23010
     8  O(17)              0.00340      -2.05897      -0.73469      -0.68680

 Normal termination of Gaussian 16 at Wed Apr  9 00:52:12 2025.
