 Gaussian 16, Revision C.01,

 ----------------------------------------------------------------------
 #t hf aug-cc-pvdz symm=none int=(grid=ultrafine) guess=(read,tcheck) s
 table=(opt,rrhf)
 ----------------------------------------------------------------------
 -----
 title
 -----
 Symbolic Z-matrix:
 Charge =  0 Multiplicity = 1

 SCF Done:  E(RHF) =  -815.755645990     A.U. after   16 cycles
 Normal termination of Gaussian 16 at Tue Apr  8 23:41:06 2025.
 Gaussian 16:  ES64L-G16RevC.01  3-Jul-2019

 ----------------------------------------------------------------------
 #t hf aug-cc-pvdz iop(5/13=1,5/36=2,99/5=2) pseudo=read geom=check gue
 ss=(read,tcheck) scf=(maxcycle=1)
 ----------------------------------------------------------------------
 -----
 title
 -----
 Structure from the checkpoint file:  "BDE49_nonexpt_1578_mol1.chk"
 Charge =  0 Multiplicity = 1

                         Standard orientation:
 ---------------------------------------------------------------------
 Center     Atomic      Atomic             Coordinates (Angstroms)
 Number     Number       Type             X           Y           Z
 ---------------------------------------------------------------------
      1          6           0       -3.299787   -1.110632    0.094787
      2          6           0       -1.977969   -1.103191    0.532389
      3          6           0       -3.870785    0.047370   -0.428830
      4          6           0       -3.109730    1.211398   -0.511919
      5          6           0       -1.787842    1.216424   -0.074051
      6          6           0       -1.203918    0.061352    0.459096
      7          1           0       -1.541439   -2.009064    0.940661
      8          7           0        2.907439   -0.147635    0.244428
      9          8           0        3.858080   -0.487554   -0.774954
     10          8           0        2.972247    1.269402    0.411931
     11          1           0       -3.884504   -2.021152    0.165037
     12          1           0       -3.545918    2.118387   -0.915676
     13          1           0       -4.900531    0.043051   -0.767712
     14          1           0       -1.201701    2.127346   -0.139907
     15          6           0        0.235274    0.067507    0.914826
     16          1           0        3.517515    1.374128    1.201612
     17          1           0        4.554765   -0.936262   -0.281564
     18         15           0        1.332858   -0.615400   -0.436805
     19          1           0        0.367643   -0.575617    1.788980
     20          1           0        0.568897    1.072505    1.172294
     21          1           0        1.166255    0.474969   -1.336261
 ---------------------------------------------------------------------

 SCF Done:  E(RHF) =  -818.113698852     A.U. after    2 cycles

 The electronic state is 1-A.
 Alpha  occ. eigenvalues -- -105.19935 -21.10200 -21.10114 -15.79956 -11.51705
 Alpha  occ. eigenvalues --  -11.43945 -11.42991 -11.40813 -11.40398 -11.39581
 Alpha  occ. eigenvalues --  -11.36066  -2.77273  -1.85352  -1.67969  -1.51708
 Alpha  occ. eigenvalues --   -1.48382  -1.45693  -1.34449  -1.13651  -1.09052
 Alpha  occ. eigenvalues --   -1.03025  -0.96863  -0.86346  -0.82934  -0.71001
 Alpha  occ. eigenvalues --   -0.69640  -0.65703  -0.64644  -0.62511  -0.61218
 Alpha  occ. eigenvalues --   -0.57802  -0.56155  -0.52630  -0.50788  -0.48569
 Alpha  occ. eigenvalues --   -0.47465  -0.44137  -0.43853  -0.34589  -0.33110
 Alpha  occ. eigenvalues --   -0.32837  -0.31548  -0.26548  -0.21675  -0.02201
 Alpha virt. eigenvalues --    0.03661   0.04701   0.05272   0.05417   0.06007
 Alpha virt. eigenvalues --    0.06451   0.07039   0.07450   0.08134   0.08356
 Alpha virt. eigenvalues --    0.10300   0.11030   0.11901   0.12479   0.12732

 Mulliken charges:
               1
     1  C   -1.337838
     2  C   -3.339554
     3  C   -3.101656
     4  C   -1.544672
     5  C   -2.458421
     6  C    6.246446
     7  H    1.454925
     8  N    1.674799
     9  O   -2.120478
    10  O   -2.031279
    11  H    1.543812
    12  H    1.461437
    13  H    1.492782
    14  H    1.809496
    15  C   -5.830877
    16  H    0.734904
    17  H    0.796950
    18  P    3.384792
    19  H    1.283786
    20  H    1.179291
    21  H   -1.298645
 Sum of Mulliken charges =  -0.00000

 Dipole moment (field-independent basis, Debye):
    X=              2.5399    Y=             -0.8190    Z=              0.4688  Tot=              2.7095

 Test job not archived.
 1\1\GINC-SE454\SP\RHF\Aug-CC-pVDZ\C7H10N1O2P1\OHZDE\08-Apr-2025\0\\#t
 hf aug-cc-pvdz iop(5/13=1,5/36=2,99/5=2) pseudo=read geom=check guess=
 (read,tcheck) scf=(maxcycle=1)\\title\\0,1\C,0,-3.299787,-1.110632,0.0
 94787\C,0,-1.977969,-1.103191,0.532389\C,0,-3.870785,0.04737,-0.42883\
 C,0,-3.10973,1.211398,-0.511919\C,0,-1.787842,1.216424,-0.074051\C,0,-
 1.203918,0.061352,0.459096\H,0,-1.541439,-2.009064,0.940661\N,0,2.9074
 39,-0.147635,0.244428\O,0,3.85808,-0.487554,-0.774954\O,0,2.972247,1.2
 69402,0.411931\H,0,-3.884504,-2.021152,0.165037\H,0,-3.545918,2.118387

 Normal termination of Gaussian 16 at Tue Apr  8 23:41:18 2025.
