 Gaussian 16, Revision C.01,

 ----------------------------------------------------------------------
 #t hf aug-cc-pvdz symm=none int=(grid=ultrafine) guess=(read,tcheck) s
 table=(opt,rrhf)
 ----------------------------------------------------------------------
 -----
 title
 -----
 Symbolic Z-matrix:
 Charge =  0 Multiplicity = 1

 SCF Done:  E(RHF) =  -613.290196933     A.U. after   16 cycles
 Normal termination of Gaussian 16 at Wed Apr  9 00:43:08 2025.
 Gaussian 16:  ES64L-G16RevC.01  3-Jul-2019

 ----------------------------------------------------------------------
 #t hf aug-cc-pvdz iop(5/13=1,5/36=2,99/5=2) pseudo=read geom=check gue
 ss=(read,tcheck) scf=(maxcycle=1)
 ----------------------------------------------------------------------
 -----
 title
 -----
 Structure from the checkpoint file:  "BDE49_nonexpt_698_mol1.chk"
 Charge =  0 Multiplicity = 1

                         Standard orientation:
 ---------------------------------------------------------------------
 Center     Atomic      Atomic             Coordinates (Angstroms)
 Number     Number       Type             X           Y           Z
 ---------------------------------------------------------------------
      1          6           0       -1.806198    1.290764   -0.076439
      2          6           0       -2.588172    0.155684    0.128401
      3          6           0       -1.948466   -1.078037    0.196176
      4          7           0       -0.625894   -1.231521    0.080459
      5          6           0        0.119131   -0.135962   -0.103881
      6          6           0       -0.430632    1.148683   -0.201348
      7          1           0       -3.664500    0.222272    0.229563
      8          1           0       -2.518935   -1.989738    0.349176
      9          1           0        0.205416    2.010633   -0.362438
     10          1           0       -2.262040    2.272568   -0.139374
     11          5           0        3.000471    0.758253    0.556431
     12         15           0        1.912710   -0.436579   -0.319686
     13          1           0        2.681346    1.899112    0.657828
     14          1           0        4.096466    0.400400    0.846293
     15          1           0        2.076515   -1.723971    0.211430
 ---------------------------------------------------------------------

 SCF Done:  E(RHF) =  -614.760833277     A.U. after    2 cycles

 The electronic state is 1-A.
 Alpha  occ. eigenvalues -- -105.16552 -15.74238 -11.49609 -11.46182 -11.44338
 Alpha  occ. eigenvalues --  -11.41649 -11.38477  -7.62194  -2.75128  -1.55954
 Alpha  occ. eigenvalues --   -1.49820  -1.43698  -1.40822  -1.19381  -1.10726
 Alpha  occ. eigenvalues --   -0.89636  -0.89550  -0.83015  -0.72103  -0.66436
 Alpha  occ. eigenvalues --   -0.62630  -0.60787  -0.56620  -0.54965  -0.51077
 Alpha  occ. eigenvalues --   -0.49589  -0.37874  -0.37712  -0.35288  -0.24152
 Alpha  occ. eigenvalues --   -0.13757  -0.04795
 Alpha virt. eigenvalues --    0.02992   0.04254   0.04440   0.05241   0.05627
 Alpha virt. eigenvalues --    0.06008   0.06961   0.09304   0.09400   0.09996
 Alpha virt. eigenvalues --    0.10135   0.10610   0.10955   0.12215   0.12773

 Mulliken charges:
               1
     1  C   -0.015253
     2  C   -0.754252
     3  C   -1.001296
     4  N   -3.082434
     5  C   -0.650234
     6  C   -2.053526
     7  H    1.419808
     8  H    1.629462
     9  H    1.796364
    10  H    1.531089
    11  B    5.026140
    12  P    2.168951
    13  H   -2.365410
    14  H   -2.872620
    15  H   -0.776790
 Sum of Mulliken charges =  -0.00000

 Dipole moment (field-independent basis, Debye):
    X=             -5.1465    Y=             -2.7565    Z=             -6.3755  Tot=              8.6448

 Test job not archived.
 1\1\GINC-SE095\SP\RHF\Aug-CC-pVDZ\C5H7B1N1P1\OHZDE\09-Apr-2025\0\\#t h
 f aug-cc-pvdz iop(5/13=1,5/36=2,99/5=2) pseudo=read geom=check guess=(
 read,tcheck) scf=(maxcycle=1)\\title\\0,1\C,0,-1.806198,1.290764,-0.07
 6439\C,0,-2.588172,0.155684,0.128401\C,0,-1.948466,-1.078037,0.196176\
 N,0,-0.625894,-1.231521,0.080459\C,0,0.119131,-0.135962,-0.103881\C,0,
 -0.430632,1.148683,-0.201348\H,0,-3.6645,0.222272,0.229563\H,0,-2.5189
 35,-1.989738,0.349176\H,0,0.205416,2.010633,-0.362438\H,0,-2.26204,2.2
 72568,-0.139374\B,0,3.000471,0.758253,0.556431\P,0,1.91271,-0.436579,-

 Normal termination of Gaussian 16 at Wed Apr  9 00:43:14 2025.
