 Gaussian 16, Revision C.01,

 ----------------------------------------------------------------------
 #t hf aug-cc-pvdz symm=none int=(grid=ultrafine) guess=(read,tcheck) s
 table=opt
 ----------------------------------------------------------------------
 -----
 title
 -----
 Symbolic Z-matrix:
 Charge =  0 Multiplicity = 2

 SCF Done:  E(UHF) =  -675.865860061     A.U. after   20 cycles
 Normal termination of Gaussian 16 at Wed Apr  9 00:56:04 2025.
 Gaussian 16:  ES64L-G16RevC.01  3-Jul-2019

 ----------------------------------------------------------------------
 #t hf aug-cc-pvdz iop(5/13=1,5/36=2,99/5=2) pseudo=read geom=check gue
 ss=(read,tcheck) scf=(maxcycle=1)
 ----------------------------------------------------------------------
 -----
 title
 -----
 Structure from the checkpoint file:  "BDE49_nonexpt_956_mol2.chk"
 Charge =  0 Multiplicity = 2

                         Standard orientation:
 ---------------------------------------------------------------------
 Center     Atomic      Atomic             Coordinates (Angstroms)
 Number     Number       Type             X           Y           Z
 ---------------------------------------------------------------------
      1          9           0        2.324116    0.754717    0.701711
      2          9           0        2.937890   -0.857068   -0.653845
      3          8           0       -1.635550    2.156697   -0.197105
      4          6           0       -0.436910    1.821950    0.535762
      5          1           0       -0.570638    1.927985    1.616001
      6          1           0        0.422336    2.417974    0.216185
      7          6           0       -0.447450    0.374996   -0.020771
      8          7           0        1.867076   -0.479682    0.172324
      9          6           0        0.796552   -0.103210   -0.766694
     10          1           0        1.172416    0.658463   -1.454905
     11          1           0        0.584928   -1.021283   -1.319485
     12          6           0       -1.576864    0.917924   -0.936017
     13          1           0       -1.267808    1.078029   -1.976217
     14          1           0       -2.521567    0.375009   -0.914898
     15          6           0       -0.929482   -0.642246    1.042078
     16          7           0       -1.083123   -1.991486    0.542462
     17          9           0       -2.217622   -1.963251   -0.273145
     18          1           0       -1.874623   -0.289893    1.471690
     19          1           0       -0.182848   -0.727756    1.836331
 ---------------------------------------------------------------------

 SCF Done:  E(UHF) =  -678.578690637     A.U. after    2 cycles

 The electronic state is 2-A.
 Alpha  occ. eigenvalues --  -29.30577 -29.30219 -29.29418 -21.05481 -15.90437
 Alpha  occ. eigenvalues --  -15.85483 -11.49877 -11.48954 -11.47957 -11.45116
 Alpha  occ. eigenvalues --  -11.40701  -1.78450  -1.55111  -1.46255  -1.21624
 Alpha  occ. eigenvalues --   -1.03989  -1.01912  -0.98258  -0.85389  -0.81437
 Alpha  occ. eigenvalues --   -0.75946  -0.74464  -0.70337  -0.67268  -0.64792
 Alpha  occ. eigenvalues --   -0.64316  -0.59900  -0.58591  -0.55771  -0.53047
 Alpha  occ. eigenvalues --   -0.51420  -0.46893  -0.45368  -0.44177  -0.41068
 Alpha  occ. eigenvalues --   -0.39073  -0.38104  -0.31906  -0.31097  -0.29765
 Alpha  occ. eigenvalues --   -0.25651  -0.24052  -0.23424  -0.21974
 Alpha virt. eigenvalues --    0.03910   0.04947   0.05384   0.05682   0.05938
 Alpha virt. eigenvalues --    0.06648   0.07249   0.08043   0.10497   0.11845
 Alpha virt. eigenvalues --    0.12347   0.13166   0.13321   0.13723   0.14611

  Beta  occ. eigenvalues --  -29.30579 -29.30219 -29.29181 -21.05474 -15.90433
  Beta  occ. eigenvalues --  -15.82076 -11.49790 -11.49015 -11.48020 -11.45243
  Beta  occ. eigenvalues --  -11.40665  -1.78409  -1.54996  -1.38317  -1.19887
  Beta  occ. eigenvalues --   -1.03420  -1.01847  -0.97326  -0.85354  -0.80857
  Beta  occ. eigenvalues --   -0.75397  -0.73278  -0.68871  -0.65889  -0.63812
  Beta  occ. eigenvalues --   -0.63238  -0.58651  -0.57079  -0.53062  -0.50721
  Beta  occ. eigenvalues --   -0.49040  -0.45311  -0.44108  -0.41180  -0.38498
  Beta  occ. eigenvalues --   -0.37953  -0.35491  -0.31846  -0.31060  -0.29725
  Beta  occ. eigenvalues --   -0.25029  -0.23491  -0.21968
  Beta virt. eigenvalues --    0.03908   0.04957   0.05381   0.05691   0.05904
  Beta virt. eigenvalues --    0.06575   0.07258   0.08051   0.09800   0.10929
  Beta virt. eigenvalues --    0.12277   0.13049   0.13311   0.13543   0.14183

 Mulliken charges and spin densities:
               1          2
     1  F   -0.224326   0.000841
     2  F   -0.264626  -0.000131
     3  O   -2.880543   0.000776
     4  C   -1.233974   0.006319
     5  H    1.612513   0.003470
     6  H    1.369714   0.000799
     7  C    1.902583   0.192458
     8  N   -0.083274   0.008266
     9  C   -4.016320  -0.022669
    10  H    1.568951  -0.001153
    11  H    1.493248  -0.003193
    12  C   -1.262884  -0.016455
    13  H    1.550835   0.000447
    14  H    1.370186  -0.000563
    15  C   -2.605855  -0.346670
    16  N   -1.149233   1.028011
    17  F   -0.109243   0.107632
    18  H    1.581804   0.035911
    19  H    1.380445   0.005903
 Sum of Mulliken charges =  -0.00000   1.00000

 Dipole moment (field-independent basis, Debye):
    X=             -0.1605    Y=              1.2624    Z=             -1.3000  Tot=              1.8192
                          Isotropic Fermi Contact Couplings
        Atom                 a.u.       MegaHertz       Gauss      10(-4) cm-1
     1  F(19)              0.00000       0.01307       0.00466       0.00436
     2  F(19)             -0.00012      -0.51482      -0.18370      -0.17172
     3  O(17)              0.00015      -0.08875      -0.03167      -0.02960
     4  C(13)             -0.00239      -2.69122      -0.96029      -0.89769
     5  H(1)               0.00006       0.28020       0.09998       0.09347
     6  H(1)               0.00030       1.35585       0.48380       0.45226
     7  C(13)              0.02592      29.13962      10.39774       9.71993
     8  N(14)              0.00028       0.09163       0.03270       0.03057

 Normal termination of Gaussian 16 at Wed Apr  9 00:56:17 2025.
