 Gaussian 16, Revision C.01,

 ----------------------------------------------------------------------
 #t hf aug-cc-pvdz symm=none int=(grid=ultrafine) guess=(read,tcheck) s
 table=(opt,rrhf)
 ----------------------------------------------------------------------
 -----
 title
 -----
 Symbolic Z-matrix:
 Charge =  0 Multiplicity = 1

 SCF Done:  E(RHF) =  -911.702301118     A.U. after   16 cycles
 Normal termination of Gaussian 16 at Tue Apr  8 23:15:23 2025.
 Gaussian 16:  ES64L-G16RevC.01  3-Jul-2019

 ----------------------------------------------------------------------
 #t hf aug-cc-pvdz iop(5/13=1,5/36=2,99/5=2) pseudo=read geom=check gue
 ss=(read,tcheck) scf=(maxcycle=1)
 ----------------------------------------------------------------------
 -----
 title
 -----
 Structure from the checkpoint file:  "BDE49_expt_554_mol1.chk"
 Charge =  0 Multiplicity = 1

                         Standard orientation:
 ---------------------------------------------------------------------
 Center     Atomic      Atomic             Coordinates (Angstroms)
 Number     Number       Type             X           Y           Z
 ---------------------------------------------------------------------
      1          6           0        1.563594    0.013383    2.338692
      2          6           0        1.010133   -0.347961    3.563950
      3          6           0       -0.365523   -0.519362    3.688025
      4          6           0       -1.185878   -0.315000    2.579662
      5          6           0       -0.642864    0.087927    1.362315
      6          6           0        0.745967    0.244133    1.228524
      7          7           0        1.297736    0.636277   -0.000000
      8          6           0        0.745967    0.244133   -1.228524
      9          1           0       -0.800480   -0.813585    4.635499
     10          1           0        1.660123   -0.507740    4.416359
     11          1           0       -2.258107   -0.452516    2.660161
     12          6           0       -0.642864    0.087927   -1.362315
     13          1           0        2.638844    0.125534    2.238457
     14          1           0        2.305353    0.696749   -0.000000
     15          6           0        1.563594    0.013383   -2.338692
     16          6           0        1.010133   -0.347961   -3.563950
     17          6           0       -0.365523   -0.519362   -3.688025
     18          6           0       -1.185878   -0.315000   -2.579662
     19          1           0        2.638844    0.125534   -2.238457
     20          1           0       -2.258107   -0.452516   -2.660161
     21          1           0        1.660123   -0.507740   -4.416359
     22          1           0       -0.800480   -0.813585   -4.635499
     23         16           0       -1.710963    0.511781    0.000000
 ---------------------------------------------------------------------

 SCF Done:  E(RHF) =  -914.364458203     A.U. after    2 cycles

 The electronic state is 1-A'.
 Alpha  occ. eigenvalues --  -75.69437 -15.76988 -13.22293 -13.16257 -13.04353
 Alpha  occ. eigenvalues --  -11.53623 -11.52890 -11.47064 -11.46735 -11.45714
 Alpha  occ. eigenvalues --  -11.44114 -11.42284 -11.42107 -11.41535 -11.41313
 Alpha  occ. eigenvalues --  -11.37235 -11.37031  -8.03671  -1.49757  -1.33356
 Alpha  occ. eigenvalues --   -1.29358  -1.19448  -1.11446  -1.09915  -1.05763
 Alpha  occ. eigenvalues --   -0.99437  -0.89032  -0.88583  -0.86604  -0.80160
 Alpha  occ. eigenvalues --   -0.72317  -0.71499  -0.66031  -0.65180  -0.61733
 Alpha  occ. eigenvalues --   -0.59752  -0.58740  -0.58077  -0.55704  -0.54751
 Alpha  occ. eigenvalues --   -0.52354  -0.50966  -0.48410  -0.46117  -0.44951
 Alpha  occ. eigenvalues --   -0.40904  -0.40063  -0.35644  -0.34225  -0.33751
 Alpha  occ. eigenvalues --   -0.27921  -0.19709
 Alpha virt. eigenvalues --    0.03175   0.04646   0.05014   0.05016   0.05521
 Alpha virt. eigenvalues --    0.05677   0.06155   0.07684   0.07996   0.08621
 Alpha virt. eigenvalues --    0.10071   0.10274   0.10952   0.11033   0.12021

 Mulliken charges:
               1
     1  C   -2.869104
     2  C   -1.230715
     3  C   -2.170438
     4  C   -3.393443
     5  C    2.999155
     6  C    1.732605
     7  N   -5.543210
     8  C    1.732605
     9  H    1.563057
    10  H    1.545962
    11  H    1.811647
    12  C    2.999155
    13  H    1.786537
    14  H    0.746459
    15  C   -2.869104
    16  C   -1.230715
    17  C   -2.170438
    18  C   -3.393443
    19  H    1.786537
    20  H    1.811647
    21  H    1.545962
    22  H    1.563057
    23  S    1.246227
 Sum of Mulliken charges =   0.00000

 Dipole moment (field-independent basis, Debye):
    X=              0.3081    Y=              0.1674    Z=             -0.0000  Tot=              0.3506

 Test job not archived.
 1\1\GINC-SE341\SP\RHF\Aug-CC-pVDZ\C12H9N1S1\OHZDE\08-Apr-2025\0\\#t hf
  aug-cc-pvdz iop(5/13=1,5/36=2,99/5=2) pseudo=read geom=check guess=(r
 ead,tcheck) scf=(maxcycle=1)\\title\\0,1\C,0,1.563594,0.013383,2.33869
 2\C,0,1.010133,-0.347961,3.56395\C,0,-0.365523,-0.519362,3.688025\C,0,
 -1.185878,-0.315,2.579662\C,0,-0.642864,0.087927,1.362315\C,0,0.745967
 ,0.244133,1.228524\N,0,1.297736,0.636277,0.\C,0,0.745967,0.244133,-1.2
 28524\H,0,-0.80048,-0.813585,4.635499\H,0,1.660123,-0.50774,4.416359\H
 ,0,-2.258107,-0.452516,2.660161\C,0,-0.642864,0.087927,-1.362315\H,0,2

 Normal termination of Gaussian 16 at Tue Apr  8 23:15:35 2025.
