 Gaussian 16, Revision C.01,

 ----------------------------------------------------------------------
 #t hf aug-cc-pvdz symm=none int=(grid=ultrafine) guess=(read,tcheck) s
 table=(opt,rrhf)
 ----------------------------------------------------------------------
 -----
 title
 -----
 Symbolic Z-matrix:
 Charge =  0 Multiplicity = 1

 SCF Done:  E(RHF) =  -334.092304823     A.U. after   14 cycles

 1\1\GINC-SE186\Stability\RHF\Aug-CC-pVDZ\C8H11B1\OHZDE\09-Apr-2025\0\\
 #t hf aug-cc-pvdz symm=none int=(grid=ultrafine) guess=(read,tcheck) s
 table=(opt,rrhf)\\title\\0,1\B,0,-1.706369,-0.000005,-0.000013\C,0,-0.
 137639,-0.000006,-0.000006\C,0,0.601276,1.199223,-0.043524\C,0,0.60128
 ,-1.199232,0.043518\C,0,1.992427,-1.20482,0.051705\C,0,2.691656,0.,0.0
 00003\C,0,1.992423,1.204817,-0.051703\H,0,3.776383,0.000002,0.000007\H
 ,0,2.532751,2.144308,-0.093452\H,0,0.076484,2.147264,-0.077741\H,0,0.0
 76492,-2.147275,0.077733\H,0,2.532759,-2.144308,0.093458\C,0,-2.528865

 Normal termination of Gaussian 16 at Wed Apr  9 00:30:34 2025.
 Gaussian 16:  ES64L-G16RevC.01  3-Jul-2019

 ----------------------------------------------------------------------
 #t hf aug-cc-pvdz iop(5/13=1,5/36=2,99/5=2) pseudo=read geom=check gue
 ss=(read,tcheck) scf=(maxcycle=1)
 ----------------------------------------------------------------------
 -----
 title
 -----
 Structure from the checkpoint file:  "BDE49_nonexpt_317_mol1.chk"
 Charge =  0 Multiplicity = 1

                         Standard orientation:
 ---------------------------------------------------------------------
 Center     Atomic      Atomic             Coordinates (Angstroms)
 Number     Number       Type             X           Y           Z
 ---------------------------------------------------------------------
      1          5           0        1.706369    0.000005   -0.000013
      2          6           0        0.137639    0.000006   -0.000006
      3          6           0       -0.601276   -1.199223   -0.043524
      4          6           0       -0.601280    1.199232    0.043518
      5          6           0       -1.992427    1.204820    0.051705
      6          6           0       -2.691656    0.000000    0.000003
      7          6           0       -1.992423   -1.204817   -0.051703
      8          1           0       -3.776383   -0.000002    0.000007
      9          1           0       -2.532751   -2.144308   -0.093452
     10          1           0       -0.076484   -2.147264   -0.077741
     11          1           0       -0.076492    2.147275    0.077733
     12          1           0       -2.532759    2.144308    0.093458
     13          6           0        2.528865    1.344484   -0.086356
     14          1           0        2.774563    1.649583    0.942812
     15          1           0        3.492685    1.207806   -0.587457
     16          1           0        2.015524    2.190470   -0.549312
     17          6           0        2.528837   -1.344492    0.086366
     18          1           0        2.015542   -2.190368    0.549578
     19          1           0        3.492780   -1.207797    0.587222
     20          1           0        2.774258   -1.649788   -0.942809
 ---------------------------------------------------------------------

 SCF Done:  E(RHF) =  -335.742989614     A.U. after    2 cycles

 The electronic state is 1-A.
 Alpha  occ. eigenvalues --  -11.51298 -11.43338 -11.42373 -11.40400 -11.40198
 Alpha  occ. eigenvalues --  -11.35258 -11.32994 -11.32833  -7.61222  -1.34160
 Alpha  occ. eigenvalues --   -1.15026  -1.08771  -1.06408  -0.99914  -0.86190
 Alpha  occ. eigenvalues --   -0.85593  -0.72755  -0.68273  -0.61697  -0.58814
 Alpha  occ. eigenvalues --   -0.58758  -0.56755  -0.55394  -0.52274  -0.51096
 Alpha  occ. eigenvalues --   -0.49547  -0.49120  -0.45311  -0.38366  -0.37472
 Alpha  occ. eigenvalues --   -0.33389  -0.32580
 Alpha virt. eigenvalues --    0.03099   0.04528   0.04839   0.05229   0.05501
 Alpha virt. eigenvalues --    0.05773   0.06659   0.07601   0.07904   0.07906
 Alpha virt. eigenvalues --    0.08148   0.09235   0.09336   0.09416   0.09730

 Mulliken charges:
               1
     1  B    6.256258
     2  C   -1.229400
     3  C   -0.005595
     4  C   -0.005587
     5  C   -2.043054
     6  C   -2.720621
     7  C   -2.042681
     8  H    1.537466
     9  H    1.566192
    10  H    2.060779
    11  H    2.060760
    12  H    1.566174
    13  C   -6.625989
    14  H    0.899438
    15  H    1.056889
    16  H    1.169286
    17  C   -6.625997
    18  H    1.169222
    19  H    1.056946
    20  H    0.899514
 Sum of Mulliken charges =  -0.00000

 Dipole moment (field-independent basis, Debye):
    X=             -0.6029    Y=             -0.0000    Z=             -0.0000  Tot=              0.6029

 Test job not archived.
 1\1\GINC-SE186\SP\RHF\Aug-CC-pVDZ\C8H11B1\OHZDE\09-Apr-2025\0\\#t hf a
 ug-cc-pvdz iop(5/13=1,5/36=2,99/5=2) pseudo=read geom=check guess=(rea
 d,tcheck) scf=(maxcycle=1)\\title\\0,1\B,0,-1.706369,-0.000005,-0.0000
 13\C,0,-0.137639,-0.000006,-0.000006\C,0,0.601276,1.199223,-0.043524\C
 ,0,0.60128,-1.199232,0.043518\C,0,1.992427,-1.20482,0.051705\C,0,2.691
 656,0.,0.000003\C,0,1.992423,1.204817,-0.051703\H,0,3.776383,0.000002,
 0.000007\H,0,2.532751,2.144308,-0.093452\H,0,0.076484,2.147264,-0.0777
 41\H,0,0.076492,-2.147275,0.077733\H,0,2.532759,-2.144308,0.093458\C,0

 Normal termination of Gaussian 16 at Wed Apr  9 00:30:44 2025.
