 Gaussian 16, Revision C.01,

 ----------------------------------------------------------------------
 #t hf aug-cc-pvdz symm=none int=(grid=ultrafine) guess=(read,tcheck) s
 table=(opt,rrhf)
 ----------------------------------------------------------------------
 -----
 title
 -----
 Symbolic Z-matrix:
 Charge =  0 Multiplicity = 1

 SCF Done:  E(RHF) =  -189.307758646     A.U. after   11 cycles
 Normal termination of Gaussian 16 at Tue Apr  8 23:07:47 2025.
 Gaussian 16:  ES64L-G16RevC.01  3-Jul-2019

 ----------------------------------------------------------------------
 #t hf aug-cc-pvdz iop(5/13=1,5/36=2,99/5=2) pseudo=read geom=check gue
 ss=(read,tcheck) scf=(maxcycle=1)
 ----------------------------------------------------------------------
 -----
 title
 -----
 Structure from the checkpoint file:  "BDE49_expt_414_mol1.chk"
 Charge =  0 Multiplicity = 1

                         Standard orientation:
 ---------------------------------------------------------------------
 Center     Atomic      Atomic             Coordinates (Angstroms)
 Number     Number       Type             X           Y           Z
 ---------------------------------------------------------------------
      1          7           0        1.410501   -0.591125    0.206700
      2          6           0        0.722412    0.626799   -0.247660
      3          6           0       -0.722412    0.626799    0.247660
      4          1           0        1.239977    1.494072    0.174342
      5          1           0        1.133081   -1.365622   -0.389133
      6          1           0        2.413502   -0.491433    0.092484
      7          7           0       -1.410501   -0.591126   -0.206700
      8          1           0       -0.719453    0.740069    1.342482
      9          1           0       -1.239977    1.494072   -0.174342
     10          1           0       -2.413502   -0.491432   -0.092484
     11          1           0       -1.133080   -1.365622    0.389132
     12          1           0        0.719452    0.740069   -1.342482
 ---------------------------------------------------------------------

 SCF Done:  E(RHF) =  -190.244394165     A.U. after    2 cycles

 The electronic state is 1-A.
 Alpha  occ. eigenvalues --  -15.72291 -15.72253 -11.42042 -11.36234  -1.36639
 Alpha  occ. eigenvalues --   -1.26739  -1.02128  -0.83663  -0.68388  -0.66110
 Alpha  occ. eigenvalues --   -0.58552  -0.57541  -0.52225  -0.47501  -0.45829
 Alpha  occ. eigenvalues --   -0.36428  -0.33828
 Alpha virt. eigenvalues --    0.04217   0.05310   0.05655   0.06225   0.06557
 Alpha virt. eigenvalues --    0.06745   0.07144   0.08798   0.12291   0.13964
 Alpha virt. eigenvalues --    0.14143   0.14742   0.16541   0.17967   0.18686

 Mulliken charges:
               1
     1  N   -2.079527
     2  C   -1.808180
     3  C   -1.808181
     4  H    1.346349
     5  H    0.593676
     6  H    0.566111
     7  N   -2.079526
     8  H    1.381570
     9  H    1.346349
    10  H    0.566111
    11  H    0.593678
    12  H    1.381570
 Sum of Mulliken charges =  -0.00000

 Dipole moment (field-independent basis, Debye):
    X=              0.0000    Y=              0.2058    Z=              0.0000  Tot=              0.2058

 Test job not archived.
 1\1\GINC-SE187\SP\RHF\Aug-CC-pVDZ\C2H8N2\OHZDE\08-Apr-2025\0\\#t hf au
 g-cc-pvdz iop(5/13=1,5/36=2,99/5=2) pseudo=read geom=check guess=(read
 ,tcheck) scf=(maxcycle=1)\\title\\0,1\N,0,1.410501,-0.591125,0.2067\C,
 0,0.722412,0.626799,-0.24766\C,0,-0.722412,0.626799,0.24766\H,0,1.2399
 77,1.494072,0.174342\H,0,1.133081,-1.365622,-0.389133\H,0,2.413502,-0.
 491432,0.092484\N,0,-1.410501,-0.591126,-0.2067\H,0,-0.719453,0.740069
 ,1.342482\H,0,-1.239977,1.494072,-0.174342\H,0,-2.413502,-0.491432,-0.
 092484\H,0,-1.13308,-1.365622,0.389132\H,0,0.719452,0.740069,-1.342482

 Normal termination of Gaussian 16 at Tue Apr  8 23:07:51 2025.
