 Gaussian 16, Revision C.01,

 ----------------------------------------------------------------------
 #t hf aug-cc-pvdz symm=none int=(grid=ultrafine) guess=(read,tcheck) s
 table=(opt,rrhf)
 ----------------------------------------------------------------------
 -----
 title
 -----
 Symbolic Z-matrix:
 Charge =  0 Multiplicity = 1

 SCF Done:  E(RHF) =  -496.801427057     A.U. after   16 cycles
 Normal termination of Gaussian 16 at Wed Apr  9 00:00:28 2025.
 Gaussian 16:  ES64L-G16RevC.01  3-Jul-2019

 ----------------------------------------------------------------------
 #t hf aug-cc-pvdz iop(5/13=1,5/36=2,99/5=2) pseudo=read geom=check gue
 ss=(read,tcheck) scf=(maxcycle=1)
 ----------------------------------------------------------------------
 -----
 title
 -----
 Structure from the checkpoint file:  "BDE49_nonexpt_2109_mol1.chk"
 Charge =  0 Multiplicity = 1

                         Standard orientation:
 ---------------------------------------------------------------------
 Center     Atomic      Atomic             Coordinates (Angstroms)
 Number     Number       Type             X           Y           Z
 ---------------------------------------------------------------------
      1         14           0        0.085160    0.852635    0.083680
      2          7           0        1.759431    0.082111   -0.259203
      3          8           0        1.864478   -1.104939   -0.032834
      4          6           0       -1.272763   -0.354841    0.450741
      5          6           0       -2.358740   -0.478324   -0.318520
      6          1           0       -1.178024   -1.003320    1.319691
      7          1           0       -2.511966    0.134451   -1.202643
      8          1           0       -3.143729   -1.197123   -0.099508
      9          1           0       -0.210573    1.649003   -1.127206
     10          1           0        0.409237    1.743821    1.221912
 ---------------------------------------------------------------------

 SCF Done:  E(RHF) =  -497.865984237     A.U. after    2 cycles

 The electronic state is 1-A.
 Alpha  occ. eigenvalues --  -76.24614 -21.12622 -15.82956 -11.43316 -11.38430
 Alpha  occ. eigenvalues --   -5.58371  -2.23029  -2.21310  -2.20450  -1.83231
 Alpha  occ. eigenvalues --   -1.16162  -1.00538  -0.84359  -0.73476  -0.64328
 Alpha  occ. eigenvalues --   -0.58325  -0.56370  -0.52971  -0.52690  -0.47285
 Alpha  occ. eigenvalues --   -0.43799  -0.39251  -0.24130
 Alpha virt. eigenvalues --    0.03315   0.05197   0.05481   0.05932   0.06643
 Alpha virt. eigenvalues --    0.07340   0.08028   0.09245   0.10140   0.11262
 Alpha virt. eigenvalues --    0.12117   0.13703   0.14576   0.15132   0.15691

 Mulliken charges:
               1
     1  Si   5.638446
     2  N    0.379457
     3  O   -1.534670
     4  C   -2.436069
     5  C   -2.489954
     6  H    1.224334
     7  H    1.382767
     8  H    1.354234
     9  H   -1.669320
    10  H   -1.849225
 Sum of Mulliken charges =  -0.00000

 Dipole moment (field-independent basis, Debye):
    X=             -2.6583    Y=             -0.7873    Z=              0.2607  Tot=              2.7847

 Test job not archived.
 1\1\GINC-SE072\SP\RHF\Aug-CC-pVDZ\C2H5N1O1Si1\OHZDE\09-Apr-2025\0\\#t
 hf aug-cc-pvdz iop(5/13=1,5/36=2,99/5=2) pseudo=read geom=check guess=
 (read,tcheck) scf=(maxcycle=1)\\title\\0,1\Si,0,0.08516,0.852635,0.083
 68\N,0,1.759431,0.082111,-0.259203\O,0,1.864478,-1.104939,-0.032834\C,
 0,-1.272763,-0.354841,0.450741\C,0,-2.35874,-0.478324,-0.31852\H,0,-1.
 178024,-1.00332,1.319691\H,0,-2.511966,0.134451,-1.202643\H,0,-3.14372
 9,-1.197123,-0.099508\H,0,-0.210573,1.649003,-1.127206\H,0,0.409237,1.
 743821,1.221912\\Version=ES64L-G16RevC.01\State=1-A\HF=-497.8659842\RM

 Normal termination of Gaussian 16 at Wed Apr  9 00:00:31 2025.
