 Gaussian 16, Revision C.01,

 ----------------------------------------------------------------------
 #t hf aug-cc-pvdz symm=none int=(grid=ultrafine) guess=(read,tcheck) s
 table=(opt,rrhf)
 ----------------------------------------------------------------------
 -----
 title
 -----
 Symbolic Z-matrix:
 Charge =  0 Multiplicity = 1

 SCF Done:  E(RHF) =  -1161.53806382     A.U. after   10 cycles
 Normal termination of Gaussian 16 at Tue Apr  8 22:59:52 2025.
 Gaussian 16:  ES64L-G16RevC.01  3-Jul-2019

 ----------------------------------------------------------------------
 #t hf aug-cc-pvdz iop(5/13=1,5/36=2,99/5=2) pseudo=read geom=check gue
 ss=(read,tcheck) scf=(maxcycle=1)
 ----------------------------------------------------------------------
 -----
 title
 -----
 Structure from the checkpoint file:  "BDE49_expt_1940_mol1.chk"
 Charge =  0 Multiplicity = 1

                         Standard orientation:
 ---------------------------------------------------------------------
 Center     Atomic      Atomic             Coordinates (Angstroms)
 Number     Number       Type             X           Y           Z
 ---------------------------------------------------------------------
      1         14           0        0.925745   -0.733229    0.949011
      2         14           0       -0.925745    0.733229    0.949011
      3         14           0       -0.925745    2.204526   -0.894758
      4          1           0       -0.916894    1.530720    2.203296
      5          1           0       -2.177875   -0.067072    0.931766
      6          1           0        0.311444    3.022128   -0.897656
      7          1           0       -2.095069    3.114662   -0.833060
      8          1           0       -0.988011    1.440017   -2.163888
      9         14           0        0.925745   -2.204526   -0.894758
     10          1           0        0.916894   -1.530720    2.203296
     11          1           0        2.177875    0.067072    0.931766
     12          1           0       -0.311444   -3.022128   -0.897656
     13          1           0        2.095069   -3.114662   -0.833060
     14          1           0        0.988011   -1.440017   -2.163888
 ---------------------------------------------------------------------

 SCF Done:  E(RHF) =  -1162.19579876     A.U. after    2 cycles

 The electronic state is 1-A.
 Alpha  occ. eigenvalues --  -76.21992 -76.21985 -76.21714 -76.21701  -5.55383
 Alpha  occ. eigenvalues --   -5.55383  -5.55242  -5.55226  -2.17518  -2.17478
 Alpha  occ. eigenvalues --   -2.17465  -2.17424  -2.17386  -2.17260  -2.17130
 Alpha  occ. eigenvalues --   -2.17082  -2.16808  -2.15991  -2.15854  -2.15789
 Alpha  occ. eigenvalues --   -0.83928  -0.79240  -0.73395  -0.67576  -0.49294
 Alpha  occ. eigenvalues --   -0.48751  -0.47797  -0.47436  -0.46432  -0.46297
 Alpha  occ. eigenvalues --   -0.39929  -0.35327  -0.31209
 Alpha virt. eigenvalues --    0.04114   0.04585   0.04736   0.04977   0.06699
 Alpha virt. eigenvalues --    0.06961   0.07260   0.07724   0.08169   0.08433
 Alpha virt. eigenvalues --    0.08604   0.08883   0.09097   0.09101   0.09149

 Mulliken charges:
               1
     1  Si   3.053195
     2  Si   3.053195
     3  Si   4.983922
     4  H   -1.734931
     5  H   -1.629970
     6  H   -1.549793
     7  H   -1.597567
     8  H   -1.524856
     9  Si   4.983922
    10  H   -1.734931
    11  H   -1.629970
    12  H   -1.549793
    13  H   -1.597567
    14  H   -1.524856
 Sum of Mulliken charges =  -0.00000

 Dipole moment (field-independent basis, Debye):
    X=             -0.0000    Y=              0.0000    Z=              0.0957  Tot=              0.0957

 Test job not archived.
 1\1\GINC-SE403\SP\RHF\Aug-CC-pVDZ\H10Si4\OHZDE\08-Apr-2025\0\\#t hf au
 g-cc-pvdz iop(5/13=1,5/36=2,99/5=2) pseudo=read geom=check guess=(read
 ,tcheck) scf=(maxcycle=1)\\title\\0,1\Si,0,0.925745,-0.733229,0.949011
 \Si,0,-0.925745,0.733229,0.949011\Si,0,-0.925745,2.204526,-0.894758\H,
 0,-0.916894,1.53072,2.203296\H,0,-2.177875,-0.067072,0.931766\H,0,0.31
 1444,3.022128,-0.897656\H,0,-2.095069,3.114662,-0.83306\H,0,-0.988011,
 1.440017,-2.163888\Si,0,0.925745,-2.204526,-0.894758\H,0,0.916894,-1.5
 3072,2.203296\H,0,2.177875,0.067072,0.931766\H,0,-0.311444,-3.022128,-

 Normal termination of Gaussian 16 at Tue Apr  8 22:59:55 2025.
