 Gaussian 16, Revision C.01,

 ----------------------------------------------------------------------
 #t hf aug-cc-pvdz symm=none int=(grid=ultrafine) guess=(read,tcheck) s
 table=(opt,rrhf)
 ----------------------------------------------------------------------
 -----
 title
 -----
 Symbolic Z-matrix:
 Charge =  0 Multiplicity = 1

 SCF Done:  E(RHF) =  -351.412414683     A.U. after   10 cycles
 Normal termination of Gaussian 16 at Wed Apr  9 00:04:30 2025.
 Gaussian 16:  ES64L-G16RevC.01  3-Jul-2019

 ----------------------------------------------------------------------
 #t hf aug-cc-pvdz iop(5/13=1,5/36=2,99/5=2) pseudo=read geom=check gue
 ss=(read,tcheck) scf=(maxcycle=1)
 ----------------------------------------------------------------------
 -----
 title
 -----
 Structure from the checkpoint file:  "BDE49_nonexpt_21_mol1.chk"
 Charge =  0 Multiplicity = 1

                         Standard orientation:
 ---------------------------------------------------------------------
 Center     Atomic      Atomic             Coordinates (Angstroms)
 Number     Number       Type             X           Y           Z
 ---------------------------------------------------------------------
      1          5           0        0.000000   -0.000000    0.855878
      2          5           0       -0.000000    0.000000   -0.855878
      3          8           0        1.204885    0.000030   -1.510513
      4          1           0        1.150904    0.000034   -2.473063
      5          8           0        0.000000    1.204885    1.510513
      6          1           0        0.000005    1.150904    2.473063
      7          8           0       -1.204885   -0.000030   -1.510513
      8          1           0       -1.150904   -0.000034   -2.473063
      9          8           0       -0.000000   -1.204885    1.510513
     10          1           0       -0.000005   -1.150904    2.473063
 ---------------------------------------------------------------------

 SCF Done:  E(RHF) =  -352.838145762     A.U. after    2 cycles

 The electronic state is 1-A.
 Alpha  occ. eigenvalues --  -21.05777 -21.05766 -21.05721 -21.05721  -7.61554
 Alpha  occ. eigenvalues --   -7.61292  -1.80671  -1.80248  -1.64916  -1.64916
 Alpha  occ. eigenvalues --   -0.82651  -0.69615  -0.65792  -0.65792  -0.53686
 Alpha  occ. eigenvalues --   -0.52190  -0.47397  -0.47397  -0.38203  -0.36619
 Alpha  occ. eigenvalues --   -0.36548  -0.36548  -0.34917
 Alpha virt. eigenvalues --    0.01901   0.04020   0.04899   0.04899   0.08439
 Alpha virt. eigenvalues --    0.08439   0.08971   0.09002   0.09577   0.09577
 Alpha virt. eigenvalues --    0.10448   0.11591   0.18976   0.18976   0.20064

 Mulliken charges:
               1
     1  B    5.012883
     2  B    5.012883
     3  O   -3.723697
     4  H    1.217255
     5  O   -3.723697
     6  H    1.217255
     7  O   -3.723697
     8  H    1.217255
     9  O   -3.723697
    10  H    1.217255
 Sum of Mulliken charges =   0.00000

 Dipole moment (field-independent basis, Debye):
    X=             -0.0000    Y=              0.0000    Z=             -0.0000  Tot=              0.0000

 Test job not archived.
 1\1\GINC-SE457\SP\RHF\Aug-CC-pVDZ\B2H4O4\OHZDE\09-Apr-2025\0\\#t hf au
 g-cc-pvdz iop(5/13=1,5/36=2,99/5=2) pseudo=read geom=check guess=(read
 ,tcheck) scf=(maxcycle=1)\\title\\0,1\B,0,0.,0.,0.855878\B,0,0.,0.,-0.
 855878\O,0,0.,1.204885,-1.510513\H,0,-0.000005,1.150904,-2.473063\O,0,
 -1.204885,0.00003,1.510513\H,0,-1.150904,0.000034,2.473063\O,0,0.,-1.2
 04885,-1.510513\H,0,0.000005,-1.150904,-2.473063\O,0,1.204885,-0.00003
 ,1.510513\H,0,1.150904,-0.000034,2.473063\\Version=ES64L-G16RevC.01\St
 ate=1-A\HF=-352.8381458\RMSD=2.343e-01\Dipole=0.,0.,0.\Quadrupole=-4.0

 Normal termination of Gaussian 16 at Wed Apr  9 00:04:33 2025.
