 Gaussian 16, Revision C.01,

 ----------------------------------------------------------------------
 #t hf aug-cc-pvdz symm=none int=(grid=ultrafine) guess=(read,tcheck) s
 table=(opt,rrhf)
 ----------------------------------------------------------------------
 -----
 title
 -----
 Symbolic Z-matrix:
 Charge =  0 Multiplicity = 1

 SCF Done:  E(RHF) =  -907.698611784     A.U. after   15 cycles
 Normal termination of Gaussian 16 at Tue Apr  8 23:34:22 2025.
 Gaussian 16:  ES64L-G16RevC.01  3-Jul-2019

 ----------------------------------------------------------------------
 #t hf aug-cc-pvdz iop(5/13=1,5/36=2,99/5=2) pseudo=read geom=check gue
 ss=(read,tcheck) scf=(maxcycle=1)
 ----------------------------------------------------------------------
 -----
 title
 -----
 Structure from the checkpoint file:  "BDE49_nonexpt_1424_mol1.chk"
 Charge =  0 Multiplicity = 1

                         Standard orientation:
 ---------------------------------------------------------------------
 Center     Atomic      Atomic             Coordinates (Angstroms)
 Number     Number       Type             X           Y           Z
 ---------------------------------------------------------------------
      1          6           0        0.104475   -1.209624   -0.018522
      2          6           0       -1.286141   -1.205007    0.013603
      3          6           0       -2.002319   -0.001672    0.009631
      4          6           0        0.800568   -0.002416   -0.033836
      5          6           0        0.102725    1.205085   -0.020600
      6          6           0       -1.287552    1.202792   -0.003800
      7          1           0        0.646866   -2.146567   -0.029531
      8          1           0       -1.818060   -2.149812    0.044638
      9         15           0       -3.849656   -0.089337    0.070425
     10          6           0        2.304072    0.001186   -0.004279
     11          9           0        2.826766   -1.102168   -0.581578
     12          9           0        2.821173    1.072895   -0.643955
     13          9           0        2.779598    0.039497    1.263104
     14          1           0       -1.817820    2.147737   -0.007377
     15          1           0        0.645390    2.142033   -0.037556
     16          1           0       -4.088895    0.024695   -1.325352
     17          1           0       -4.085439    1.287883    0.307479
 ---------------------------------------------------------------------

 SCF Done:  E(RHF) =  -910.164596024     A.U. after    2 cycles

 The electronic state is 1-A.
 Alpha  occ. eigenvalues -- -105.19791 -29.30759 -29.30689 -29.30282 -11.61769
 Alpha  occ. eigenvalues --  -11.53705 -11.45956 -11.45733 -11.45039 -11.43185
 Alpha  occ. eigenvalues --  -11.38876  -2.76653  -1.52004  -1.46437  -1.45326
 Alpha  occ. eigenvalues --   -1.45073  -1.31454  -1.12174  -1.10113  -0.92508
 Alpha  occ. eigenvalues --   -0.89540  -0.87571  -0.84549  -0.77588  -0.75271
 Alpha  occ. eigenvalues --   -0.65535  -0.60706  -0.59227  -0.57363  -0.53249
 Alpha  occ. eigenvalues --   -0.47551  -0.47431  -0.43381  -0.43292  -0.39713
 Alpha  occ. eigenvalues --   -0.36429  -0.34726  -0.33213  -0.30173  -0.26771
 Alpha  occ. eigenvalues --   -0.25263  -0.24923  -0.24214  -0.21092  -0.03916
 Alpha virt. eigenvalues --    0.03389   0.05600   0.06196   0.06698   0.06975
 Alpha virt. eigenvalues --    0.07621   0.08439   0.09608   0.09796   0.10220
 Alpha virt. eigenvalues --    0.10931   0.11660   0.12420   0.12917   0.13199

 Mulliken charges:
               1
     1  C   -2.354903
     2  C   -3.459773
     3  C    2.325728
     4  C    2.015109
     5  C   -2.273290
     6  C   -3.265402
     7  H    1.873900
     8  H    1.913449
     9  P    0.625454
    10  C   -0.492743
    11  F    0.288201
    12  F    0.257682
    13  F    0.154557
    14  H    1.920215
    15  H    1.846414
    16  H   -0.463671
    17  H   -0.910926
 Sum of Mulliken charges =  -0.00000

 Dipole moment (field-independent basis, Debye):
    X=              1.2157    Y=             -1.6688    Z=              1.8278  Tot=              2.7575

 Test job not archived.
 1\1\GINC-SE424\SP\RHF\Aug-CC-pVDZ\C7H6F3P1\OHZDE\08-Apr-2025\0\\#t hf
 aug-cc-pvdz iop(5/13=1,5/36=2,99/5=2) pseudo=read geom=check guess=(re
 ad,tcheck) scf=(maxcycle=1)\\title\\0,1\C,0,0.104475,-1.209624,-0.0185
 22\C,0,-1.286141,-1.205007,0.013603\C,0,-2.002319,-0.001672,0.009631\C
 ,0,0.800568,-0.002416,-0.033836\C,0,0.102725,1.205085,-0.0206\C,0,-1.2
 87552,1.202792,-0.0038\H,0,0.646866,-2.146567,-0.029531\H,0,-1.81806,-
 2.149812,0.044638\P,0,-3.849656,-0.089337,0.070425\C,0,2.304072,0.0011
 86,-0.004279\F,0,2.826766,-1.102168,-0.581578\F,0,2.821173,1.072895,-0

 Normal termination of Gaussian 16 at Tue Apr  8 23:34:31 2025.
