 Gaussian 16, Revision C.01,

 ----------------------------------------------------------------------
 #t hf aug-cc-pvdz symm=none int=(grid=ultrafine) guess=(read,tcheck) s
 table=opt
 ----------------------------------------------------------------------
 -----
 title
 -----
 Symbolic Z-matrix:
 Charge =  0 Multiplicity = 2

 SCF Done:  E(UHF) =  -195.728556545     A.U. after   16 cycles
 Normal termination of Gaussian 16 at Tue Apr  8 22:44:58 2025.
 Gaussian 16:  ES64L-G16RevC.01  3-Jul-2019

 ----------------------------------------------------------------------
 #t hf aug-cc-pvdz iop(5/13=1,5/36=2,99/5=2) pseudo=read geom=check gue
 ss=(read,tcheck) scf=(maxcycle=1)
 ----------------------------------------------------------------------
 -----
 title
 -----
 Structure from the checkpoint file:  "BDE49_expt_1485_mol2.chk"
 Charge =  0 Multiplicity = 2

                         Standard orientation:
 ---------------------------------------------------------------------
 Center     Atomic      Atomic             Coordinates (Angstroms)
 Number     Number       Type             X           Y           Z
 ---------------------------------------------------------------------
      1          6           0        0.899938   -0.000000    0.698455
      2          6           0        1.912413   -0.000000   -0.472619
      3          6           0       -0.536130    0.000000    0.265849
      4          1           0        1.785284    0.883824   -1.103803
      5          1           0        1.785284   -0.883824   -1.103803
      6          1           0        2.940730   -0.000000   -0.098931
      7          6           0       -1.183027    1.285614   -0.143037
      8          1           0       -1.025963    1.512969   -1.212077
      9          1           0       -0.787617    2.136467    0.420474
     10          1           0       -2.268489    1.254807    0.004045
     11          6           0       -1.183027   -1.285614   -0.143037
     12          1           0       -1.025964   -1.512969   -1.212077
     13          1           0       -2.268489   -1.254806    0.004045
     14          1           0       -0.787618   -2.136467    0.420474
     15          1           0        1.095918    0.879551    1.323992
     16          1           0        1.095918   -0.879551    1.323991
 ---------------------------------------------------------------------

 SCF Done:  E(UHF) =  -196.739773448     A.U. after    2 cycles

 The electronic state is 2-A.
 Alpha  occ. eigenvalues --  -11.40704 -11.38567 -11.37338 -11.36047 -11.33660
 Alpha  occ. eigenvalues --   -1.26287  -1.08856  -1.00328  -0.90735  -0.76101
 Alpha  occ. eigenvalues --   -0.62209  -0.61854  -0.59201  -0.54708  -0.54654
 Alpha  occ. eigenvalues --   -0.52693  -0.48865  -0.48214  -0.44087  -0.42529
 Alpha  occ. eigenvalues --   -0.26804
 Alpha virt. eigenvalues --    0.03513   0.05589   0.05635   0.05961   0.06059
 Alpha virt. eigenvalues --    0.06205   0.06514   0.06516   0.08325   0.09361
 Alpha virt. eigenvalues --    0.09863   0.11435   0.13047   0.13753   0.15047

  Beta  occ. eigenvalues --  -11.40439 -11.37924 -11.37649 -11.35885 -11.32733
  Beta  occ. eigenvalues --   -1.23006  -1.07955  -1.00206  -0.89871  -0.71985
  Beta  occ. eigenvalues --   -0.61820  -0.59788  -0.56139  -0.54189  -0.54100
  Beta  occ. eigenvalues --   -0.51809  -0.47965  -0.47736  -0.43396  -0.41560
  Beta virt. eigenvalues --    0.03543   0.05373   0.05654   0.05973   0.06059
  Beta virt. eigenvalues --    0.06195   0.06460   0.06520   0.08304   0.09362
  Beta virt. eigenvalues --    0.09875   0.10726   0.12988   0.13265   0.14011

 Mulliken charges and spin densities:
               1          2
     1  C   -3.177829  -0.334467
     2  C   -3.810400   0.074023
     3  C    1.148584   2.000611
     4  H    1.390784  -0.009002
     5  H    1.390783  -0.009002
     6  H    1.149977   0.002381
     7  C   -4.187862  -0.414083
     8  H    1.262326   0.037840
     9  H    1.317054   0.002484
    10  H    1.222840   0.012390
    11  C   -4.187861  -0.414083
    12  H    1.262327   0.037840
    13  H    1.222840   0.012390
    14  H    1.317054   0.002484
    15  H    1.339690  -0.000903
    16  H    1.339692  -0.000903
 Sum of Mulliken charges =   0.00000   1.00000

 Dipole moment (field-independent basis, Debye):
    X=              0.0613    Y=             -0.0000    Z=             -0.0228  Tot=              0.0655
                          Isotropic Fermi Contact Couplings
        Atom                 a.u.       MegaHertz       Gauss      10(-4) cm-1
     1  C(13)             -0.03732     -41.95796     -14.97164     -13.99567
     2  C(13)              0.05067      56.96344      20.32597      19.00096
     3  C(13)              0.16091     180.88877      64.54561      60.33800
     4  H(1)              -0.00101      -4.51345      -1.61051      -1.50553
     5  H(1)              -0.00101      -4.51345      -1.61051      -1.50553
     6  H(1)               0.00068       3.03566       1.08320       1.01259
     7  C(13)             -0.03596     -40.42283     -14.42387     -13.48361
     8  H(1)               0.01956      87.45046      31.20450      29.17033

 Normal termination of Gaussian 16 at Tue Apr  8 22:45:02 2025.
