 Gaussian 16, Revision C.01,

 ----------------------------------------------------------------------
 #t hf aug-cc-pvdz symm=none int=(grid=ultrafine) guess=(read,tcheck) s
 table=opt
 ----------------------------------------------------------------------
 -----
 title
 -----
 Symbolic Z-matrix:
 Charge =  0 Multiplicity = 2

 SCF Done:  E(UHF) =  -524.874912074     A.U. after   15 cycles
 Normal termination of Gaussian 16 at Tue Apr  8 23:14:28 2025.
 Gaussian 16:  ES64L-G16RevC.01  3-Jul-2019

 ----------------------------------------------------------------------
 #t hf aug-cc-pvdz iop(5/13=1,5/36=2,99/5=2) pseudo=read geom=check gue
 ss=(read,tcheck) scf=(maxcycle=1)
 ----------------------------------------------------------------------
 -----
 title
 -----
 Structure from the checkpoint file:  "BDE49_expt_801_mol2.chk"
 Charge =  0 Multiplicity = 2

                         Standard orientation:
 ---------------------------------------------------------------------
 Center     Atomic      Atomic             Coordinates (Angstroms)
 Number     Number       Type             X           Y           Z
 ---------------------------------------------------------------------
      1         14           0       -0.566334    0.199147    0.000000
      2          6           0       -0.640967   -0.899585    1.550810
      3          6           0       -0.640967   -0.152216    2.894849
      4          1           0       -0.689315   -0.845914    3.739714
      5          1           0       -1.496894    0.524067    2.974341
      6          1           0        0.262942    0.450761    3.021192
      7          1           0        0.209607   -1.595154    1.510774
      8          1           0       -1.536867   -1.526180    1.472489
      9          6           0       -0.640967   -0.899585   -1.550810
     10          6           0       -0.640967   -0.152216   -2.894849
     11          1           0        0.262942    0.450761   -3.021192
     12          1           0       -1.496894    0.524067   -2.974341
     13          1           0       -0.689315   -0.845914   -3.739714
     14          1           0       -1.536867   -1.526180   -1.472489
     15          1           0        0.209607   -1.595154   -1.510774
     16          6           0        0.989682    1.294834   -0.000000
     17          6           0        2.327072    0.525556   -0.000000
     18          1           0        2.424460   -0.114504   -0.881532
     19          1           0        2.424460   -0.114504    0.881532
     20          1           0        3.180134    1.211888   -0.000000
     21          1           0        0.941681    1.956588    0.871981
     22          1           0        0.941681    1.956588   -0.871981
 ---------------------------------------------------------------------

 SCF Done:  E(UHF) =  -526.261758598     A.U. after    2 cycles

 The electronic state is 2-A'.
 Alpha  occ. eigenvalues --  -76.18984 -11.39167 -11.39067 -11.38889 -11.34531
 Alpha  occ. eigenvalues --  -11.34222 -11.33873  -5.52841  -2.17053  -2.16880
 Alpha  occ. eigenvalues --   -2.15101  -1.16762  -1.13067  -1.12755  -0.90473
 Alpha  occ. eigenvalues --   -0.87841  -0.87135  -0.66215  -0.61293  -0.61125
 Alpha  occ. eigenvalues --   -0.59231  -0.57045  -0.57016  -0.53227  -0.50395
 Alpha  occ. eigenvalues --   -0.49313  -0.48783  -0.48730  -0.47766  -0.47289
 Alpha  occ. eigenvalues --   -0.36136  -0.36065  -0.24144
 Alpha virt. eigenvalues --    0.03764   0.04784   0.05393   0.05626   0.05809
 Alpha virt. eigenvalues --    0.05972   0.06144   0.06315   0.06772   0.07606
 Alpha virt. eigenvalues --    0.07656   0.07956   0.08475   0.08984   0.09269

  Beta  occ. eigenvalues --  -76.18478 -11.39100 -11.39045 -11.38854 -11.34464
  Beta  occ. eigenvalues --  -11.34176 -11.33816  -5.52047  -2.16496  -2.16323
  Beta  occ. eigenvalues --   -2.11743  -1.16223  -1.12934  -1.12524  -0.89755
  Beta  occ. eigenvalues --   -0.87633  -0.86947  -0.63479  -0.61189  -0.60529
  Beta  occ. eigenvalues --   -0.58990  -0.56935  -0.56823  -0.52220  -0.49641
  Beta  occ. eigenvalues --   -0.49011  -0.48688  -0.48445  -0.47717  -0.47121
  Beta  occ. eigenvalues --   -0.35429  -0.35393
  Beta virt. eigenvalues --    0.03258   0.04879   0.04998   0.05558   0.05886
  Beta virt. eigenvalues --    0.05936   0.06154   0.06335   0.06782   0.07660
  Beta virt. eigenvalues --    0.07681   0.08004   0.08021   0.08711   0.09058

 Mulliken charges and spin densities:
               1          2
     1  Si   5.173928   1.556612
     2  C   -4.061026  -0.212874
     3  C   -4.245584   0.060414
     4  H    1.091606   0.005926
     5  H    1.330403  -0.026792
     6  H    1.341715  -0.011643
     7  H    1.388003  -0.019364
     8  H    1.400137  -0.046248
     9  C   -4.061026  -0.212874
    10  C   -4.245584   0.060414
    11  H    1.341715  -0.011643
    12  H    1.330403  -0.026792
    13  H    1.091606   0.005926
    14  H    1.400137  -0.046248
    15  H    1.388003  -0.019364
    16  C   -4.293490  -0.050795
    17  C   -3.955739   0.042399
    18  H    1.357547  -0.003329
    19  H    1.357547  -0.003329
    20  H    1.168658   0.006511
    21  H    1.350522  -0.023452
    22  H    1.350522  -0.023452
 Sum of Mulliken charges =  -0.00000   1.00000

 Dipole moment (field-independent basis, Debye):
    X=              0.4395    Y=             -0.3363    Z=             -0.0000  Tot=              0.5534
                          Isotropic Fermi Contact Couplings
        Atom                 a.u.       MegaHertz       Gauss      10(-4) cm-1
     1  Si(29)             0.38144    -338.99959    -120.96349    -113.07809
     2  C(13)              0.01694      19.04845       6.79696       6.35388
     3  C(13)              0.00177       1.98876       0.70964       0.66338
     4  H(1)              -0.00031      -1.38615      -0.49461      -0.46237
     5  H(1)              -0.00024      -1.06507      -0.38004      -0.35527
     6  H(1)              -0.00006      -0.28977      -0.10340      -0.09666
     7  H(1)               0.00545      24.35149       8.68922       8.12278
     8  H(1)               0.00006       0.28348       0.10115       0.09456

 Normal termination of Gaussian 16 at Tue Apr  8 23:14:37 2025.
