 Gaussian 16, Revision C.01,

 ----------------------------------------------------------------------
 #t hf aug-cc-pvdz symm=none int=(grid=ultrafine) guess=(read,tcheck) s
 table=(opt,rrhf)
 ----------------------------------------------------------------------
 -----
 title
 -----
 Symbolic Z-matrix:
 Charge =  0 Multiplicity = 1

 SCF Done:  E(RHF) =  -701.112760866     A.U. after   15 cycles
 Normal termination of Gaussian 16 at Tue Apr  8 23:34:53 2025.
 Gaussian 16:  ES64L-G16RevC.01  3-Jul-2019

 ----------------------------------------------------------------------
 #t hf aug-cc-pvdz iop(5/13=1,5/36=2,99/5=2) pseudo=read geom=check gue
 ss=(read,tcheck) scf=(maxcycle=1)
 ----------------------------------------------------------------------
 -----
 title
 -----
 Structure from the checkpoint file:  "BDE49_nonexpt_1448_mol1.chk"
 Charge =  0 Multiplicity = 1

                         Standard orientation:
 ---------------------------------------------------------------------
 Center     Atomic      Atomic             Coordinates (Angstroms)
 Number     Number       Type             X           Y           Z
 ---------------------------------------------------------------------
      1          6           0        1.608559   -0.213513   -0.270711
      2          8           0        1.080182   -0.926248   -1.097246
      3          7           0        0.965937    0.903229    0.249462
      4          6           0       -1.537237   -0.292170    0.357595
      5          6           0        2.995578   -0.473505    0.285131
      6          6           0       -2.701617   -0.711910   -0.510208
      7          8           0       -1.181014   -0.897058    1.337246
      8          1           0        3.530766   -1.130502   -0.397703
      9          1           0        2.901510   -0.975966    1.252449
     10          1           0        3.562862    0.448480    0.432788
     11          1           0       -3.303109    0.147740   -0.820576
     12          1           0       -3.320531   -1.433396    0.024339
     13          1           0       -2.297986   -1.179298   -1.413908
     14         15           0       -0.667322    1.332346   -0.092424
     15          1           0        1.446712    1.431973    0.961500
     16          1           0       -0.656999    1.116210   -1.489601
 ---------------------------------------------------------------------

 SCF Done:  E(RHF) =  -702.909016185     A.U. after    2 cycles

 The electronic state is 1-A.
 Alpha  occ. eigenvalues -- -105.21143 -21.05971 -21.03726 -15.76912 -11.51093
 Alpha  occ. eigenvalues --  -11.48593 -11.39598 -11.38986  -2.78994  -1.72032
 Alpha  occ. eigenvalues --   -1.71587  -1.58017  -1.48405  -1.47440  -1.27784
 Alpha  occ. eigenvalues --   -1.10859  -1.08512  -0.83487  -0.76999  -0.69727
 Alpha  occ. eigenvalues --   -0.65171  -0.61571  -0.59556  -0.59281  -0.56991
 Alpha  occ. eigenvalues --   -0.53024  -0.50415  -0.49238  -0.42830  -0.40714
 Alpha  occ. eigenvalues --   -0.35213  -0.34002  -0.26802  -0.18209  -0.03269
 Alpha virt. eigenvalues --    0.03615   0.04832   0.05642   0.06443   0.06831
 Alpha virt. eigenvalues --    0.07066   0.07270   0.07602   0.09294   0.10460
 Alpha virt. eigenvalues --    0.10681   0.12053   0.12827   0.13198   0.13911

 Mulliken charges:
               1
     1  C    4.522092
     2  O   -3.181818
     3  N   -2.249705
     4  C    1.658809
     5  C   -4.193157
     6  C   -4.030102
     7  O   -3.136140
     8  H    1.180500
     9  H    1.223917
    10  H    1.224832
    11  H    1.384479
    12  H    1.221549
    13  H    1.292611
    14  P    3.352506
    15  H    0.734226
    16  H   -1.004598
 Sum of Mulliken charges =  -0.00000

 Dipole moment (field-independent basis, Debye):
    X=              1.2753    Y=              0.9736    Z=              0.5765  Tot=              1.7049

 Test job not archived.
 1\1\GINC-SE219\SP\RHF\Aug-CC-pVDZ\C4H8N1O2P1\OHZDE\08-Apr-2025\0\\#t h
 f aug-cc-pvdz iop(5/13=1,5/36=2,99/5=2) pseudo=read geom=check guess=(
 read,tcheck) scf=(maxcycle=1)\\title\\0,1\C,0,1.608559,-0.213513,-0.27
 0711\O,0,1.080182,-0.926248,-1.097246\N,0,0.965937,0.903229,0.249462\C
 ,0,-1.537237,-0.29217,0.357595\C,0,2.995578,-0.473505,0.285131\C,0,-2.
 701617,-0.71191,-0.510208\O,0,-1.181014,-0.897058,1.337246\H,0,3.53076
 6,-1.130502,-0.397703\H,0,2.90151,-0.975966,1.252449\H,0,3.562862,0.44
 848,0.432788\H,0,-3.303109,0.14774,-0.820576\H,0,-3.320531,-1.433396,0

 Normal termination of Gaussian 16 at Tue Apr  8 23:35:00 2025.
