 Gaussian 16, Revision C.01,

 ----------------------------------------------------------------------
 #t hf aug-cc-pvdz symm=none int=(grid=ultrafine) guess=(read,tcheck) s
 table=(opt,rrhf)
 ----------------------------------------------------------------------
 -----
 title
 -----
 Symbolic Z-matrix:
 Charge =  0 Multiplicity = 1

 SCF Done:  E(RHF) =  -291.882299045     A.U. after   14 cycles
 Normal termination of Gaussian 16 at Tue Apr  8 23:20:59 2025.
 Gaussian 16:  ES64L-G16RevC.01  3-Jul-2019

 ----------------------------------------------------------------------
 #t hf aug-cc-pvdz iop(5/13=1,5/36=2,99/5=2) pseudo=read geom=check gue
 ss=(read,tcheck) scf=(maxcycle=1)
 ----------------------------------------------------------------------
 -----
 title
 -----
 Structure from the checkpoint file:  "BDE49_nonexpt_1120_mol1.chk"
 Charge =  0 Multiplicity = 1

                         Standard orientation:
 ---------------------------------------------------------------------
 Center     Atomic      Atomic             Coordinates (Angstroms)
 Number     Number       Type             X           Y           Z
 ---------------------------------------------------------------------
      1          9           0        1.896514   -0.158216    0.103480
      2          8           0        0.632148   -0.726031   -0.326850
      3          6           0       -0.390367    0.028091    0.340011
      4          6           0       -0.409887    1.479226   -0.120015
      5          1           0        0.547413    1.956891    0.089574
      6          1           0       -1.193510    2.031660    0.405504
      7          1           0       -0.600665    1.536216   -1.194769
      8          6           0       -1.657883   -0.749572   -0.011468
      9          1           0       -0.199345   -0.035633    1.416938
     10          1           0       -1.827399   -0.745143   -1.090666
     11          1           0       -2.513028   -0.274928    0.474791
     12          1           0       -1.590455   -1.783344    0.330938
 ---------------------------------------------------------------------

 SCF Done:  E(RHF) =  -293.128103516     A.U. after    2 cycles

 The electronic state is 1-A.
 Alpha  occ. eigenvalues --  -29.27360 -21.14030 -11.46149 -11.40379 -11.37243
 Alpha  occ. eigenvalues --   -1.79320  -1.18439  -1.03026  -0.85849  -0.72259
 Alpha  occ. eigenvalues --   -0.64019  -0.62258  -0.55823  -0.55407  -0.52254
 Alpha  occ. eigenvalues --   -0.49615  -0.47028  -0.42301  -0.33819  -0.24687
 Alpha  occ. eigenvalues --   -0.20768
 Alpha virt. eigenvalues --    0.03765   0.05501   0.05745   0.05868   0.06136
 Alpha virt. eigenvalues --    0.06732   0.07100   0.11748   0.12811   0.14184
 Alpha virt. eigenvalues --    0.14559   0.15228   0.15704   0.17324   0.17825

 Mulliken charges:
               1
     1  F   -0.243502
     2  O   -1.544615
     3  C   -0.345229
     4  C   -3.568675
     5  H    1.205602
     6  H    1.233888
     7  H    1.207467
     8  C   -3.294255
     9  H    1.630704
    10  H    1.218164
    11  H    1.284574
    12  H    1.215877
 Sum of Mulliken charges =  -0.00000

 Dipole moment (field-independent basis, Debye):
    X=              0.0233    Y=              0.6819    Z=              0.5745  Tot=              0.8920

 Test job not archived.
 1\1\GINC-SE222\SP\RHF\Aug-CC-pVDZ\C3H7F1O1\OHZDE\08-Apr-2025\0\\#t hf
 aug-cc-pvdz iop(5/13=1,5/36=2,99/5=2) pseudo=read geom=check guess=(re
 ad,tcheck) scf=(maxcycle=1)\\title\\0,1\F,0,1.896514,-0.158216,0.10348
 \O,0,0.632148,-0.726031,-0.32685\C,0,-0.390367,0.028091,0.340011\C,0,-
 0.409887,1.479226,-0.120015\H,0,0.547414,1.956891,0.089574\H,0,-1.1935
 09,2.03166,0.405504\H,0,-0.600665,1.536216,-1.194769\C,0,-1.657883,-0.
 749571,-0.011468\H,0,-0.199345,-0.035633,1.416938\H,0,-1.827399,-0.745
 142,-1.090666\H,0,-2.513028,-0.274927,0.474791\H,0,-1.590455,-1.783343

 Normal termination of Gaussian 16 at Tue Apr  8 23:21:02 2025.
