 Gaussian 16, Revision C.01,

 ----------------------------------------------------------------------
 #t hf aug-cc-pvdz symm=none int=(grid=ultrafine) guess=(read,tcheck) s
 table=(opt,rrhf)
 ----------------------------------------------------------------------
 -----
 title
 -----
 Symbolic Z-matrix:
 Charge =  0 Multiplicity = 1

 SCF Done:  E(RHF) =  -932.851027347     A.U. after   16 cycles
 Normal termination of Gaussian 16 at Tue Apr  8 23:32:47 2025.
 Gaussian 16:  ES64L-G16RevC.01  3-Jul-2019

 ----------------------------------------------------------------------
 #t hf aug-cc-pvdz iop(5/13=1,5/36=2,99/5=2) pseudo=read geom=check gue
 ss=(read,tcheck) scf=(maxcycle=1)
 ----------------------------------------------------------------------
 -----
 title
 -----
 Structure from the checkpoint file:  "BDE49_nonexpt_1388_mol1.chk"
 Charge =  0 Multiplicity = 1

                         Standard orientation:
 ---------------------------------------------------------------------
 Center     Atomic      Atomic             Coordinates (Angstroms)
 Number     Number       Type             X           Y           Z
 ---------------------------------------------------------------------
      1          6           0       -1.862141   -0.823202    0.063075
      2          6           0       -1.895659    0.480570   -0.747130
      3         15           0       -0.129428   -1.507979    0.264986
      4          1           0       -2.458817   -1.605214   -0.415047
      5          1           0       -2.286872   -0.679461    1.061686
      6          6           0        0.813200    0.065911    0.222445
      7          6           0        0.050884    1.218200    0.823533
      8          6           0       -1.159991    1.648221   -0.055198
      9          1           0        0.718101    2.064751    0.990274
     10          1           0       -0.325712    0.896702    1.803690
     11          1           0       -0.809719    2.350827   -0.815340
     12          1           0       -1.852452    2.200256    0.587121
     13          1           0       -2.932570    0.775109   -0.940031
     14          1           0       -1.442670    0.290188   -1.725058
     15         16           0        2.346551    0.167976   -0.330710
     16          1           0        0.109560   -1.899298   -1.071078
 ---------------------------------------------------------------------

 SCF Done:  E(RHF) =  -934.241381132     A.U. after    2 cycles

 The electronic state is 1-A.
 Alpha  occ. eigenvalues -- -105.18602 -75.66483 -13.15823 -13.01990 -12.98481
 Alpha  occ. eigenvalues --  -11.47961 -11.45739 -11.42221 -11.39636 -11.37225
 Alpha  occ. eigenvalues --   -8.00604  -2.76514  -1.50494  -1.49339  -1.45475
 Alpha  occ. eigenvalues --   -1.28023  -1.15743  -1.06917  -0.96193  -0.84087
 Alpha  occ. eigenvalues --   -0.78116  -0.67107  -0.65506  -0.63470  -0.57720
 Alpha  occ. eigenvalues --   -0.55338  -0.50897  -0.47653  -0.46233  -0.45083
 Alpha  occ. eigenvalues --   -0.33802  -0.29052  -0.23909  -0.16437  -0.02288
 Alpha virt. eigenvalues --    0.03301   0.05326   0.05465   0.05598   0.06007
 Alpha virt. eigenvalues --    0.06066   0.06323   0.06841   0.07314   0.08618
 Alpha virt. eigenvalues --    0.09359   0.10388   0.11784   0.12411   0.12644

 Mulliken charges:
               1
     1  C   -3.286689
     2  C   -3.250468
     3  P    3.809323
     4  H    1.297216
     5  H    1.374789
     6  C   -0.779686
     7  C   -3.998899
     8  C   -2.823695
     9  H    1.301875
    10  H    1.246767
    11  H    1.351548
    12  H    1.343175
    13  H    1.127593
    14  H    1.417748
    15  S    0.392871
    16  H   -0.523470
 Sum of Mulliken charges =  -0.00000

 Dipole moment (field-independent basis, Debye):
    X=             -2.0852    Y=             -1.9531    Z=              0.5101  Tot=              2.9022

 Test job not archived.
 1\1\GINC-SE162\SP\RHF\Aug-CC-pVDZ\C5H9P1S1\OHZDE\08-Apr-2025\0\\#t hf
 aug-cc-pvdz iop(5/13=1,5/36=2,99/5=2) pseudo=read geom=check guess=(re
 ad,tcheck) scf=(maxcycle=1)\\title\\0,1\C,0,-1.862141,-0.823202,0.0630
 75\C,0,-1.895659,0.48057,-0.74713\P,0,-0.129428,-1.507979,0.264986\H,0
 ,-2.458817,-1.605214,-0.415047\H,0,-2.286872,-0.679461,1.061686\C,0,0.
 8132,0.065911,0.222445\C,0,0.050884,1.2182,0.823533\C,0,-1.159991,1.64
 8221,-0.055198\H,0,0.718101,2.064751,0.990274\H,0,-0.325712,0.896702,1
 .80369\H,0,-0.809719,2.350827,-0.81534\H,0,-1.852452,2.200256,0.587121

 Normal termination of Gaussian 16 at Tue Apr  8 23:32:54 2025.
