 Gaussian 16, Revision C.01,

 ----------------------------------------------------------------------
 #t hf aug-cc-pvdz symm=none int=(grid=ultrafine) guess=(read,tcheck) s
 table=(opt,rrhf)
 ----------------------------------------------------------------------
 -----
 title
 -----
 Symbolic Z-matrix:
 Charge =  0 Multiplicity = 1

 SCF Done:  E(RHF) =  -476.770621648     A.U. after   12 cycles
 Normal termination of Gaussian 16 at Tue Apr  8 23:14:48 2025.
 Gaussian 16:  ES64L-G16RevC.01  3-Jul-2019

 ----------------------------------------------------------------------
 #t hf aug-cc-pvdz iop(5/13=1,5/36=2,99/5=2) pseudo=read geom=check gue
 ss=(read,tcheck) scf=(maxcycle=1)
 ----------------------------------------------------------------------
 -----
 title
 -----
 Structure from the checkpoint file:  "BDE49_expt_827_mol1.chk"
 Charge =  0 Multiplicity = 1

                         Standard orientation:
 ---------------------------------------------------------------------
 Center     Atomic      Atomic             Coordinates (Angstroms)
 Number     Number       Type             X           Y           Z
 ---------------------------------------------------------------------
      1          6           0       -1.650743   -0.350884   -0.051973
      2          6           0       -0.502966    0.643054    0.090315
      3          1           0       -1.625417   -1.101253    0.742530
      4          1           0       -1.600570   -0.873834   -1.009095
      5          1           0       -2.612860    0.168627    0.008953
      6         16           0        1.171812   -0.100678   -0.081327
      7          1           0       -0.551315    1.178330    1.039973
      8          1           0       -0.537289    1.392182   -0.704036
      9          1           0        1.100720   -0.906230    0.992849
 ---------------------------------------------------------------------

 SCF Done:  E(RHF) =  -477.419513308     A.U. after    2 cycles

 The electronic state is 1-A.
 Alpha  occ. eigenvalues --  -75.68023 -13.11392 -13.07879 -13.01163 -11.41916
 Alpha  occ. eigenvalues --  -11.36967  -8.01890  -1.22324  -1.04193  -0.86872
 Alpha  occ. eigenvalues --   -0.63656  -0.58662  -0.53023  -0.50889  -0.46960
 Alpha  occ. eigenvalues --   -0.37479  -0.23563
 Alpha virt. eigenvalues --    0.03069   0.04701   0.05332   0.05798   0.06528
 Alpha virt. eigenvalues --    0.07499   0.10028   0.12093   0.13148   0.13994
 Alpha virt. eigenvalues --    0.15250   0.15877   0.16951   0.17650   0.18804

 Mulliken charges:
               1
     1  C   -3.272579
     2  C   -4.000783
     3  H    1.199475
     4  H    1.316416
     5  H    1.217395
     6  S   -0.367072
     7  H    1.427409
     8  H    1.490657
     9  H    0.989083
 Sum of Mulliken charges =  -0.00000

 Dipole moment (field-independent basis, Debye):
    X=             -0.1161    Y=              0.7331    Z=             -0.6642  Tot=              0.9960

 Test job not archived.
 1\1\GINC-SE328\SP\RHF\Aug-CC-pVDZ\C2H6S1\OHZDE\08-Apr-2025\0\\#t hf au
 g-cc-pvdz iop(5/13=1,5/36=2,99/5=2) pseudo=read geom=check guess=(read
 ,tcheck) scf=(maxcycle=1)\\title\\0,1\C,0,-1.650743,-0.350884,-0.05197
 3\C,0,-0.502966,0.643054,0.090315\H,0,-1.625417,-1.101253,0.74253\H,0,
 -1.60057,-0.873834,-1.009095\H,0,-2.61286,0.168627,0.008953\S,0,1.1718
 12,-0.100678,-0.081327\H,0,-0.551314,1.17833,1.039973\H,0,-0.537288,1.
 392182,-0.704036\H,0,1.10072,-0.90623,0.992849\\Version=ES64L-G16RevC.
 01\State=1-A\HF=-477.4195133\RMSD=1.631e-01\Dipole=-0.0456891,0.288416

 Normal termination of Gaussian 16 at Tue Apr  8 23:14:50 2025.
