 Gaussian 16, Revision C.01,

 ----------------------------------------------------------------------
 #t hf aug-cc-pvdz symm=none int=(grid=ultrafine) guess=(read,tcheck) s
 table=(opt,rrhf)
 ----------------------------------------------------------------------
 -----
 title
 -----
 Symbolic Z-matrix:
 Charge =  0 Multiplicity = 1

 SCF Done:  E(RHF) =  -802.699525404     A.U. after   13 cycles
 Normal termination of Gaussian 16 at Wed Apr  9 00:07:29 2025.
 Gaussian 16:  ES64L-G16RevC.01  3-Jul-2019

 ----------------------------------------------------------------------
 #t hf aug-cc-pvdz iop(5/13=1,5/36=2,99/5=2) pseudo=read geom=check gue
 ss=(read,tcheck) scf=(maxcycle=1)
 ----------------------------------------------------------------------
 -----
 title
 -----
 Structure from the checkpoint file:  "BDE49_nonexpt_2263_mol1.chk"
 Charge =  0 Multiplicity = 1

                         Standard orientation:
 ---------------------------------------------------------------------
 Center     Atomic      Atomic             Coordinates (Angstroms)
 Number     Number       Type             X           Y           Z
 ---------------------------------------------------------------------
      1          6           0       -1.966457    0.848504   -0.008949
      2         16           0       -0.999520   -0.670367   -0.157935
      3          1           0       -1.490716    1.681602   -0.527221
      4          1           0       -2.129690    1.088710    1.041986
      5          1           0       -2.927977    0.630439   -0.482787
      6          8           0        0.387942   -0.205441    0.707580
      7         14           0        1.765958    0.206103   -0.143787
      8          1           0        2.748848    0.582688    0.891754
      9          1           0        1.501609    1.346759   -1.050569
     10          1           0        2.262038   -0.937266   -0.940132
 ---------------------------------------------------------------------

 SCF Done:  E(RHF) =  -803.617170843     A.U. after    2 cycles

 The electronic state is 1-A.
 Alpha  occ. eigenvalues --  -76.24177 -75.72742 -21.06442 -13.17929 -13.11382
 Alpha  occ. eigenvalues --  -13.07261 -11.40183  -8.06323  -5.57682  -2.23825
 Alpha  occ. eigenvalues --   -2.19456  -2.19212  -1.70736  -1.15707  -0.92740
 Alpha  occ. eigenvalues --   -0.75378  -0.60419  -0.59923  -0.53095  -0.50842
 Alpha  occ. eigenvalues --   -0.47945  -0.45846  -0.42149  -0.34754  -0.21609
 Alpha virt. eigenvalues --    0.03121   0.04499   0.05409   0.05791   0.06883
 Alpha virt. eigenvalues --    0.07453   0.07555   0.09758   0.10044   0.10383
 Alpha virt. eigenvalues --    0.12395   0.13068   0.14967   0.15687   0.16415

 Mulliken charges:
               1
     1  C   -4.757091
     2  S    1.420837
     3  H    1.437624
     4  H    1.385259
     5  H    1.378134
     6  O   -2.301697
     7  Si   6.440277
     8  H   -1.647495
     9  H   -1.634731
    10  H   -1.721116
 Sum of Mulliken charges =   0.00000

 Dipole moment (field-independent basis, Debye):
    X=             -0.9727    Y=             -0.3839    Z=              0.1817  Tot=              1.0614

 Test job not archived.
 1\1\GINC-SE334\SP\RHF\Aug-CC-pVDZ\C1H6O1S1Si1\OHZDE\09-Apr-2025\0\\#t
 hf aug-cc-pvdz iop(5/13=1,5/36=2,99/5=2) pseudo=read geom=check guess=
 (read,tcheck) scf=(maxcycle=1)\\title\\0,1\C,0,-1.966457,0.848505,-0.0
 08949\S,0,-0.99952,-0.670367,-0.157935\H,0,-1.490716,1.681602,-0.52722
 1\H,0,-2.12969,1.088711,1.041986\H,0,-2.927977,0.63044,-0.482787\O,0,0
 .387942,-0.205441,0.70758\Si,0,1.765958,0.206103,-0.143787\H,0,2.74884
 8,0.582687,0.891754\H,0,1.501609,1.346759,-1.050569\H,0,2.262038,-0.93
 7266,-0.940132\\Version=ES64L-G16RevC.01\State=1-A\HF=-803.6171708\RMS

 Normal termination of Gaussian 16 at Wed Apr  9 00:07:32 2025.
