 Gaussian 16, Revision C.01,

 ----------------------------------------------------------------------
 #t hf aug-cc-pvdz symm=none int=(grid=ultrafine) guess=(read,tcheck) s
 table=(opt,rrhf)
 ----------------------------------------------------------------------
 -----
 title
 -----
 Symbolic Z-matrix:
 Charge =  0 Multiplicity = 1

 SCF Done:  E(RHF) =  -1061.49071662     A.U. after   12 cycles
 Normal termination of Gaussian 16 at Tue Apr  8 23:50:36 2025.
 Gaussian 16:  ES64L-G16RevC.01  3-Jul-2019

 ----------------------------------------------------------------------
 #t hf aug-cc-pvdz iop(5/13=1,5/36=2,99/5=2) pseudo=read geom=check gue
 ss=(read,tcheck) scf=(maxcycle=1)
 ----------------------------------------------------------------------
 -----
 title
 -----
 Structure from the checkpoint file:  "BDE49_nonexpt_183_mol1.chk"
 Charge =  0 Multiplicity = 1

                         Standard orientation:
 ---------------------------------------------------------------------
 Center     Atomic      Atomic             Coordinates (Angstroms)
 Number     Number       Type             X           Y           Z
 ---------------------------------------------------------------------
      1         17           0       -0.951898    1.650787   -0.000173
      2         17           0       -2.029938   -1.168446   -0.000249
      3          5           0       -0.627901   -0.085536    0.000476
      4          6           0        0.813740   -0.682474    0.000309
      5          6           0        2.008224    0.283556    0.000223
      6          1           0        0.875205   -1.361491    0.864376
      7          6           0        3.356905   -0.441289    0.000073
      8          1           0        1.945518    0.940677    0.873512
      9          1           0        1.945352    0.940730   -0.873015
     10          1           0        3.464299   -1.079165    0.882998
     11          1           0        4.187966    0.268929    0.000016
     12          1           0        0.875047   -1.361444   -0.863807
     13          1           0        3.464132   -1.079111   -0.882913
 ---------------------------------------------------------------------

 SCF Done:  E(RHF) =  -1062.70551922     A.U. after    2 cycles

 The electronic state is 1-A.
 Alpha  occ. eigenvalues --  -99.89744 -99.89540 -11.41759 -11.38075 -11.34908
 Alpha  occ. eigenvalues --  -10.47116 -10.46788  -9.67089  -9.66775  -9.66646
 Alpha  occ. eigenvalues --   -9.66411  -9.66391  -9.66163  -7.70831  -1.40066
 Alpha  occ. eigenvalues --   -1.29305  -1.21545  -1.03044  -0.87069  -0.77773
 Alpha  occ. eigenvalues --   -0.64839  -0.63827  -0.62840  -0.57765  -0.56390
 Alpha  occ. eigenvalues --   -0.53822  -0.52273  -0.51665  -0.49325  -0.46989
 Alpha  occ. eigenvalues --   -0.46349  -0.42375
 Alpha virt. eigenvalues --    0.03138   0.04113   0.04181   0.04312   0.05891
 Alpha virt. eigenvalues --    0.06313   0.06522   0.07048   0.07535   0.09622
 Alpha virt. eigenvalues --    0.09865   0.11507   0.11598   0.12743   0.13523

 Mulliken charges:
               1
     1  Cl  -1.347753
     2  Cl  -1.412104
     3  B    3.099572
     4  C   -3.829697
     5  C   -3.239478
     6  H    1.765561
     7  C   -3.344361
     8  H    1.420765
     9  H    1.420782
    10  H    1.276577
    11  H    1.148937
    12  H    1.764635
    13  H    1.276566
 Sum of Mulliken charges =   0.00000

 Dipole moment (field-independent basis, Debye):
    X=              1.6653    Y=             -0.3672    Z=              0.0009  Tot=              1.7052

 Test job not archived.
 1\1\GINC-SE094\SP\RHF\Aug-CC-pVDZ\C3H7B1Cl2\OHZDE\08-Apr-2025\0\\#t hf
  aug-cc-pvdz iop(5/13=1,5/36=2,99/5=2) pseudo=read geom=check guess=(r
 ead,tcheck) scf=(maxcycle=1)\\title\\0,1\Cl,0,0.951898,1.650787,0.0001
 73\Cl,0,2.029938,-1.168446,0.000249\B,0,0.627901,-0.085536,-0.000476\C
 ,0,-0.81374,-0.682474,-0.000309\C,0,-2.008224,0.283556,-0.000223\H,0,-
 0.875205,-1.361491,-0.864376\C,0,-3.356905,-0.441289,-0.000073\H,0,-1.
 945518,0.940677,-0.873512\H,0,-1.945352,0.94073,0.873015\H,0,-3.464299
 ,-1.079165,-0.882998\H,0,-4.187966,0.268929,-0.000016\H,0,-0.875047,-1

 Normal termination of Gaussian 16 at Tue Apr  8 23:50:40 2025.
