 Gaussian 16, Revision C.01,

 ----------------------------------------------------------------------
 #t hf aug-cc-pvdz symm=none int=(grid=ultrafine) guess=(read,tcheck) s
 table=(opt,rrhf)
 ----------------------------------------------------------------------
 -----
 title
 -----
 Symbolic Z-matrix:
 Charge =  0 Multiplicity = 1

 SCF Done:  E(RHF) =  -822.112966653     A.U. after   13 cycles
 Normal termination of Gaussian 16 at Tue Apr  8 22:44:42 2025.
 Gaussian 16:  ES64L-G16RevC.01  3-Jul-2019

 ----------------------------------------------------------------------
 #t hf aug-cc-pvdz iop(5/13=1,5/36=2,99/5=2) pseudo=read geom=check gue
 ss=(read,tcheck) scf=(maxcycle=1)
 ----------------------------------------------------------------------
 -----
 title
 -----
 Structure from the checkpoint file:  "BDE49_expt_1472_mol1.chk"
 Charge =  0 Multiplicity = 1

                         Standard orientation:
 ---------------------------------------------------------------------
 Center     Atomic      Atomic             Coordinates (Angstroms)
 Number     Number       Type             X           Y           Z
 ---------------------------------------------------------------------
      1          6           0        0.029138    1.631559   -0.004337
      2          8           0        0.531347    0.492543   -0.622448
      3          8           0       -0.531347   -0.492543   -0.622448
      4          6           0       -0.029138   -1.631559   -0.004337
      5          9           0        1.029550    2.500656   -0.060922
      6          9           0       -0.310185    1.412469    1.263185
      7          9           0       -1.029550    2.116714   -0.646084
      8          9           0       -1.029550   -2.500656   -0.060922
      9          9           0        1.029550   -2.116714   -0.646084
     10          9           0        0.310185   -1.412469    1.263185
 ---------------------------------------------------------------------

 SCF Done:  E(RHF) =  -825.031487635     A.U. after    2 cycles

 The electronic state is 1-A.
 Alpha  occ. eigenvalues --  -29.35183 -29.35182 -29.34681 -29.34668 -29.34629
 Alpha  occ. eigenvalues --  -29.34624 -21.19067 -21.18810 -11.64437 -11.64239
 Alpha  occ. eigenvalues --   -2.09827  -1.69506  -1.39213  -1.29665  -0.97952
 Alpha  occ. eigenvalues --   -0.96796  -0.95805  -0.94603  -0.78063  -0.74648
 Alpha  occ. eigenvalues --   -0.57430  -0.51869  -0.51032  -0.49961  -0.48300
 Alpha  occ. eigenvalues --   -0.47306  -0.46781  -0.46144  -0.43975  -0.40513
 Alpha  occ. eigenvalues --   -0.37674  -0.36812  -0.36363  -0.35259  -0.33939
 Alpha  occ. eigenvalues --   -0.29327  -0.28915  -0.28328  -0.26863  -0.24937
 Alpha  occ. eigenvalues --   -0.24490
 Alpha virt. eigenvalues --    0.10267   0.10338   0.11029   0.11443   0.11695
 Alpha virt. eigenvalues --    0.12602   0.15042   0.16647   0.19149   0.19516
 Alpha virt. eigenvalues --    0.20090   0.20141   0.22736   0.23118   0.23764

 Mulliken charges:
               1
     1  C   -0.002195
     2  O   -1.740506
     3  O   -1.740506
     4  C   -0.002195
     5  F    0.635129
     6  F    0.528142
     7  F    0.579429
     8  F    0.635129
     9  F    0.579429
    10  F    0.528142
 Sum of Mulliken charges =  -0.00000

 Dipole moment (field-independent basis, Debye):
    X=             -0.0000    Y=              0.0000    Z=              2.0595  Tot=              2.0595

 Test job not archived.
 1\1\GINC-SE398\SP\RHF\Aug-CC-pVDZ\C2F6O2\OHZDE\08-Apr-2025\0\\#t hf au
 g-cc-pvdz iop(5/13=1,5/36=2,99/5=2) pseudo=read geom=check guess=(read
 ,tcheck) scf=(maxcycle=1)\\title\\0,1\C,0,0.029138,1.631559,-0.004337\
 O,0,0.531347,0.492543,-0.622448\O,0,-0.531347,-0.492543,-0.622448\C,0,
 -0.029138,-1.631559,-0.004337\F,0,1.02955,2.500656,-0.060922\F,0,-0.31
 0185,1.412469,1.263185\F,0,-1.02955,2.116714,-0.646084\F,0,-1.02955,-2
 .500656,-0.060922\F,0,1.02955,-2.116714,-0.646084\F,0,0.310185,-1.4124
 69,1.263185\\Version=ES64L-G16RevC.01\State=1-A\HF=-825.0314876\RMSD=2

 Normal termination of Gaussian 16 at Tue Apr  8 22:44:46 2025.
