 Gaussian 16, Revision C.01,

 ----------------------------------------------------------------------
 #t hf aug-cc-pvdz symm=none int=(grid=ultrafine) guess=(read,tcheck) s
 table=opt
 ----------------------------------------------------------------------
 -----
 title
 -----
 Symbolic Z-matrix:
 Charge =  0 Multiplicity = 2

 SCF Done:  E(UHF) =  -756.867659664     A.U. after   18 cycles
 Normal termination of Gaussian 16 at Wed Apr  9 00:21:12 2025.
 Gaussian 16:  ES64L-G16RevC.01  3-Jul-2019

 ----------------------------------------------------------------------
 #t hf aug-cc-pvdz iop(5/13=1,5/36=2,99/5=2) pseudo=read geom=check gue
 ss=(read,tcheck) scf=(maxcycle=1)
 ----------------------------------------------------------------------
 -----
 title
 -----
 Structure from the checkpoint file:  "BDE49_nonexpt_256_mol2.chk"
 Charge =  0 Multiplicity = 2

                         Standard orientation:
 ---------------------------------------------------------------------
 Center     Atomic      Atomic             Coordinates (Angstroms)
 Number     Number       Type             X           Y           Z
 ---------------------------------------------------------------------
      1          6           0       -1.350919    1.378139   -0.173871
      2          6           0       -2.538163    0.632524   -0.800541
      3          6           0       -2.899625   -0.626440   -0.000808
      4          6           0       -1.680957   -1.542125    0.177277
      5          6           0       -0.495946   -0.790779    0.801245
      6          6           0        1.050345    1.232705    0.663404
      7          6           0       -0.119836    0.469724    0.001193
      8          5           0        2.470951    0.607430    0.647160
      9         17           0        3.104550   -0.546728   -0.505438
     10          1           0       -1.646019    1.769772    0.809339
     11          1           0       -1.085816    2.246785   -0.786973
     12          1           0       -2.281447    0.345764   -1.828477
     13          1           0       -3.403366    1.299619   -0.871764
     14          1           0       -3.712546   -1.168638   -0.494371
     15          1           0       -3.276477   -0.330784    0.987016
     16          1           0       -1.380662   -1.939202   -0.800817
     17          1           0       -1.942233   -2.406742    0.795791
     18          1           0        0.368650   -1.458246    0.880151
     19          1           0       -0.755609   -0.492843    1.826550
     20          1           0        0.783781    1.524245    1.687398
     21          1           0        1.205789    2.195818    0.143019
     22          1           0        0.204458    0.149197   -0.997606
 ---------------------------------------------------------------------

 SCF Done:  E(UHF) =  -758.602051871     A.U. after    2 cycles

 The electronic state is 2-A.
 Alpha  occ. eigenvalues --  -99.89413 -11.43747 -11.43504 -11.42004 -11.39559
 Alpha  occ. eigenvalues --  -11.37604 -11.36269 -11.33668 -10.46685  -9.66695
 Alpha  occ. eigenvalues --   -9.66317  -9.65988  -7.67483  -1.35796  -1.31754
 Alpha  occ. eigenvalues --   -1.15517  -1.10075  -1.01804  -0.88265  -0.86180
 Alpha  occ. eigenvalues --   -0.78101  -0.74955  -0.65948  -0.62383  -0.61356
 Alpha  occ. eigenvalues --   -0.60956  -0.57773  -0.56793  -0.53849  -0.52271
 Alpha  occ. eigenvalues --   -0.51502  -0.49891  -0.46735  -0.45899  -0.45010
 Alpha  occ. eigenvalues --   -0.43901  -0.40304  -0.38282  -0.29694
 Alpha virt. eigenvalues --    0.03871   0.03912   0.04079   0.04357   0.05214
 Alpha virt. eigenvalues --    0.05466   0.05651   0.05747   0.06312   0.07051
 Alpha virt. eigenvalues --    0.08471   0.08588   0.08809   0.09265   0.09453

  Beta  occ. eigenvalues --  -99.89333 -11.43743 -11.43444 -11.41992 -11.39492
  Beta  occ. eigenvalues --  -11.37600 -11.36213 -11.33639 -10.46590  -9.66599
  Beta  occ. eigenvalues --   -9.66026  -9.65981  -7.65550  -1.35020  -1.31378
  Beta  occ. eigenvalues --   -1.15168  -1.10057  -1.01130  -0.88243  -0.85707
  Beta  occ. eigenvalues --   -0.78035  -0.72198  -0.65733  -0.62156  -0.61224
  Beta  occ. eigenvalues --   -0.60683  -0.56984  -0.55130  -0.53563  -0.52227
  Beta  occ. eigenvalues --   -0.50716  -0.49312  -0.46717  -0.45728  -0.44387
  Beta  occ. eigenvalues --   -0.43782  -0.38740  -0.38180
  Beta virt. eigenvalues --    0.03302   0.04014   0.04115   0.04243   0.05217
  Beta virt. eigenvalues --    0.05470   0.05631   0.05749   0.06311   0.07573
  Beta virt. eigenvalues --    0.08122   0.08556   0.08631   0.09214   0.09460

 Mulliken charges and spin densities:
               1          2
     1  C   -3.060911  -0.029658
     2  C   -3.054130   0.006194
     3  C   -2.606831   0.001401
     4  C   -3.041948   0.000311
     5  C   -3.549972   0.021141
     6  C   -3.893432  -0.280569
     7  C    0.366468   0.250862
     8  B    0.381284   1.017594
     9  Cl  -1.035068   0.017187
    10  H    1.397854  -0.000022
    11  H    1.451585   0.000281
    12  H    1.421730   0.001471
    13  H    1.287399  -0.001509
    14  H    1.339404  -0.000394
    15  H    1.374833   0.000641
    16  H    1.390254   0.000997
    17  H    1.237632   0.000300
    18  H    1.347750   0.001875
    19  H    1.430300  -0.002266
    20  H    2.000693   0.016373
    21  H    1.893944  -0.024710
    22  H    1.921160   0.002500
 Sum of Mulliken charges =  -0.00000   1.00000

 Dipole moment (field-independent basis, Debye):
    X=             -1.8114    Y=              0.5854    Z=              0.0326  Tot=              1.9039
                          Isotropic Fermi Contact Couplings
        Atom                 a.u.       MegaHertz       Gauss      10(-4) cm-1
     1  C(13)              0.00302       3.39064       1.20987       1.13100
     2  C(13)              0.00207       2.33055       0.83160       0.77739
     3  C(13)             -0.00010      -0.11011      -0.03929      -0.03673
     4  C(13)              0.00069       0.77051       0.27494       0.25701
     5  C(13)             -0.00121      -1.35958      -0.48513      -0.45351
     6  C(13)              0.02975      33.44661      11.93458      11.15659
     7  C(13)              0.01570      17.64645       6.29669       5.88622
     8  B(11)              0.24253     347.87082     124.12896     116.03722

 Normal termination of Gaussian 16 at Wed Apr  9 00:21:25 2025.
