 Gaussian 16, Revision C.01,

 ----------------------------------------------------------------------
 #t hf aug-cc-pvdz symm=none int=(grid=ultrafine) guess=(read,tcheck) s
 table=opt
 ----------------------------------------------------------------------
 -----
 title
 -----
 Symbolic Z-matrix:
 Charge =  0 Multiplicity = 2

 SCF Done:  E(UHF) =  -223.634856379     A.U. after   13 cycles
 Normal termination of Gaussian 16 at Tue Apr  8 23:48:13 2025.
 Gaussian 16:  ES64L-G16RevC.01  3-Jul-2019

 ----------------------------------------------------------------------
 #t hf aug-cc-pvdz iop(5/13=1,5/36=2,99/5=2) pseudo=read geom=check gue
 ss=(read,tcheck) scf=(maxcycle=1)
 ----------------------------------------------------------------------
 -----
 title
 -----
 Structure from the checkpoint file:  "BDE49_nonexpt_17_mol3.chk"
 Charge =  0 Multiplicity = 2

                         Standard orientation:
 ---------------------------------------------------------------------
 Center     Atomic      Atomic             Coordinates (Angstroms)
 Number     Number       Type             X           Y           Z
 ---------------------------------------------------------------------
      1          5           0        0.000000   -0.000000    0.506080
      2          9           0        0.000000    1.142623   -0.140578
      3          9           0       -0.000000   -1.142623   -0.140578
 ---------------------------------------------------------------------

 SCF Done:  E(UHF) =  -224.388783485     A.U. after    2 cycles

 The electronic state is 2-A1.
 Alpha  occ. eigenvalues --  -29.28277 -29.28183  -7.74605  -1.12173  -0.77733
 Alpha  occ. eigenvalues --   -0.54372  -0.53001  -0.48699  -0.46008  -0.35594
 Alpha  occ. eigenvalues --   -0.34984  -0.20239
 Alpha virt. eigenvalues --    0.03372   0.04274   0.05731   0.10264   0.16745
 Alpha virt. eigenvalues --    0.17140   0.18893   0.22406   0.23654   0.24417
 Alpha virt. eigenvalues --    0.25530   0.25851   0.28880   0.29734   0.32169

  Beta  occ. eigenvalues --  -29.27951 -29.27856  -7.72327  -1.08201  -0.76453
  Beta  occ. eigenvalues --   -0.51688  -0.47887  -0.45249  -0.41252  -0.35784
  Beta  occ. eigenvalues --   -0.34292
  Beta virt. eigenvalues --    0.03408   0.03516   0.05820   0.08789   0.12214
  Beta virt. eigenvalues --    0.17910   0.20075   0.22113   0.23096   0.23849
  Beta virt. eigenvalues --    0.24995   0.26051   0.26448   0.30358   0.31990

 Mulliken charges and spin densities:
               1          2
     1  B    0.602954   1.248507
     2  F   -0.301477  -0.124254
     3  F   -0.301477  -0.124254
 Sum of Mulliken charges =   0.00000   1.00000

 Dipole moment (field-independent basis, Debye):
    X=              0.0000    Y=              0.0000    Z=             -2.5180  Tot=              2.5180
                          Isotropic Fermi Contact Couplings
        Atom                 a.u.       MegaHertz       Gauss      10(-4) cm-1
     1  B(11)              0.22253     319.18259     113.89229     106.46785
     2  F(19)              0.15772     663.61765     236.79528     221.35902
     3  F(19)              0.15772     663.61765     236.79528     221.35902
 --------------------------------------------------------
       Center         ----  Spin Dipole Couplings  ----
                      3XX-RR        3YY-RR        3ZZ-RR
 --------------------------------------------------------
     1   Atom       -0.137135     -0.138410      0.275545

 Normal termination of Gaussian 16 at Tue Apr  8 23:48:15 2025.
