 Gaussian 16, Revision C.01,

 ----------------------------------------------------------------------
 #t hf aug-cc-pvdz symm=none int=(grid=ultrafine) guess=(read,tcheck) s
 table=(opt,rrhf)
 ----------------------------------------------------------------------
 -----
 title
 -----
 Symbolic Z-matrix:
 Charge =  0 Multiplicity = 1

 SCF Done:  E(RHF) =  -309.101226770     A.U. after   14 cycles

 1\1\GINC-SE126\Stability\RHF\Aug-CC-pVDZ\C6H12O1\OHZDE\08-Apr-2025\0\\
 #t hf aug-cc-pvdz symm=none int=(grid=ultrafine) guess=(read,tcheck) s
 table=(opt,rrhf)\\title\\0,1\C,0,-0.909061,0.321855,-0.016726\O,0,-1.2
 59262,1.480697,-0.028124\C,0,-1.948606,-0.789898,-0.005693\H,0,-1.6765
 24,-1.618341,0.651274\H,0,-2.05195,-1.197545,-1.016526\H,0,-2.907172,-
 0.370193,0.29693\C,0,0.587289,-0.065031,-0.006974\C,0,1.43436,1.169904
 ,-0.346551\H,0,1.23596,1.985047,0.350127\H,0,1.209741,1.537419,-1.3507
 1\H,0,2.498153,0.919532,-0.301656\C,0,0.865815,-1.190893,-1.023766\H,0

 Normal termination of Gaussian 16 at Tue Apr  8 23:03:34 2025.
 Gaussian 16:  ES64L-G16RevC.01  3-Jul-2019

 ----------------------------------------------------------------------
 #t hf aug-cc-pvdz iop(5/13=1,5/36=2,99/5=2) pseudo=read geom=check gue
 ss=(read,tcheck) scf=(maxcycle=1)
 ----------------------------------------------------------------------
 -----
 title
 -----
 Structure from the checkpoint file:  "BDE49_expt_224_mol1.chk"
 Charge =  0 Multiplicity = 1

                         Standard orientation:
 ---------------------------------------------------------------------
 Center     Atomic      Atomic             Coordinates (Angstroms)
 Number     Number       Type             X           Y           Z
 ---------------------------------------------------------------------
      1          6           0       -0.909061    0.321855   -0.016726
      2          8           0       -1.259262    1.480697   -0.028124
      3          6           0       -1.948606   -0.789897   -0.005693
      4          1           0       -1.676524   -1.618340    0.651274
      5          1           0       -2.051950   -1.197544   -1.016526
      6          1           0       -2.907172   -0.370192    0.296930
      7          6           0        0.587289   -0.065031   -0.006974
      8          6           0        1.434360    1.169904   -0.346551
      9          1           0        1.235960    1.985047    0.350127
     10          1           0        1.209741    1.537419   -1.350710
     11          1           0        2.498153    0.919531   -0.301656
     12          6           0        0.865815   -1.190893   -1.023766
     13          1           0        1.932395   -1.432878   -1.023573
     14          1           0        0.595950   -0.886122   -2.039235
     15          1           0        0.320612   -2.107565   -0.786847
     16          6           0        0.937515   -0.553878    1.418731
     17          1           0        2.001070   -0.804109    1.470723
     18          1           0        0.373686   -1.447097    1.699722
     19          1           0        0.738305    0.223916    2.160634
 ---------------------------------------------------------------------

 SCF Done:  E(RHF) =  -310.614022925     A.U. after    2 cycles

 The electronic state is 1-A.
 Alpha  occ. eigenvalues --  -21.04373 -11.49636 -11.42331 -11.39936 -11.39290
 Alpha  occ. eigenvalues --  -11.38786 -11.35875  -1.70427  -1.27944  -1.09171
 Alpha  occ. eigenvalues --   -1.01653  -1.00363  -0.87722  -0.71122  -0.65008
 Alpha  occ. eigenvalues --   -0.62034  -0.61430  -0.58950  -0.56301  -0.55138
 Alpha  occ. eigenvalues --   -0.54092  -0.51726  -0.50913  -0.45802  -0.45049
 Alpha  occ. eigenvalues --   -0.42766  -0.39505  -0.27030
 Alpha virt. eigenvalues --    0.03554   0.05031   0.05193   0.05257   0.05434
 Alpha virt. eigenvalues --    0.05535   0.06316   0.07067   0.07678   0.08870
 Alpha virt. eigenvalues --    0.09048   0.09245   0.11052   0.12448   0.13121

 Mulliken charges:
               1
     1  C    4.736847
     2  O   -3.733028
     3  C   -4.665550
     4  H    1.449638
     5  H    1.222424
     6  H    1.167125
     7  C    2.136673
     8  C   -4.444267
     9  H    1.324159
    10  H    1.209868
    11  H    1.174157
    12  C   -4.325010
    13  H    1.098029
    14  H    1.206529
    15  H    1.414775
    16  C   -4.796316
    17  H    1.203288
    18  H    1.357967
    19  H    1.262689
 Sum of Mulliken charges =  -0.00000

 Dipole moment (field-independent basis, Debye):
    X=              0.5838    Y=             -1.2758    Z=              0.0451  Tot=              1.4037

 Test job not archived.
 1\1\GINC-SE126\SP\RHF\Aug-CC-pVDZ\C6H12O1\OHZDE\08-Apr-2025\0\\#t hf a
 ug-cc-pvdz iop(5/13=1,5/36=2,99/5=2) pseudo=read geom=check guess=(rea
 d,tcheck) scf=(maxcycle=1)\\title\\0,1\C,0,-0.909061,0.321855,-0.01672
 6\O,0,-1.259262,1.480697,-0.028124\C,0,-1.948606,-0.789898,-0.005693\H
 ,0,-1.676524,-1.618341,0.651274\H,0,-2.05195,-1.197545,-1.016526\H,0,-
 2.907172,-0.370193,0.29693\C,0,0.587289,-0.065031,-0.006974\C,0,1.4343
 6,1.169904,-0.346551\H,0,1.23596,1.985047,0.350127\H,0,1.209741,1.5374
 19,-1.35071\H,0,2.498153,0.919532,-0.301656\C,0,0.865815,-1.190893,-1.

 Normal termination of Gaussian 16 at Tue Apr  8 23:03:41 2025.
