 Gaussian 16, Revision C.01,

 ----------------------------------------------------------------------
 #t hf aug-cc-pvdz symm=none int=(grid=ultrafine) guess=(read,tcheck) s
 table=opt
 ----------------------------------------------------------------------
 -----
 title
 -----
 Symbolic Z-matrix:
 Charge =  0 Multiplicity = 2

 SCF Done:  E(UHF) =  -496.925051739     A.U. after   15 cycles
 Normal termination of Gaussian 16 at Tue Apr  8 23:00:35 2025.
 Gaussian 16:  ES64L-G16RevC.01  3-Jul-2019

 ----------------------------------------------------------------------
 #t hf aug-cc-pvdz iop(5/13=1,5/36=2,99/5=2) pseudo=read geom=check gue
 ss=(read,tcheck) scf=(maxcycle=1)
 ----------------------------------------------------------------------
 -----
 title
 -----
 Structure from the checkpoint file:  "BDE49_expt_1952_mol2.chk"
 Charge =  0 Multiplicity = 2

                         Standard orientation:
 ---------------------------------------------------------------------
 Center     Atomic      Atomic             Coordinates (Angstroms)
 Number     Number       Type             X           Y           Z
 ---------------------------------------------------------------------
      1         16           0        0.000000    0.000000    0.590216
      2          9           0        0.000000    0.000000   -1.049272
 ---------------------------------------------------------------------

 SCF Done:  E(UHF) =  -497.450658511     A.U. after    2 cycles

 Unable to determine electronic state:  an orbital has unidentified symmetry.
 Alpha  occ. eigenvalues --  -75.79495 -29.30292 -13.20988 -13.11050 -13.08960
 Alpha  occ. eigenvalues --   -8.13002  -1.21964  -0.65991  -0.46817  -0.43811
 Alpha  occ. eigenvalues --   -0.36204  -0.22869  -0.19367
 Alpha virt. eigenvalues --    0.07157   0.11038   0.11638   0.12087   0.21478
 Alpha virt. eigenvalues --    0.27896   0.29430   0.29534   0.29948   0.29948
 Alpha virt. eigenvalues --    0.37151   0.39582   0.52339   0.63144   0.74383

  Beta  occ. eigenvalues --  -75.78492 -29.29888 -13.20593 -13.08374 -13.04893
  Beta  occ. eigenvalues --   -8.11880  -1.14258  -0.62831  -0.43028  -0.38404
  Beta  occ. eigenvalues --   -0.35629  -0.18542
  Beta virt. eigenvalues --    0.04759   0.07665   0.12097   0.12269   0.16057
  Beta virt. eigenvalues --    0.22108   0.29295   0.29994   0.30177   0.33375
  Beta virt. eigenvalues --    0.33663   0.39846   0.42005   0.52503   0.64659

 Mulliken charges and spin densities:
               1          2
     1  S    0.135600   0.919231
     2  F   -0.135600   0.080769
 Sum of Mulliken charges =  -0.00000   1.00000

 Dipole moment (field-independent basis, Debye):
    X=             -0.0000    Y=              0.0000    Z=             -2.4186  Tot=              2.4186
                          Isotropic Fermi Contact Couplings
        Atom                 a.u.       MegaHertz       Gauss      10(-4) cm-1
     1  S(33)              0.32717     112.37300      40.09748      37.48360
     2  F(19)              0.02667     112.23297      40.04751      37.43689
 --------------------------------------------------------
       Center         ----  Spin Dipole Couplings  ----
                      3XX-RR        3YY-RR        3ZZ-RR
 --------------------------------------------------------
     1   Atom        0.350833     -0.085313     -0.265519
     2   Atom        0.407630     -0.100745     -0.306885

 Normal termination of Gaussian 16 at Tue Apr  8 23:00:36 2025.
