 Gaussian 16, Revision C.01,

 ----------------------------------------------------------------------
 #t hf aug-cc-pvdz symm=none int=(grid=ultrafine) guess=(read,tcheck) s
 table=(opt,rrhf)
 ----------------------------------------------------------------------
 -----
 title
 -----
 Symbolic Z-matrix:
 Charge =  0 Multiplicity = 1

 SCF Done:  E(RHF) =  -776.819422554     A.U. after   13 cycles
 Normal termination of Gaussian 16 at Wed Apr  9 00:51:35 2025.
 Gaussian 16:  ES64L-G16RevC.01  3-Jul-2019

 ----------------------------------------------------------------------
 #t hf aug-cc-pvdz iop(5/13=1,5/36=2,99/5=2) pseudo=read geom=check gue
 ss=(read,tcheck) scf=(maxcycle=1)
 ----------------------------------------------------------------------
 -----
 title
 -----
 Structure from the checkpoint file:  "BDE49_nonexpt_918_mol1.chk"
 Charge =  0 Multiplicity = 1

                         Standard orientation:
 ---------------------------------------------------------------------
 Center     Atomic      Atomic             Coordinates (Angstroms)
 Number     Number       Type             X           Y           Z
 ---------------------------------------------------------------------
      1          5           0       -1.723294    0.183234   -0.111093
      2         16           0       -0.606503   -1.186370    0.237447
      3          9           0       -1.467439    1.436189    0.251160
      4          9           0       -2.867969   -0.059437   -0.735656
      5          6           0        0.827352   -0.291061    1.025024
      6          6           0        1.805944    0.266320    0.026338
      7          6           0        1.933425    1.584570   -0.131979
      8          6           0        2.624240   -0.733577   -0.747297
      9          1           0        2.644512    2.002356   -0.836188
     10          1           0        1.329930    2.286767    0.431667
     11          1           0        3.297261   -0.239221   -1.449087
     12          1           0        3.226693   -1.351231   -0.071213
     13          1           0        1.979957   -1.415066   -1.311906
     14          1           0        1.294924   -1.052392    1.653624
     15          1           0        0.420141    0.486259    1.667361
 ---------------------------------------------------------------------

 SCF Done:  E(RHF) =  -778.602143090     A.U. after    2 cycles

 The electronic state is 1-A.
 Alpha  occ. eigenvalues --  -75.69261 -29.26460 -29.26083 -13.17091 -13.11159
 Alpha  occ. eigenvalues --  -13.04920 -11.44683 -11.41781 -11.39270 -11.37063
 Alpha  occ. eigenvalues --   -8.03410  -7.72257  -1.30384  -1.20518  -1.06227
 Alpha  occ. eigenvalues --   -1.00456  -0.94010  -0.77755  -0.75482  -0.65245
 Alpha  occ. eigenvalues --   -0.63332  -0.58843  -0.55607  -0.53006  -0.52141
 Alpha  occ. eigenvalues --   -0.50668  -0.47415  -0.45524  -0.44586  -0.42998
 Alpha  occ. eigenvalues --   -0.35496  -0.34222  -0.30982  -0.26476  -0.24994
 Alpha virt. eigenvalues --    0.02656   0.03523   0.03989   0.05551   0.05777
 Alpha virt. eigenvalues --    0.06088   0.06700   0.07062   0.08740   0.09338
 Alpha virt. eigenvalues --    0.09435   0.11424   0.11956   0.12497   0.13300

 Mulliken charges:
               1
     1  B    2.060232
     2  S   -1.263697
     3  F   -1.129754
     4  F    0.502200
     5  C   -4.116027
     6  C    2.850134
     7  C   -4.382041
     8  C   -4.584669
     9  H    1.587318
    10  H    1.621061
    11  H    1.355433
    12  H    1.168895
    13  H    1.325916
    14  H    1.457945
    15  H    1.547053
 Sum of Mulliken charges =  -0.00000

 Dipole moment (field-independent basis, Debye):
    X=             -0.7869    Y=              1.0085    Z=             -0.2489  Tot=              1.3031

 Test job not archived.
 1\1\GINC-SE069\SP\RHF\Aug-CC-pVDZ\C4H7B1F2S1\OHZDE\09-Apr-2025\0\\#t h
 f aug-cc-pvdz iop(5/13=1,5/36=2,99/5=2) pseudo=read geom=check guess=(
 read,tcheck) scf=(maxcycle=1)\\title\\0,1\B,0,-1.723294,0.183234,-0.11
 1093\S,0,-0.606503,-1.18637,0.237447\F,0,-1.467439,1.436189,0.25116\F,
 0,-2.867969,-0.059437,-0.735656\C,0,0.827352,-0.291061,1.025024\C,0,1.
 805944,0.26632,0.026338\C,0,1.933425,1.58457,-0.131979\C,0,2.62424,-0.
 733577,-0.747297\H,0,2.644512,2.002356,-0.836188\H,0,1.32993,2.286767,
 0.431667\H,0,3.297261,-0.239221,-1.449087\H,0,3.226693,-1.351231,-0.07

 Normal termination of Gaussian 16 at Wed Apr  9 00:51:41 2025.
