 Gaussian 16, Revision C.01,

 ----------------------------------------------------------------------
 #t hf aug-cc-pvdz symm=none int=(grid=ultrafine) guess=(read,tcheck) s
 table=(opt,rrhf)
 ----------------------------------------------------------------------
 -----
 title
 -----
 Symbolic Z-matrix:
 Charge =  0 Multiplicity = 1

 SCF Done:  E(RHF) =  -619.757956849     A.U. after   14 cycles
 Normal termination of Gaussian 16 at Tue Apr  8 23:56:58 2025.
 Gaussian 16:  ES64L-G16RevC.01  3-Jul-2019

 ----------------------------------------------------------------------
 #t hf aug-cc-pvdz iop(5/13=1,5/36=2,99/5=2) pseudo=read geom=check gue
 ss=(read,tcheck) scf=(maxcycle=1)
 ----------------------------------------------------------------------
 -----
 title
 -----
 Structure from the checkpoint file:  "BDE49_nonexpt_1991_mol1.chk"
 Charge =  0 Multiplicity = 1

                         Standard orientation:
 ---------------------------------------------------------------------
 Center     Atomic      Atomic             Coordinates (Angstroms)
 Number     Number       Type             X           Y           Z
 ---------------------------------------------------------------------
      1          6           0        0.092159    0.000001   -0.206025
      2          6           0       -0.622560   -1.205524   -0.109783
      3         14           0        1.934511    0.000002   -0.447551
      4          6           0       -0.622562    1.205524   -0.109781
      5          6           0       -2.001388   -1.207214    0.082805
      6          6           0       -2.691089   -0.000001    0.180122
      7          6           0       -2.001389    1.207213    0.082807
      8          1           0       -0.098028    2.152668   -0.189273
      9          1           0       -3.765285   -0.000002    0.328360
     10          1           0       -2.537758    2.146759    0.154870
     11          1           0       -0.098026   -2.152667   -0.189277
     12          1           0       -2.537756   -2.146761    0.154867
     13          9           0        2.700899   -0.000004    0.977664
     14          1           0        2.363287    1.223137   -1.156842
     15          1           0        2.363288   -1.223127   -1.156851
 ---------------------------------------------------------------------

 SCF Done:  E(RHF) =  -621.364876594     A.U. after    2 cycles

 The electronic state is 1-A.
 Alpha  occ. eigenvalues --  -76.24819 -29.25413 -11.51919 -11.43655 -11.43274
 Alpha  occ. eigenvalues --  -11.41319 -11.40915 -11.36871  -5.59227  -2.24641
 Alpha  occ. eigenvalues --   -2.22221  -2.21522  -1.34485  -1.10048  -1.09913
 Alpha  occ. eigenvalues --   -0.89534  -0.87034  -0.82905  -0.71758  -0.64847
 Alpha  occ. eigenvalues --   -0.59610  -0.59308  -0.57774  -0.54189  -0.50822
 Alpha  occ. eigenvalues --   -0.50659  -0.45448  -0.42739  -0.35310  -0.33844
 Alpha  occ. eigenvalues --   -0.32198  -0.31550  -0.29996
 Alpha virt. eigenvalues --    0.03200   0.05044   0.05049   0.05500   0.06147
 Alpha virt. eigenvalues --    0.06964   0.07431   0.08700   0.09608   0.09860
 Alpha virt. eigenvalues --    0.10498   0.11215   0.12595   0.13316   0.13471

 Mulliken charges:
               1
     1  C    0.383417
     2  C   -2.576758
     3  Si   4.049931
     4  C   -2.576697
     5  C   -0.536701
     6  C   -1.904953
     7  C   -0.536670
     8  H    1.810802
     9  H    1.498652
    10  H    1.525766
    11  H    1.810803
    12  H    1.525764
    13  F   -1.029632
    14  H   -1.721863
    15  H   -1.721862
 Sum of Mulliken charges =   0.00000

 Dipole moment (field-independent basis, Debye):
    X=             -0.4812    Y=             -0.0000    Z=              1.8971  Tot=              1.9571

 Test job not archived.
 1\1\GINC-SE252\SP\RHF\Aug-CC-pVDZ\C6H7F1Si1\OHZDE\08-Apr-2025\0\\#t hf
  aug-cc-pvdz iop(5/13=1,5/36=2,99/5=2) pseudo=read geom=check guess=(r
 ead,tcheck) scf=(maxcycle=1)\\title\\0,1\C,0,0.092159,0.000001,-0.2060
 25\C,0,-0.62256,-1.205524,-0.109783\Si,0,1.934511,0.000002,-0.447551\C
 ,0,-0.622562,1.205524,-0.109781\C,0,-2.001388,-1.207214,0.082805\C,0,-
 2.691089,-0.000001,0.180122\C,0,-2.001389,1.207213,0.082807\H,0,-0.098
 028,2.152668,-0.189273\H,0,-3.765285,-0.000002,0.32836\H,0,-2.537758,2
 .146759,0.15487\H,0,-0.098026,-2.152667,-0.189277\H,0,-2.537756,-2.146

 Normal termination of Gaussian 16 at Tue Apr  8 23:57:04 2025.
