 Gaussian 16, Revision C.01,

 ----------------------------------------------------------------------
 #t hf aug-cc-pvdz symm=none int=(grid=ultrafine) guess=(read,tcheck) s
 table=(opt,rrhf)
 ----------------------------------------------------------------------
 -----
 title
 -----
 Symbolic Z-matrix:
 Charge =  0 Multiplicity = 1

 SCF Done:  E(RHF) =  -552.477192499     A.U. after   12 cycles
 Normal termination of Gaussian 16 at Tue Apr  8 23:37:31 2025.
 Gaussian 16:  ES64L-G16RevC.01  3-Jul-2019

 ----------------------------------------------------------------------
 #t hf aug-cc-pvdz iop(5/13=1,5/36=2,99/5=2) pseudo=read geom=check gue
 ss=(read,tcheck) scf=(maxcycle=1)
 ----------------------------------------------------------------------
 -----
 title
 -----
 Structure from the checkpoint file:  "BDE49_nonexpt_1529_mol1.chk"
 Charge =  0 Multiplicity = 1

                         Standard orientation:
 ---------------------------------------------------------------------
 Center     Atomic      Atomic             Coordinates (Angstroms)
 Number     Number       Type             X           Y           Z
 ---------------------------------------------------------------------
      1          7           0       -1.763164    0.928617   -0.614016
      2          6           0        0.352429   -0.534160    0.421309
      3          6           0        1.150638    0.751993    0.790927
      4          6           0        1.234112   -0.663762   -0.855666
      5          6           0        2.257798    0.300841   -0.199131
      6          1           0        0.745488   -0.202384   -1.717362
      7          1           0        1.574014   -1.663552   -1.131856
      8          1           0        2.704947    1.067205   -0.835571
      9          1           0        3.057550   -0.242555    0.310077
     10          1           0        1.421790    0.887452    1.839940
     11          1           0        0.649626    1.655174    0.434021
     12         15           0       -1.487385   -0.553648    0.207255
     13          1           0        0.580902   -1.340762    1.127466
     14          1           0       -1.790553   -0.209181    1.558512
     15          1           0       -1.699281    1.802303   -0.109285
     16          1           0       -2.561422    0.921225   -1.231296
 ---------------------------------------------------------------------

 SCF Done:  E(RHF) =  -553.739226377     A.U. after    2 cycles

 The electronic state is 1-A.
 Alpha  occ. eigenvalues -- -105.17534 -15.73678 -11.47797 -11.38409 -11.38140
 Alpha  occ. eigenvalues --  -11.33645  -2.75551  -1.54071  -1.48090  -1.43246
 Alpha  occ. eigenvalues --   -1.29826  -1.16755  -0.95073  -0.92674  -0.78588
 Alpha  occ. eigenvalues --   -0.70519  -0.65852  -0.64450  -0.58413  -0.53664
 Alpha  occ. eigenvalues --   -0.48170  -0.47367  -0.43034  -0.40888  -0.40388
 Alpha  occ. eigenvalues --   -0.27598  -0.19937  -0.00774
 Alpha virt. eigenvalues --    0.04576   0.05337   0.05884   0.05973   0.06336
 Alpha virt. eigenvalues --    0.06415   0.06859   0.06943   0.08186   0.09391
 Alpha virt. eigenvalues --    0.11306   0.11435   0.12537   0.13911   0.14213

 Mulliken charges:
               1
     1  N   -2.357905
     2  C   -1.711332
     3  C   -2.959182
     4  C   -3.098887
     5  C   -2.950237
     6  H    1.477119
     7  H    1.242246
     8  H    1.161939
     9  H    1.329627
    10  H    1.243663
    11  H    1.559793
    12  P    3.639097
    13  H    1.187495
    14  H   -0.778992
    15  H    0.520783
    16  H    0.494772
 Sum of Mulliken charges =  -0.00000

 Dipole moment (field-independent basis, Debye):
    X=              0.7912    Y=              1.0894    Z=              0.9342  Tot=              1.6388

 Test job not archived.
 1\1\GINC-SE457\SP\RHF\Aug-CC-pVDZ\C4H10N1P1\OHZDE\08-Apr-2025\0\\#t hf
  aug-cc-pvdz iop(5/13=1,5/36=2,99/5=2) pseudo=read geom=check guess=(r
 ead,tcheck) scf=(maxcycle=1)\\title\\0,1\N,0,-1.763164,0.928617,-0.614
 016\C,0,0.352429,-0.53416,0.421309\C,0,1.150638,0.751993,0.790927\C,0,
 1.234112,-0.663762,-0.855666\C,0,2.257798,0.300841,-0.199131\H,0,0.745
 488,-0.202384,-1.717362\H,0,1.574014,-1.663552,-1.131856\H,0,2.704947,
 1.067205,-0.835571\H,0,3.05755,-0.242555,0.310077\H,0,1.42179,0.887452
 ,1.83994\H,0,0.649626,1.655174,0.434021\P,0,-1.487385,-0.553648,0.2072

 Normal termination of Gaussian 16 at Tue Apr  8 23:37:36 2025.
