 Gaussian 16, Revision C.01,

 ----------------------------------------------------------------------
 #t hf aug-cc-pvdz symm=none int=(grid=ultrafine) guess=(read,tcheck) s
 table=(opt,rrhf)
 ----------------------------------------------------------------------
 -----
 title
 -----
 Symbolic Z-matrix:
 Charge =  0 Multiplicity = 1

 SCF Done:  E(RHF) =  -420.314098212     A.U. after   17 cycles
 Normal termination of Gaussian 16 at Tue Apr  8 23:22:10 2025.
 Gaussian 16:  ES64L-G16RevC.01  3-Jul-2019

 ----------------------------------------------------------------------
 #t hf aug-cc-pvdz iop(5/13=1,5/36=2,99/5=2) pseudo=read geom=check gue
 ss=(read,tcheck) scf=(maxcycle=1)
 ----------------------------------------------------------------------
 -----
 title
 -----
 Structure from the checkpoint file:  "BDE49_nonexpt_1175_mol1.chk"
 Charge =  0 Multiplicity = 1

                         Standard orientation:
 ---------------------------------------------------------------------
 Center     Atomic      Atomic             Coordinates (Angstroms)
 Number     Number       Type             X           Y           Z
 ---------------------------------------------------------------------
      1          9           0        2.572031    0.194825    0.620962
      2          8           0        1.792953   -0.270240   -0.573124
      3          6           0        0.479405   -0.102061   -0.256985
      4          6           0       -0.107036    1.164356   -0.214512
      5          6           0       -0.308048   -1.239000   -0.056785
      6          7           0       -1.624377   -1.175115    0.143015
      7          6           0       -1.472508    1.231444    0.013791
      8          6           0       -2.182063    0.038844    0.183691
      9          1           0        0.504923    2.046819   -0.355218
     10          1           0       -1.987759    2.183250    0.057903
     11          1           0        0.155276   -2.220205   -0.090287
     12          1           0       -3.252208    0.062932    0.367628
 ---------------------------------------------------------------------

 SCF Done:  E(RHF) =  -422.086669968     A.U. after    2 cycles

 The electronic state is 1-A.
 Alpha  occ. eigenvalues --  -29.29048 -21.18088 -15.76131 -11.51368 -11.47718
 Alpha  occ. eigenvalues --  -11.45885 -11.44818 -11.40892  -1.82297  -1.45883
 Alpha  occ. eigenvalues --   -1.20321  -1.11836  -0.92880  -0.90008  -0.75446
 Alpha  occ. eigenvalues --   -0.71910  -0.66199  -0.64531  -0.60358  -0.58230
 Alpha  occ. eigenvalues --   -0.55489  -0.51584  -0.46207  -0.41444  -0.38569
 Alpha  occ. eigenvalues --   -0.37341  -0.31571  -0.25809  -0.22720
 Alpha virt. eigenvalues --    0.03121   0.05098   0.05479   0.06151   0.08724
 Alpha virt. eigenvalues --    0.09220   0.10223   0.11161   0.11628   0.12385
 Alpha virt. eigenvalues --    0.12728   0.13468   0.13535   0.13809   0.14363

 Mulliken charges:
               1
     1  F   -0.119155
     2  O   -2.883027
     3  C    4.358303
     4  C   -0.902063
     5  C   -2.025438
     6  N   -3.517455
     7  C   -0.170473
     8  C   -0.936577
     9  H    1.621626
    10  H    1.367372
    11  H    1.662214
    12  H    1.544671
 Sum of Mulliken charges =  -0.00000

 Dipole moment (field-independent basis, Debye):
    X=              0.7591    Y=              2.0931    Z=              0.8036  Tot=              2.3671

 Test job not archived.
 1\1\GINC-SE424\SP\RHF\Aug-CC-pVDZ\C5H4F1N1O1\OHZDE\08-Apr-2025\0\\#t h
 f aug-cc-pvdz iop(5/13=1,5/36=2,99/5=2) pseudo=read geom=check guess=(
 read,tcheck) scf=(maxcycle=1)\\title\\0,1\F,0,2.572031,0.194825,0.6209
 62\O,0,1.792953,-0.27024,-0.573124\C,0,0.479405,-0.102061,-0.256985\C,
 0,-0.107036,1.164356,-0.214512\C,0,-0.308048,-1.239,-0.056785\N,0,-1.6
 24377,-1.175115,0.143015\C,0,-1.472508,1.231444,0.013791\C,0,-2.182063
 ,0.038844,0.183691\H,0,0.504923,2.046819,-0.355218\H,0,-1.987759,2.183
 25,0.057903\H,0,0.155276,-2.220205,-0.090287\H,0,-3.252208,0.062932,0.

 Normal termination of Gaussian 16 at Tue Apr  8 23:22:15 2025.
