 Gaussian 16, Revision C.01,

 ----------------------------------------------------------------------
 #t hf aug-cc-pvdz symm=none int=(grid=ultrafine) guess=(read,tcheck) s
 table=(opt,rrhf)
 ----------------------------------------------------------------------
 -----
 title
 -----
 Symbolic Z-matrix:
 Charge =  0 Multiplicity = 1

 SCF Done:  E(RHF) =  -840.764278748     A.U. after   15 cycles
 Normal termination of Gaussian 16 at Tue Apr  8 23:20:45 2025.
 Gaussian 16:  ES64L-G16RevC.01  3-Jul-2019

 ----------------------------------------------------------------------
 #t hf aug-cc-pvdz iop(5/13=1,5/36=2,99/5=2) pseudo=read geom=check gue
 ss=(read,tcheck) scf=(maxcycle=1)
 ----------------------------------------------------------------------
 -----
 title
 -----
 Structure from the checkpoint file:  "BDE49_nonexpt_1073_mol1.chk"
 Charge =  0 Multiplicity = 1

                         Standard orientation:
 ---------------------------------------------------------------------
 Center     Atomic      Atomic             Coordinates (Angstroms)
 Number     Number       Type             X           Y           Z
 ---------------------------------------------------------------------
      1         17           0       -2.157297   -0.594532   -0.268877
      2          8           0       -0.490183   -0.438523   -0.726046
      3          6           0        0.392746    0.051669    0.344376
      4          8           0        0.072772    1.332900    0.711263
      5          8           0        1.616634    0.060756   -0.320840
      6          6           0        0.149481    2.333061   -0.316401
      7          1           0       -0.291739    3.228115    0.118450
      8          1           0       -0.420047    2.028556   -1.196408
      9          1           0        1.187051    2.524046   -0.594490
     10          6           0        2.202208   -1.193091   -0.683719
     11          1           0        3.050145   -0.947199   -1.321246
     12          1           0        1.497603   -1.814441   -1.238765
     13          1           0        2.563827   -1.732393    0.197199
     14          6           0        0.340251   -0.818406    1.588884
     15          1           0       -0.606166   -0.666335    2.104020
     16          1           0        1.152250   -0.520331    2.253337
     17          1           0        0.439221   -1.873434    1.334963
 ---------------------------------------------------------------------

 SCF Done:  E(RHF) =  -842.716912335     A.U. after    2 cycles

 The electronic state is 1-A.
 Alpha  occ. eigenvalues --  -99.92999 -21.10118 -21.06202 -21.05905 -11.53331
 Alpha  occ. eigenvalues --  -11.41713 -11.40682 -11.38330 -10.49740  -9.69701
 Alpha  occ. eigenvalues --   -9.68948  -9.68794  -1.88858  -1.71924  -1.70446
 Alpha  occ. eigenvalues --   -1.24324  -1.12063  -1.01739  -0.98314  -0.80453
 Alpha  occ. eigenvalues --   -0.68026  -0.67269  -0.66771  -0.62230  -0.60588
 Alpha  occ. eigenvalues --   -0.58666  -0.57130  -0.56059  -0.54700  -0.54348
 Alpha  occ. eigenvalues --   -0.50041  -0.47052  -0.39863  -0.39361  -0.34783
 Alpha  occ. eigenvalues --   -0.32416  -0.31115
 Alpha virt. eigenvalues --    0.03747   0.04705   0.05183   0.05438   0.05633
 Alpha virt. eigenvalues --    0.06053   0.06452   0.06962   0.07646   0.09306
 Alpha virt. eigenvalues --    0.09941   0.12532   0.12745   0.14085   0.14551

 Mulliken charges:
               1
     1  Cl   0.236934
     2  O   -2.727772
     3  C    9.562859
     4  O   -3.770937
     5  O   -4.082492
     6  C   -3.441805
     7  H    1.267034
     8  H    1.245382
     9  H    1.449517
    10  C   -3.406299
    11  H    1.348331
    12  H    1.342916
    13  H    1.516361
    14  C   -4.282474
    15  H    1.237118
    16  H    1.262479
    17  H    1.242847
 Sum of Mulliken charges =  -0.00000

 Dipole moment (field-independent basis, Debye):
    X=              3.5462    Y=              0.2826    Z=             -0.2587  Tot=              3.5668

 Test job not archived.
 1\1\GINC-SE092\SP\RHF\Aug-CC-pVDZ\C4H9Cl1O3\OHZDE\08-Apr-2025\0\\#t hf
  aug-cc-pvdz iop(5/13=1,5/36=2,99/5=2) pseudo=read geom=check guess=(r
 ead,tcheck) scf=(maxcycle=1)\\title\\0,1\Cl,0,-2.157297,-0.594532,-0.2
 68877\O,0,-0.490183,-0.438523,-0.726046\C,0,0.392746,0.051669,0.344376
 \O,0,0.072772,1.3329,0.711263\O,0,1.616634,0.060756,-0.32084\C,0,0.149
 481,2.333061,-0.316401\H,0,-0.29174,3.228115,0.11845\H,0,-0.420047,2.0
 28556,-1.196408\H,0,1.18705,2.524046,-0.59449\C,0,2.202208,-1.193091,-
 0.683719\H,0,3.050145,-0.947198,-1.321246\H,0,1.497603,-1.814441,-1.23

 Normal termination of Gaussian 16 at Tue Apr  8 23:20:53 2025.
