 Gaussian 16, Revision C.01,

 ----------------------------------------------------------------------
 #t hf aug-cc-pvdz symm=none int=(grid=ultrafine) guess=(read,tcheck) s
 table=(opt,rrhf)
 ----------------------------------------------------------------------
 -----
 title
 -----
 Symbolic Z-matrix:
 Charge =  0 Multiplicity = 1

 SCF Done:  E(RHF) =  -228.654161384     A.U. after   14 cycles
 Normal termination of Gaussian 16 at Tue Apr  8 22:54:34 2025.
 Gaussian 16:  ES64L-G16RevC.01  3-Jul-2019

 ----------------------------------------------------------------------
 #t hf aug-cc-pvdz iop(5/13=1,5/36=2,99/5=2) pseudo=read geom=check gue
 ss=(read,tcheck) scf=(maxcycle=1)
 ----------------------------------------------------------------------
 -----
 title
 -----
 Structure from the checkpoint file:  "BDE49_expt_1809_mol1.chk"
 Charge =  0 Multiplicity = 1

                         Standard orientation:
 ---------------------------------------------------------------------
 Center     Atomic      Atomic             Coordinates (Angstroms)
 Number     Number       Type             X           Y           Z
 ---------------------------------------------------------------------
      1          7           0        0.000000    0.562066    0.000000
      2          8           0        1.074784    0.204980   -0.000000
      3          9           0       -0.955363   -0.619367    0.000000
 ---------------------------------------------------------------------

 SCF Done:  E(RHF) =  -229.514902561     A.U. after    2 cycles

 The electronic state is 1-A'.
 Alpha  occ. eigenvalues --  -29.26092 -21.25213 -16.02968  -2.01384  -1.12649
 Alpha  occ. eigenvalues --   -0.78223  -0.67612  -0.65682  -0.45076  -0.28760
 Alpha  occ. eigenvalues --   -0.27732  -0.26336
 Alpha virt. eigenvalues --    0.10676   0.11076   0.13334   0.14489   0.18514
 Alpha virt. eigenvalues --    0.19952   0.21780   0.25875   0.26728   0.33149
 Alpha virt. eigenvalues --    0.34036   0.38273   0.41858   0.54179   0.57159

 Mulliken charges:
               1
     1  N    1.527148
     2  O   -1.752477
     3  F    0.225329
 Sum of Mulliken charges =   0.00000

 Dipole moment (field-independent basis, Debye):
    X=             -1.2251    Y=             -1.5565    Z=              0.0000  Tot=              1.9808

 Test job not archived.
 1\1\GINC-SE393\SP\RHF\Aug-CC-pVDZ\F1N1O1\OHZDE\08-Apr-2025\0\\#t hf au
 g-cc-pvdz iop(5/13=1,5/36=2,99/5=2) pseudo=read geom=check guess=(read
 ,tcheck) scf=(maxcycle=1)\\title\\0,1\N,0,0.,0.562066,0.\O,0,1.074784,
 0.204981,0.\F,0,-0.955363,-0.619367,0.\\Version=ES64L-G16RevC.01\State
 =1-A'\HF=-229.5149026\RMSD=7.939e-02\Dipole=-0.4820008,-0.6123807,0.\Q
 uadrupole=-0.1108034,-0.5937777,0.7045811,0.4692181,0.,0.\PG=CS [SG(F1
 N1O1)]\\@

 Normal termination of Gaussian 16 at Tue Apr  8 22:54:35 2025.
