 Gaussian 16, Revision C.01,

 ----------------------------------------------------------------------
 #t hf aug-cc-pvdz symm=none int=(grid=ultrafine) guess=(read,tcheck) s
 table=(opt,rrhf)
 ----------------------------------------------------------------------
 -----
 title
 -----
 Symbolic Z-matrix:
 Charge =  0 Multiplicity = 1

 SCF Done:  E(RHF) =  -2042.80946591     A.U. after   16 cycles
 Normal termination of Gaussian 16 at Tue Apr  8 23:29:11 2025.
 Gaussian 16:  ES64L-G16RevC.01  3-Jul-2019

 ----------------------------------------------------------------------
 #t hf aug-cc-pvdz iop(5/13=1,5/36=2,99/5=2) pseudo=read geom=check gue
 ss=(read,tcheck) scf=(maxcycle=1)
 ----------------------------------------------------------------------
 -----
 title
 -----
 Structure from the checkpoint file:  "BDE49_nonexpt_1250_mol1.chk"
 Charge =  0 Multiplicity = 1

                         Standard orientation:
 ---------------------------------------------------------------------
 Center     Atomic      Atomic             Coordinates (Angstroms)
 Number     Number       Type             X           Y           Z
 ---------------------------------------------------------------------
      1          6           0        0.258380   -0.038906   -0.271959
      2          6           0       -1.236285   -0.203899   -0.124483
      3          6           0       -2.012442   -0.585579   -1.223869
      4          1           0       -1.544761   -0.711322   -2.194374
      5          6           0       -3.379211   -0.795422   -1.078206
      6          1           0       -3.973390   -1.085410   -1.937154
      7          6           0       -3.985614   -0.624472    0.166324
      8          1           0       -5.051849   -0.784957    0.277037
      9          6           0       -3.219219   -0.240386    1.263397
     10          1           0       -3.686872   -0.098560    2.230843
     11          6           0       -1.849182   -0.031709    1.122928
     12          1           0       -1.257200    0.291485    1.970803
     13          7           0        0.660376    1.227730    0.394846
     14         15           0        1.033148   -1.498995    0.684699
     15         17           0       -0.025706    2.602381   -0.541738
     16         17           0        2.437048    1.403376    0.363642
     17         17           0        2.717105   -2.011489   -0.482423
     18          1           0        0.184709   -2.428029    0.042189
     19          1           0        0.567341   -0.072694   -1.319728
 ---------------------------------------------------------------------

 SCF Done:  E(RHF) =  -2045.28979074     A.U. after    2 cycles

 The electronic state is 1-A.
 Alpha  occ. eigenvalues -- -105.24849 -99.92644 -99.92425 -99.88913 -15.85099
 Alpha  occ. eigenvalues --  -11.54064 -11.48978 -11.45374 -11.45145 -11.42742
 Alpha  occ. eigenvalues --  -11.42313 -11.38039 -10.49751 -10.49472 -10.46175
 Alpha  occ. eigenvalues --   -9.69717  -9.69312  -9.68939  -9.68746  -9.68654
 Alpha  occ. eigenvalues --   -9.68485  -9.66076  -9.65443  -9.65326  -2.81601
 Alpha  occ. eigenvalues --   -1.55599  -1.51224  -1.50515  -1.48415  -1.35990
 Alpha  occ. eigenvalues --   -1.30402  -1.22953  -1.19850  -1.11364  -1.10365
 Alpha  occ. eigenvalues --   -0.95716  -0.88534  -0.84817  -0.75725  -0.73295
 Alpha  occ. eigenvalues --   -0.69801  -0.68288  -0.65810  -0.62369  -0.59801
 Alpha  occ. eigenvalues --   -0.59318  -0.56357  -0.54728  -0.54171  -0.52974
 Alpha  occ. eigenvalues --   -0.52462  -0.52000  -0.50119  -0.46305  -0.45732
 Alpha  occ. eigenvalues --   -0.41895  -0.40535  -0.34967  -0.34812  -0.26767
 Alpha  occ. eigenvalues --   -0.06757
 Alpha virt. eigenvalues --    0.00308   0.03221   0.04694   0.04747   0.06123
 Alpha virt. eigenvalues --    0.06432   0.06808   0.07353   0.07731   0.08213
 Alpha virt. eigenvalues --    0.09305   0.09829   0.10448   0.10717   0.11642

 Mulliken charges:
               1
     1  C   -2.929397
     2  C    7.285684
     3  C   -3.161829
     4  H    1.801326
     5  C   -1.777421
     6  H    1.511035
     7  C   -3.156363
     8  H    1.597698
     9  C   -1.592351
    10  H    1.525853
    11  C   -3.664270
    12  H    1.817107
    13  N   -1.605312
    14  P    3.022368
    15  Cl   0.125033
    16  Cl   0.308979
    17  Cl  -1.292966
    18  H   -0.947956
    19  H    1.132784
 Sum of Mulliken charges =   0.00000

 Dipole moment (field-independent basis, Debye):
    X=             -1.6079    Y=             -2.4048    Z=              4.2700  Tot=              5.1577

 Test job not archived.
 1\1\GINC-SE041\SP\RHF\Aug-CC-pVDZ\C7H7Cl3N1P1\OHZDE\08-Apr-2025\0\\#t
 hf aug-cc-pvdz iop(5/13=1,5/36=2,99/5=2) pseudo=read geom=check guess=
 (read,tcheck) scf=(maxcycle=1)\\title\\0,1\C,0,0.25838,-0.038906,-0.27
 1959\C,0,-1.236285,-0.203899,-0.124483\C,0,-2.012442,-0.585579,-1.2238
 69\H,0,-1.544761,-0.711322,-2.194374\C,0,-3.379211,-0.795422,-1.078206
 \H,0,-3.97339,-1.08541,-1.937154\C,0,-3.985614,-0.624472,0.166324\H,0,
 -5.051849,-0.784957,0.277037\C,0,-3.219219,-0.240386,1.263397\H,0,-3.6
 86872,-0.09856,2.230843\C,0,-1.849182,-0.031709,1.122928\H,0,-1.2572,0

 Normal termination of Gaussian 16 at Tue Apr  8 23:29:28 2025.
