 Gaussian 16, Revision C.01,

 ----------------------------------------------------------------------
 #t hf aug-cc-pvdz symm=none int=(grid=ultrafine) guess=(read,tcheck) s
 table=(opt,rrhf)
 ----------------------------------------------------------------------
 -----
 title
 -----
 Symbolic Z-matrix:
 Charge =  0 Multiplicity = 1

 SCF Done:  E(RHF) =  -551.979073259     A.U. after   16 cycles
 Normal termination of Gaussian 16 at Wed Apr  9 00:39:12 2025.
 Gaussian 16:  ES64L-G16RevC.01  3-Jul-2019

 ----------------------------------------------------------------------
 #t hf aug-cc-pvdz iop(5/13=1,5/36=2,99/5=2) pseudo=read geom=check gue
 ss=(read,tcheck) scf=(maxcycle=1)
 ----------------------------------------------------------------------
 -----
 title
 -----
 Structure from the checkpoint file:  "BDE49_nonexpt_564_mol1.chk"
 Charge =  0 Multiplicity = 1

                         Standard orientation:
 ---------------------------------------------------------------------
 Center     Atomic      Atomic             Coordinates (Angstroms)
 Number     Number       Type             X           Y           Z
 ---------------------------------------------------------------------
      1          7           0        0.209593   -0.105589   -0.342473
      2          7           0        0.747944   -1.331458    0.002533
      3          5           0        0.946449    1.159676   -0.129835
      4          8           0        0.098527   -2.331425   -0.247636
      5          8           0        1.861012   -1.347584    0.542587
      6          8           0        2.165164    1.249000    0.440488
      7          8           0        0.289798    2.273632   -0.566906
      8          6           0       -1.123761   -0.148856   -0.975450
      9          6           0       -2.282510   -0.377740    0.003721
     10          1           0       -1.112325   -0.929666   -1.736597
     11          1           0       -1.231237    0.815006   -1.470452
     12          6           0       -2.420231    0.700955    1.081292
     13          1           0       -2.176673   -1.363511    0.462743
     14          1           0       -3.196824   -0.415606   -0.598911
     15          1           0       -1.546006    0.727310    1.737240
     16          1           0       -3.292788    0.506950    1.709870
     17          1           0       -2.534311    1.695127    0.640995
     18          1           0        0.812686    3.065510   -0.406774
     19          1           0        2.485475    0.364681    0.685000
 ---------------------------------------------------------------------

 SCF Done:  E(RHF) =  -554.392773340     A.U. after    2 cycles

 The electronic state is 1-A.
 Alpha  occ. eigenvalues --  -21.10535 -21.09415 -21.07498 -21.05807 -16.03542
 Alpha  occ. eigenvalues --  -15.78400 -11.46328 -11.40786 -11.36516  -7.69788
 Alpha  occ. eigenvalues --   -2.02829  -1.84766  -1.71163  -1.67749  -1.46511
 Alpha  occ. eigenvalues --   -1.20360  -1.03866  -0.95056  -0.86702  -0.79079
 Alpha  occ. eigenvalues --   -0.73430  -0.70593  -0.69048  -0.64490  -0.62323
 Alpha  occ. eigenvalues --   -0.61410  -0.59068  -0.55964  -0.52637  -0.49980
 Alpha  occ. eigenvalues --   -0.48545  -0.47947  -0.46322  -0.41408  -0.38331
 Alpha  occ. eigenvalues --   -0.37252  -0.36474  -0.33132  -0.32142
 Alpha virt. eigenvalues --    0.03489   0.04282   0.04867   0.05418   0.05666
 Alpha virt. eigenvalues --    0.06174   0.06964   0.07132   0.07307   0.08239
 Alpha virt. eigenvalues --    0.09062   0.09298   0.09689   0.13316   0.13626

 Mulliken charges:
               1
     1  N   -2.736003
     2  N    7.299015
     3  B    6.928449
     4  O   -3.085803
     5  O   -3.113281
     6  O   -4.542066
     7  O   -4.423219
     8  C   -2.519132
     9  C   -2.836398
    10  H    1.573274
    11  H    1.811398
    12  C   -3.879437
    13  H    1.607398
    14  H    1.273955
    15  H    1.406576
    16  H    1.081870
    17  H    1.412650
    18  H    1.030409
    19  H    1.710347
 Sum of Mulliken charges =  -0.00000

 Dipole moment (field-independent basis, Debye):
    X=             -1.3894    Y=              1.1818    Z=             -0.5765  Tot=              1.9129

 Test job not archived.
 1\1\GINC-SE367\SP\RHF\Aug-CC-pVDZ\C3H9B1N2O4\OHZDE\09-Apr-2025\0\\#t h
 f aug-cc-pvdz iop(5/13=1,5/36=2,99/5=2) pseudo=read geom=check guess=(
 read,tcheck) scf=(maxcycle=1)\\title\\0,1\N,0,0.209593,-0.105589,-0.34
 2473\N,0,0.747944,-1.331458,0.002533\B,0,0.946449,1.159676,-0.129835\O
 ,0,0.098527,-2.331425,-0.247636\O,0,1.861012,-1.347584,0.542587\O,0,2.
 165164,1.249,0.440488\O,0,0.289798,2.273632,-0.566906\C,0,-1.123761,-0
 .148856,-0.97545\C,0,-2.28251,-0.37774,0.003721\H,0,-1.112325,-0.92966
 6,-1.736597\H,0,-1.231237,0.815006,-1.470452\C,0,-2.420231,0.700955,1.

 Normal termination of Gaussian 16 at Wed Apr  9 00:39:20 2025.
