 Gaussian 16, Revision C.01,

 ----------------------------------------------------------------------
 #t hf aug-cc-pvdz symm=none int=(grid=ultrafine) guess=(read,tcheck) s
 table=(opt,rrhf)
 ----------------------------------------------------------------------
 -----
 title
 -----
 Symbolic Z-matrix:
 Charge =  0 Multiplicity = 1

 SCF Done:  E(RHF) =  -504.747707358     A.U. after   15 cycles
 Normal termination of Gaussian 16 at Wed Apr  9 00:40:48 2025.
 Gaussian 16:  ES64L-G16RevC.01  3-Jul-2019

 ----------------------------------------------------------------------
 #t hf aug-cc-pvdz iop(5/13=1,5/36=2,99/5=2) pseudo=read geom=check gue
 ss=(read,tcheck) scf=(maxcycle=1)
 ----------------------------------------------------------------------
 -----
 title
 -----
 Structure from the checkpoint file:  "BDE49_nonexpt_631_mol1.chk"
 Charge =  0 Multiplicity = 1

                         Standard orientation:
 ---------------------------------------------------------------------
 Center     Atomic      Atomic             Coordinates (Angstroms)
 Number     Number       Type             X           Y           Z
 ---------------------------------------------------------------------
      1          9           0        0.070495    2.121833   -0.000002
      2          8           0        2.535241    0.836466    0.000002
      3          8           0        2.356158   -1.501737    0.000001
      4          6           0       -0.556708   -1.455476    0.000000
      5          1           0       -0.005235   -2.388046    0.000001
      6          6           0       -1.964140    0.948522   -0.000001
      7          1           0       -2.476985    1.902082   -0.000002
      8          6           0       -2.651525   -0.262274   -0.000001
      9          1           0       -3.735421   -0.261157   -0.000001
     10          6           0        0.175844   -0.255398    0.000000
     11          6           0       -1.947448   -1.466226    0.000000
     12          1           0       -2.483417   -2.408029    0.000000
     13          6           0       -0.580324    0.914332   -0.000001
     14          5           0        1.748464   -0.278684    0.000000
     15          1           0        3.315540   -1.418230    0.000002
     16          1           0        2.023360    1.651592    0.000003
 ---------------------------------------------------------------------

 SCF Done:  E(RHF) =  -506.890949703     A.U. after    2 cycles

 The electronic state is 1-A.
 Alpha  occ. eigenvalues --  -29.29427 -21.05410 -21.05347 -11.54497 -11.48065
 Alpha  occ. eigenvalues --  -11.44126 -11.42162 -11.41675 -11.37686  -7.66695
 Alpha  occ. eigenvalues --   -1.81914  -1.65539  -1.37453  -1.15335  -1.11926
 Alpha  occ. eigenvalues --   -0.92942  -0.89906  -0.78977  -0.75543  -0.66999
 Alpha  occ. eigenvalues --   -0.65107  -0.63045  -0.60541  -0.56722  -0.56068
 Alpha  occ. eigenvalues --   -0.50477  -0.48957  -0.48005  -0.42759  -0.41763
 Alpha  occ. eigenvalues --   -0.40875  -0.36470  -0.36227  -0.34493  -0.27783
 Alpha  occ. eigenvalues --   -0.24604
 Alpha virt. eigenvalues --    0.03320   0.04958   0.05276   0.05569   0.05988
 Alpha virt. eigenvalues --    0.06114   0.07141   0.08190   0.09362   0.09640
 Alpha virt. eigenvalues --    0.10364   0.12152   0.12880   0.13471   0.14164

 Mulliken charges:
               1
     1  F    0.686703
     2  O   -4.387820
     3  O   -4.279416
     4  C    2.079338
     5  H    2.009244
     6  C   -5.481293
     7  H    1.768620
     8  C   -0.732025
     9  H    1.495269
    10  C   -6.280644
    11  C   -2.592555
    12  H    1.505544
    13  C    6.870203
    14  B    4.765124
    15  H    1.064347
    16  H    1.509360
 Sum of Mulliken charges =  -0.00000

 Dipole moment (field-independent basis, Debye):
    X=             -0.2379    Y=              2.4698    Z=             -0.0000  Tot=              2.4812

 Test job not archived.
 1\1\GINC-SE460\SP\RHF\Aug-CC-pVDZ\C6H6B1F1O2\OHZDE\09-Apr-2025\0\\#t h
 f aug-cc-pvdz iop(5/13=1,5/36=2,99/5=2) pseudo=read geom=check guess=(
 read,tcheck) scf=(maxcycle=1)\\title\\0,1\F,0,-0.070495,2.121833,0.000
 002\O,0,-2.535241,0.836466,-0.000002\O,0,-2.356158,-1.501737,-0.000001
 \C,0,0.556708,-1.455476,0.\H,0,0.005235,-2.388046,-0.000001\C,0,1.9641
 4,0.948522,0.000001\H,0,2.476985,1.902082,0.000002\C,0,2.651525,-0.262
 274,0.000001\H,0,3.735421,-0.261156,0.000001\C,0,-0.175844,-0.255398,0
 .\C,0,1.947448,-1.466226,0.\H,0,2.483417,-2.408029,0.\C,0,0.580324,0.9

 Normal termination of Gaussian 16 at Wed Apr  9 00:40:55 2025.
