 Gaussian 16, Revision C.01,

 ----------------------------------------------------------------------
 #t hf aug-cc-pvdz symm=none int=(grid=ultrafine) guess=(read,tcheck) s
 table=(opt,rrhf)
 ----------------------------------------------------------------------
 -----
 title
 -----
 Symbolic Z-matrix:
 Charge =  0 Multiplicity = 1

 SCF Done:  E(RHF) =  -694.320042955     A.U. after   12 cycles
 Normal termination of Gaussian 16 at Tue Apr  8 22:50:23 2025.
 Gaussian 16:  ES64L-G16RevC.01  3-Jul-2019

 ----------------------------------------------------------------------
 #t hf aug-cc-pvdz iop(5/13=1,5/36=2,99/5=2) pseudo=read geom=check gue
 ss=(read,tcheck) scf=(maxcycle=1)
 ----------------------------------------------------------------------
 -----
 title
 -----
 Structure from the checkpoint file:  "BDE49_expt_1661_mol1.chk"
 Charge =  0 Multiplicity = 1

                         Standard orientation:
 ---------------------------------------------------------------------
 Center     Atomic      Atomic             Coordinates (Angstroms)
 Number     Number       Type             X           Y           Z
 ---------------------------------------------------------------------
      1          6           0       -2.230033    0.824351    0.311319
      2          6           0       -0.831143    1.038469   -0.245360
      3          1           0       -2.934031    1.560270   -0.072817
      4          1           0       -2.244705    0.845920    1.400802
      5         17           0       -2.928595   -0.796584   -0.155282
      6          6           0        0.243047    0.117184    0.340857
      7          1           0       -0.569078    2.084513   -0.035293
      8          1           0       -0.860262    0.938954   -1.335393
      9          6           0        1.640720    0.390925   -0.225442
     10          1           0       -0.030706   -0.925209    0.148657
     11          1           0        0.262727    0.235553    1.431983
     12          6           0        2.724758   -0.523501    0.356490
     13          1           0        1.913376    1.437853   -0.037948
     14          1           0        1.618139    0.273524   -1.316515
     15          6           0        4.118358   -0.248438   -0.215383
     16          1           0        2.452152   -1.568787    0.168730
     17          1           0        2.747721   -0.406785    1.446730
     18          1           0        4.136005   -0.391748   -1.300273
     19          1           0        4.867021   -0.916126    0.219369
     20          1           0        4.433510    0.780057   -0.013129
 ---------------------------------------------------------------------

 SCF Done:  E(RHF) =  -695.799183772     A.U. after    2 cycles

 The electronic state is 1-A.
 Alpha  occ. eigenvalues --  -99.86918 -11.45542 -11.42419 -11.41429 -11.38845
 Alpha  occ. eigenvalues --  -11.36715 -11.34435 -10.44157  -9.64065  -9.63459
 Alpha  occ. eigenvalues --   -9.63327  -1.33708  -1.24867  -1.14724  -1.03795
 Alpha  occ. eigenvalues --   -0.93316  -0.85158  -0.82470  -0.67395  -0.64858
 Alpha  occ. eigenvalues --   -0.62898  -0.59590  -0.57303  -0.55827  -0.53840
 Alpha  occ. eigenvalues --   -0.51788  -0.48862  -0.47714  -0.47028  -0.45772
 Alpha  occ. eigenvalues --   -0.45290  -0.44718  -0.39958
 Alpha virt. eigenvalues --    0.03872   0.04431   0.05000   0.05512   0.05819
 Alpha virt. eigenvalues --    0.06021   0.06283   0.06992   0.07612   0.08142
 Alpha virt. eigenvalues --    0.08452   0.08776   0.09463   0.10721   0.11202

 Mulliken charges:
               1
     1  C   -4.506194
     2  C   -2.537872
     3  H    1.419576
     4  H    1.694703
     5  Cl   0.084768
     6  C   -2.190339
     7  H    1.382487
     8  H    1.477236
     9  C   -2.198495
    10  H    1.532044
    11  H    1.510052
    12  C   -3.080298
    13  H    1.551839
    14  H    1.592113
    15  C   -4.352289
    16  H    1.456069
    17  H    1.444215
    18  H    1.320533
    19  H    1.078233
    20  H    1.321621
 Sum of Mulliken charges =  -0.00000

 Dipole moment (field-independent basis, Debye):
    X=              1.3827    Y=              2.0073    Z=              0.5451  Tot=              2.4976

 Test job not archived.
 1\1\GINC-SE016\SP\RHF\Aug-CC-pVDZ\C6H13Cl1\OHZDE\08-Apr-2025\0\\#t hf
 aug-cc-pvdz iop(5/13=1,5/36=2,99/5=2) pseudo=read geom=check guess=(re
 ad,tcheck) scf=(maxcycle=1)\\title\\0,1\C,0,-2.230033,0.824351,0.31131
 9\C,0,-0.831143,1.038469,-0.24536\H,0,-2.934031,1.56027,-0.072817\H,0,
 -2.244705,0.84592,1.400802\Cl,0,-2.928595,-0.796584,-0.155282\C,0,0.24
 3047,0.117184,0.340857\H,0,-0.569078,2.084513,-0.035293\H,0,-0.860262,
 0.938954,-1.335393\C,0,1.64072,0.390925,-0.225442\H,0,-0.030706,-0.925
 209,0.148657\H,0,0.262727,0.235553,1.431983\C,0,2.724758,-0.523501,0.3

 Normal termination of Gaussian 16 at Tue Apr  8 22:50:31 2025.
