 Gaussian 16, Revision C.01,

 ----------------------------------------------------------------------
 #t hf aug-cc-pvdz symm=none int=(grid=ultrafine) guess=(read,tcheck) s
 table=(opt,rrhf)
 ----------------------------------------------------------------------
 -----
 title
 -----
 Symbolic Z-matrix:
 Charge =  0 Multiplicity = 1

 SCF Done:  E(RHF) =  -1607.49033109     A.U. after   14 cycles

 1\1\GINC-SE403\Stability\RHF\Aug-CC-pVDZ\C6H3Cl3\OHZDE\08-Apr-2025\0\\
 #t hf aug-cc-pvdz symm=none int=(grid=ultrafine) guess=(read,tcheck) s
 table=(opt,rrhf)\\title\\0,1\C,0,0.70247,-1.216712,0.\C,0,-0.688368,-1
 .192291,0.\C,0,-1.404934,0.,0.\C,0,-0.688368,1.192291,0.\C,0,0.70247,1
 .216712,0.\C,0,1.376735,0.,0.\H,0,1.242648,-2.152315,0.\Cl,0,-1.56342,
 -2.707908,0.\Cl,0,3.126836,0.,0.\Cl,0,-1.563419,2.707908,0.\H,0,-2.485
 279,0.,0.\H,0,1.242649,2.152315,0.\\Version=ES64L-G16RevC.01\HF=-1607.
 4903311\RMSD=2.385e-09\Dipole=-0.0000191,0.0000005,0.\Quadrupole=0.571

 Normal termination of Gaussian 16 at Tue Apr  8 22:49:52 2025.
 Gaussian 16:  ES64L-G16RevC.01  3-Jul-2019

 ----------------------------------------------------------------------
 #t hf aug-cc-pvdz iop(5/13=1,5/36=2,99/5=2) pseudo=read geom=check gue
 ss=(read,tcheck) scf=(maxcycle=1)
 ----------------------------------------------------------------------
 -----
 title
 -----
 Structure from the checkpoint file:  "BDE49_expt_1682_mol1.chk"
 Charge =  0 Multiplicity = 1

                         Standard orientation:
 ---------------------------------------------------------------------
 Center     Atomic      Atomic             Coordinates (Angstroms)
 Number     Number       Type             X           Y           Z
 ---------------------------------------------------------------------
      1          6           0        1.216712    0.702470    0.000000
      2          6           0        1.192291   -0.688368    0.000000
      3          6           0        0.000000   -1.404934    0.000000
      4          6           0       -1.192291   -0.688368    0.000000
      5          6           0       -1.216712    0.702470    0.000000
      6          6           0        0.000000    1.376735    0.000000
      7          1           0        2.152315    1.242648    0.000000
      8         17           0        2.707908   -1.563420    0.000000
      9         17           0        0.000000    3.126836    0.000000
     10         17           0       -2.707908   -1.563419    0.000000
     11          1           0        0.000000   -2.485279    0.000000
     12          1           0       -2.152315    1.242649    0.000000
 ---------------------------------------------------------------------

 SCF Done:  E(RHF) =  -1609.30834929     A.U. after    2 cycles

 The electronic state is 1-A'.
 Alpha  occ. eigenvalues --  -99.91389 -99.91389 -99.91374 -11.54610 -11.49775
 Alpha  occ. eigenvalues --  -11.49775 -11.46680 -11.46679 -11.42501 -10.48746
 Alpha  occ. eigenvalues --  -10.48746 -10.48730  -9.68761  -9.68733  -9.68733
 Alpha  occ. eigenvalues --   -9.67881  -9.67881  -9.67817  -9.67690  -9.67690
 Alpha  occ. eigenvalues --   -9.67670  -1.46588  -1.35928  -1.35928  -1.24733
 Alpha  occ. eigenvalues --   -1.11043  -1.11043  -0.90221  -0.90221  -0.75450
 Alpha  occ. eigenvalues --   -0.70547  -0.67969  -0.63138  -0.63138  -0.61877
 Alpha  occ. eigenvalues --   -0.57282  -0.57282  -0.55727  -0.55727  -0.50094
 Alpha  occ. eigenvalues --   -0.50094  -0.48835  -0.48735  -0.36339  -0.36338
 Alpha virt. eigenvalues --    0.02686   0.04933   0.05576   0.05576   0.07395
 Alpha virt. eigenvalues --    0.07395   0.07582   0.07582   0.09928   0.11042
 Alpha virt. eigenvalues --    0.11042   0.11736   0.12948   0.13394   0.13394

 Mulliken charges:
               1
     1  C    0.016959
     2  C   -0.998120
     3  C    0.016992
     4  C   -0.998111
     5  C    0.016955
     6  C   -0.998066
     7  H    1.746110
     8  Cl  -0.764982
     9  Cl  -0.764980
    10  Cl  -0.764982
    11  H    1.746116
    12  H    1.746109
 Sum of Mulliken charges =  -0.00000

 Dipole moment (field-independent basis, Debye):
    X=             -0.0000    Y=             -0.0000    Z=              0.0000  Tot=              0.0000

 Test job not archived.
 1\1\GINC-SE403\SP\RHF\Aug-CC-pVDZ\C6H3Cl3\OHZDE\08-Apr-2025\0\\#t hf a
 ug-cc-pvdz iop(5/13=1,5/36=2,99/5=2) pseudo=read geom=check guess=(rea
 d,tcheck) scf=(maxcycle=1)\\title\\0,1\C,0,0.70247,-1.216712,0.\C,0,-0
 .688368,-1.192291,0.\C,0,-1.404934,0.,0.\C,0,-0.688368,1.192291,0.\C,0
 ,0.70247,1.216712,0.\C,0,1.376735,0.,0.\H,0,1.242648,-2.152315,0.\Cl,0
 ,-1.56342,-2.707908,0.\Cl,0,3.126836,0.,0.\Cl,0,-1.563419,2.707908,0.\
 H,0,-2.485279,0.,0.\H,0,1.242649,2.152315,0.\\Version=ES64L-G16RevC.01
 \State=1-A'\HF=-1609.3083493\RMSD=2.558e+00\Dipole=-0.0000163,0.000000

 Normal termination of Gaussian 16 at Tue Apr  8 22:50:00 2025.
