 Gaussian 16, Revision C.01,

 ----------------------------------------------------------------------
 #t hf aug-cc-pvdz symm=none int=(grid=ultrafine) guess=(read,tcheck) s
 table=(opt,rrhf)
 ----------------------------------------------------------------------
 -----
 title
 -----
 Symbolic Z-matrix:
 Charge =  0 Multiplicity = 1

 SCF Done:  E(RHF) =  -655.280595470     A.U. after   13 cycles
 Normal termination of Gaussian 16 at Tue Apr  8 22:49:16 2025.
 Gaussian 16:  ES64L-G16RevC.01  3-Jul-2019

 ----------------------------------------------------------------------
 #t hf aug-cc-pvdz iop(5/13=1,5/36=2,99/5=2) pseudo=read geom=check gue
 ss=(read,tcheck) scf=(maxcycle=1)
 ----------------------------------------------------------------------
 -----
 title
 -----
 Structure from the checkpoint file:  "BDE49_expt_1660_mol1.chk"
 Charge =  0 Multiplicity = 1

                         Standard orientation:
 ---------------------------------------------------------------------
 Center     Atomic      Atomic             Coordinates (Angstroms)
 Number     Number       Type             X           Y           Z
 ---------------------------------------------------------------------
      1          6           0        2.003969    0.928722   -0.000000
      2          6           0        0.784143   -0.017451   -0.000000
      3          6           0       -0.454456    0.893194   -0.000000
      4          6           0        0.818245   -0.895920   -1.261797
      5          1           0       -0.477697    1.523262   -0.888793
      6          1           0       -0.477698    1.523263    0.888791
      7         17           0       -2.047870    0.006078   -0.000000
      8          1           0        2.012982    1.570855   -0.885969
      9          1           0        2.930235    0.347792   -0.000000
     10          1           0        0.802973   -0.284765   -2.169675
     11          1           0       -0.037112   -1.573517   -1.296611
     12          1           0        1.730194   -1.499276   -1.278917
     13          6           0        0.818245   -0.895919    1.261798
     14          1           0        0.802972   -0.284763    2.169675
     15          1           0        1.730193   -1.499275    1.278919
     16          1           0       -0.037113   -1.573516    1.296612
     17          1           0        2.012982    1.570856    0.885968
 ---------------------------------------------------------------------

 SCF Done:  E(RHF) =  -656.559479354     A.U. after    2 cycles

 The electronic state is 1-A.
 Alpha  occ. eigenvalues --  -99.86899 -11.45130 -11.41625 -11.39242 -11.38738
 Alpha  occ. eigenvalues --  -11.35492 -10.44143  -9.64114  -9.63468  -9.63414
 Alpha  occ. eigenvalues --   -1.35255  -1.24241  -1.01335  -1.00904  -0.99141
 Alpha  occ. eigenvalues --   -0.78571  -0.66007  -0.64493  -0.62818  -0.58837
 Alpha  occ. eigenvalues --   -0.57197  -0.53089  -0.52871  -0.51812  -0.51032
 Alpha  occ. eigenvalues --   -0.47125  -0.43446  -0.42921  -0.42248
 Alpha virt. eigenvalues --    0.03374   0.05303   0.05556   0.05659   0.05843
 Alpha virt. eigenvalues --    0.05982   0.06326   0.06437   0.07158   0.08737
 Alpha virt. eigenvalues --    0.09432   0.09559   0.11642   0.13417   0.13870

 Mulliken charges:
               1
     1  C   -4.715898
     2  C    4.681716
     3  C   -4.622923
     4  C   -4.609412
     5  H    1.495381
     6  H    1.495381
     7  Cl  -0.020952
     8  H    1.248201
     9  H    1.193709
    10  H    1.171415
    11  H    1.184575
    12  H    1.252014
    13  C   -4.609412
    14  H    1.171416
    15  H    1.252014
    16  H    1.184574
    17  H    1.248201
 Sum of Mulliken charges =  -0.00000

 Dipole moment (field-independent basis, Debye):
    X=              2.4318    Y=              0.7931    Z=              0.0000  Tot=              2.5579

 Test job not archived.
 1\1\GINC-SE120\SP\RHF\Aug-CC-pVDZ\C5H11Cl1\OHZDE\08-Apr-2025\0\\#t hf
 aug-cc-pvdz iop(5/13=1,5/36=2,99/5=2) pseudo=read geom=check guess=(re
 ad,tcheck) scf=(maxcycle=1)\\title\\0,1\C,0,2.003969,0.928722,0.\C,0,0
 .784143,-0.017451,0.\C,0,-0.454456,0.893194,0.\C,0,0.818245,-0.89592,-
 1.261797\H,0,-0.477697,1.523262,-0.888793\H,0,-0.477698,1.523263,0.888
 791\Cl,0,-2.04787,0.006078,0.\H,0,2.012982,1.570855,-0.885969\H,0,2.93
 0235,0.347792,0.\H,0,0.802973,-0.284765,-2.169675\H,0,-0.037112,-1.573
 517,-1.296611\H,0,1.730194,-1.499276,-1.278917\C,0,0.818245,-0.895919,

 Normal termination of Gaussian 16 at Tue Apr  8 22:49:22 2025.
