 Gaussian 16, Revision C.01,

 ----------------------------------------------------------------------
 #t hf aug-cc-pvdz symm=none int=(grid=ultrafine) guess=(read,tcheck) s
 table=(opt,rrhf)
 ----------------------------------------------------------------------
 -----
 title
 -----
 Symbolic Z-matrix:
 Charge =  0 Multiplicity = 1

 SCF Done:  E(RHF) =  -214.045274843     A.U. after   13 cycles
 Normal termination of Gaussian 16 at Wed Apr  9 00:35:46 2025.
 Gaussian 16:  ES64L-G16RevC.01  3-Jul-2019

 ----------------------------------------------------------------------
 #t hf aug-cc-pvdz iop(5/13=1,5/36=2,99/5=2) pseudo=read geom=check gue
 ss=(read,tcheck) scf=(maxcycle=1)
 ----------------------------------------------------------------------
 -----
 title
 -----
 Structure from the checkpoint file:  "BDE49_nonexpt_476_mol1.chk"
 Charge =  0 Multiplicity = 1

                         Standard orientation:
 ---------------------------------------------------------------------
 Center     Atomic      Atomic             Coordinates (Angstroms)
 Number     Number       Type             X           Y           Z
 ---------------------------------------------------------------------
      1          1           0       -2.021207   -0.627344   -1.035789
      2          1           0       -2.021129   -0.627345    1.035815
      3          5           0       -1.457766   -0.491468   -0.000008
      4          6           0        0.011487    0.038630   -0.000071
      5          8           0        0.103787    1.249562    0.000016
      6          8           0        1.070410   -0.785830    0.000031
      7          1           0        1.868664   -0.229603    0.000063
 ---------------------------------------------------------------------

 SCF Done:  E(RHF) =  -214.934953761     A.U. after    2 cycles

 The electronic state is 1-A.
 Alpha  occ. eigenvalues --  -21.13587 -21.06292 -11.48328  -7.65019  -1.83523
 Alpha  occ. eigenvalues --   -1.65964  -0.98987  -0.76476  -0.61162  -0.58442
 Alpha  occ. eigenvalues --   -0.58265  -0.48418  -0.44478  -0.34435  -0.30229
 Alpha virt. eigenvalues --    0.03543   0.03992   0.04207   0.04623   0.07361
 Alpha virt. eigenvalues --    0.10011   0.10983   0.11520   0.14872   0.15394
 Alpha virt. eigenvalues --    0.15661   0.16772   0.19149   0.20448   0.21713

 Mulliken charges:
               1
     1  H   -2.997042
     2  H   -2.997037
     3  B    7.812200
     4  C    1.995811
     5  O   -2.227542
     6  O   -2.413499
     7  H    0.827109
 Sum of Mulliken charges =  -0.00000

 Dipole moment (field-independent basis, Debye):
    X=              0.6746    Y=             -0.8315    Z=              0.0001  Tot=              1.0708

 Test job not archived.
 1\1\GINC-SE342\SP\RHF\Aug-CC-pVDZ\C1H3B1O2\OHZDE\09-Apr-2025\0\\#t hf
 aug-cc-pvdz iop(5/13=1,5/36=2,99/5=2) pseudo=read geom=check guess=(re
 ad,tcheck) scf=(maxcycle=1)\\title\\0,1\H,0,2.021207,-0.627344,1.03578
 9\H,0,2.021129,-0.627345,-1.035815\B,0,1.457766,-0.491468,0.000008\C,0
 ,-0.011487,0.03863,0.000071\O,0,-0.103787,1.249562,-0.000016\O,0,-1.07
 041,-0.78583,-0.000031\H,0,-1.868664,-0.229603,-0.000063\\Version=ES64
 L-G16RevC.01\State=1-A\HF=-214.9349538\RMSD=1.590e-01\Dipole=-0.265411
 1,-0.3271554,-0.0000332\Quadrupole=1.4297355,-1.0952621,-0.3344734,-0.

 Normal termination of Gaussian 16 at Wed Apr  9 00:35:48 2025.
