 Gaussian 16, Revision C.01,

 ----------------------------------------------------------------------
 #t hf aug-cc-pvdz symm=none int=(grid=ultrafine) guess=(read,tcheck) s
 table=(opt,rrhf)
 ----------------------------------------------------------------------
 -----
 title
 -----
 Symbolic Z-matrix:
 Charge =  0 Multiplicity = 1

 SCF Done:  E(RHF) =  -743.387891176     A.U. after   15 cycles
 Normal termination of Gaussian 16 at Wed Apr  9 00:23:02 2025.
 Gaussian 16:  ES64L-G16RevC.01  3-Jul-2019

 ----------------------------------------------------------------------
 #t hf aug-cc-pvdz iop(5/13=1,5/36=2,99/5=2) pseudo=read geom=check gue
 ss=(read,tcheck) scf=(maxcycle=1)
 ----------------------------------------------------------------------
 -----
 title
 -----
 Structure from the checkpoint file:  "BDE49_nonexpt_2658_mol1.chk"
 Charge =  0 Multiplicity = 1

                         Standard orientation:
 ---------------------------------------------------------------------
 Center     Atomic      Atomic             Coordinates (Angstroms)
 Number     Number       Type             X           Y           Z
 ---------------------------------------------------------------------
      1          9           0        2.542945   -0.384047    0.005287
      2         16           0        1.325785    0.728098    0.014325
      3          6           0       -0.050905   -0.493007   -0.026520
      4          8           0        0.190621   -1.671926   -0.007743
      5          7           0       -1.279728    0.090491   -0.073983
      6          6           0       -2.466010   -0.751401    0.038694
      7          1           0       -2.159659   -1.791370   -0.043416
      8          1           0       -3.169748   -0.514717   -0.764331
      9          1           0       -2.963481   -0.598770    1.002982
     10          6           0       -1.457772    1.529597    0.003883
     11          1           0       -0.597831    2.046094   -0.433453
     12          1           0       -1.597932    1.878435    1.033289
     13          1           0       -2.329167    1.818023   -0.588363
 ---------------------------------------------------------------------

 SCF Done:  E(RHF) =  -745.082389425     A.U. after    2 cycles

 The electronic state is 1-A.
 Alpha  occ. eigenvalues --  -75.77223 -29.27636 -21.04981 -15.77413 -13.23417
 Alpha  occ. eigenvalues --  -13.17990 -13.08292 -11.52150 -11.43211 -11.41279
 Alpha  occ. eigenvalues --   -8.11253  -1.73494  -1.46174  -1.22678  -1.07828
 Alpha  occ. eigenvalues --   -1.01378  -0.79015  -0.69714  -0.68032  -0.65030
 Alpha  occ. eigenvalues --   -0.61772  -0.58368  -0.55867  -0.54927  -0.53404
 Alpha  occ. eigenvalues --   -0.49527  -0.41206  -0.34423  -0.31772  -0.30327
 Alpha  occ. eigenvalues --   -0.26762  -0.19433
 Alpha virt. eigenvalues --    0.02394   0.04613   0.05026   0.05693   0.06381
 Alpha virt. eigenvalues --    0.07652   0.08685   0.09473   0.12378   0.12462
 Alpha virt. eigenvalues --    0.12781   0.13626   0.14475   0.14519   0.15395

 Mulliken charges:
               1
     1  F   -0.216613
     2  S    0.889122
     3  C    2.933552
     4  O   -2.642852
     5  N   -2.640605
     6  C   -3.273236
     7  H    1.411831
     8  H    1.365176
     9  H    1.412588
    10  C   -3.589024
    11  H    1.606796
    12  H    1.345954
    13  H    1.397311
 Sum of Mulliken charges =  -0.00000

 Dipole moment (field-independent basis, Debye):
    X=              0.3774    Y=              0.7568    Z=              0.0672  Tot=              0.8484

 Test job not archived.
 1\1\GINC-SE404\SP\RHF\Aug-CC-pVDZ\C3H6F1N1O1S1\OHZDE\09-Apr-2025\0\\#t
  hf aug-cc-pvdz iop(5/13=1,5/36=2,99/5=2) pseudo=read geom=check guess
 =(read,tcheck) scf=(maxcycle=1)\\title\\0,1\F,0,2.542945,-0.384047,0.0
 05287\S,0,1.325785,0.728098,0.014325\C,0,-0.050905,-0.493007,-0.02652\
 O,0,0.190621,-1.671926,-0.007743\N,0,-1.279728,0.090491,-0.073983\C,0,
 -2.46601,-0.751401,0.038694\H,0,-2.159659,-1.79137,-0.043416\H,0,-3.16
 9748,-0.514717,-0.764331\H,0,-2.963481,-0.59877,1.002982\C,0,-1.457772
 ,1.529597,0.003883\H,0,-0.597831,2.046094,-0.433453\H,0,-1.597932,1.87

 Normal termination of Gaussian 16 at Wed Apr  9 00:23:06 2025.
