 Gaussian 16, Revision C.01,

 ----------------------------------------------------------------------
 #t hf aug-cc-pvdz symm=none int=(grid=ultrafine) guess=(read,tcheck) s
 table=(opt,rrhf)
 ----------------------------------------------------------------------
 -----
 title
 -----
 Symbolic Z-matrix:
 Charge =  0 Multiplicity = 1

 SCF Done:  E(RHF) =  -1376.44391002     A.U. after   12 cycles

 1\1\GINC-SE334\Stability\RHF\Aug-CC-pVDZ\H6S2Si2\OHZDE\09-Apr-2025\0\\
 #t hf aug-cc-pvdz symm=none int=(grid=ultrafine) guess=(read,tcheck) s
 table=(opt,rrhf)\\title\\0,1\Si,0,-2.254705,-0.716426,-0.195749\Si,0,-
 0.739718,0.963951,0.47037\S,0,1.187038,0.841571,-0.547109\H,0,-0.51545
 ,0.947908,1.93586\H,0,-1.246494,2.302289,0.073565\H,0,-3.52593,-0.5365
 88,0.548607\H,0,-1.716578,-2.065141,0.089647\S,0,1.873062,-1.025641,0.
 164426\H,0,-2.522428,-0.588897,-1.647259\H,0,2.487216,-0.57981,1.27781
 8\\Version=ES64L-G16RevC.01\HF=-1376.44391\RMSD=9.962e-09\Dipole=-0.31

 Normal termination of Gaussian 16 at Wed Apr  9 00:12:36 2025.
 Gaussian 16:  ES64L-G16RevC.01  3-Jul-2019

 ----------------------------------------------------------------------
 #t hf aug-cc-pvdz iop(5/13=1,5/36=2,99/5=2) pseudo=read geom=check gue
 ss=(read,tcheck) scf=(maxcycle=1)
 ----------------------------------------------------------------------
 -----
 title
 -----
 Structure from the checkpoint file:  "BDE49_nonexpt_2418_mol1.chk"
 Charge =  0 Multiplicity = 1

                         Standard orientation:
 ---------------------------------------------------------------------
 Center     Atomic      Atomic             Coordinates (Angstroms)
 Number     Number       Type             X           Y           Z
 ---------------------------------------------------------------------
      1         14           0       -2.254705   -0.716426   -0.195749
      2         14           0       -0.739718    0.963951    0.470370
      3         16           0        1.187038    0.841571   -0.547109
      4          1           0       -0.515450    0.947908    1.935860
      5          1           0       -1.246495    2.302289    0.073565
      6          1           0       -3.525930   -0.536588    0.548607
      7          1           0       -1.716578   -2.065141    0.089647
      8         16           0        1.873062   -1.025641    0.164426
      9          1           0       -2.522428   -0.588897   -1.647259
     10          1           0        2.487216   -0.579809    1.277818
 ---------------------------------------------------------------------

 SCF Done:  E(RHF) =  -1377.22165219     A.U. after    2 cycles

 The electronic state is 1-A.
 Alpha  occ. eigenvalues --  -76.24777 -76.22445 -75.72407 -75.70642 -13.15625
 Alpha  occ. eigenvalues --  -13.11035 -13.09375 -13.07349 -13.05283 -13.04814
 Alpha  occ. eigenvalues --   -8.06034  -8.04521  -5.58160  -5.55863  -2.19998
 Alpha  occ. eigenvalues --   -2.19925  -2.19138  -2.17946  -2.17906  -2.16772
 Alpha  occ. eigenvalues --   -1.20697  -0.99453  -0.81127  -0.71132  -0.52719
 Alpha  occ. eigenvalues --   -0.50184  -0.48154  -0.47219  -0.42257  -0.37604
 Alpha  occ. eigenvalues --   -0.36111  -0.27176  -0.24151
 Alpha virt. eigenvalues --    0.02654   0.03518   0.04144   0.04229   0.06831
 Alpha virt. eigenvalues --    0.07265   0.08086   0.08771   0.09020   0.09417
 Alpha virt. eigenvalues --    0.10006   0.10286   0.11414   0.11810   0.12792

 Mulliken charges:
               1
     1  Si   4.691053
     2  Si   5.026077
     3  S   -1.544323
     4  H   -1.759100
     5  H   -1.759290
     6  H   -1.535243
     7  H   -1.514048
     8  S   -1.280364
     9  H   -1.495554
    10  H    1.170791
 Sum of Mulliken charges =  -0.00000

 Dipole moment (field-independent basis, Debye):
    X=              1.1231    Y=             -0.6763    Z=             -1.4891  Tot=              1.9840

 Test job not archived.
 1\1\GINC-SE334\SP\RHF\Aug-CC-pVDZ\H6S2Si2\OHZDE\09-Apr-2025\0\\#t hf a
 ug-cc-pvdz iop(5/13=1,5/36=2,99/5=2) pseudo=read geom=check guess=(rea
 d,tcheck) scf=(maxcycle=1)\\title\\0,1\Si,0,-2.254705,-0.716426,-0.195
 749\Si,0,-0.739718,0.963951,0.47037\S,0,1.187038,0.841571,-0.547109\H,
 0,-0.51545,0.947908,1.93586\H,0,-1.246494,2.302289,0.073565\H,0,-3.525
 93,-0.536588,0.548607\H,0,-1.716578,-2.065141,0.089647\S,0,1.873062,-1
 .025641,0.164426\H,0,-2.522428,-0.588897,-1.647259\H,0,2.487216,-0.579
 81,1.277818\\Version=ES64L-G16RevC.01\State=1-A\HF=-1377.2216522\RMSD=

 Normal termination of Gaussian 16 at Wed Apr  9 00:12:42 2025.
