 Gaussian 16, Revision C.01,

 ----------------------------------------------------------------------
 #t hf aug-cc-pvdz symm=none int=(grid=ultrafine) guess=(read,tcheck) s
 table=(opt,rrhf)
 ----------------------------------------------------------------------
 -----
 title
 -----
 Symbolic Z-matrix:
 Charge =  0 Multiplicity = 1

 SCF Done:  E(RHF) =  -801.723384991     A.U. after   15 cycles
 Normal termination of Gaussian 16 at Tue Apr  8 23:20:20 2025.
 Gaussian 16:  ES64L-G16RevC.01  3-Jul-2019

 ----------------------------------------------------------------------
 #t hf aug-cc-pvdz iop(5/13=1,5/36=2,99/5=2) pseudo=read geom=check gue
 ss=(read,tcheck) scf=(maxcycle=1)
 ----------------------------------------------------------------------
 -----
 title
 -----
 Structure from the checkpoint file:  "BDE49_nonexpt_1074_mol1.chk"
 Charge =  0 Multiplicity = 1

                         Standard orientation:
 ---------------------------------------------------------------------
 Center     Atomic      Atomic             Coordinates (Angstroms)
 Number     Number       Type             X           Y           Z
 ---------------------------------------------------------------------
      1         17           0        2.144436   -0.561082    0.022206
      2          8           0        0.509622   -0.491837   -0.553300
      3          6           0       -0.396885    0.021932    0.463050
      4          8           0       -1.642521   -0.248980   -0.064027
      5          8           0       -0.235136    1.354838    0.695367
      6          6           0       -2.014317   -1.629897   -0.063365
      7          1           0       -3.055678   -1.663729   -0.378564
      8          1           0       -1.926669   -2.053193    0.944333
      9          1           0       -1.397247   -2.204827   -0.756237
     10          6           0       -0.478333    2.222644   -0.424565
     11          1           0       -0.185471    3.216181   -0.091179
     12          1           0       -1.535319    2.215885   -0.696144
     13          1           0        0.128190    1.925775   -1.282505
     14          1           0       -0.201725   -0.497948    1.407751
 ---------------------------------------------------------------------

 SCF Done:  E(RHF) =  -803.462288481     A.U. after    2 cycles

 The electronic state is 1-A.
 Alpha  occ. eigenvalues --  -99.93519 -21.10886 -21.07056 -21.06593 -11.50354
 Alpha  occ. eigenvalues --  -11.41934 -11.40765 -10.50258  -9.70163  -9.69358
 Alpha  occ. eigenvalues --   -9.69266  -1.89313  -1.72322  -1.71300  -1.24611
 Alpha  occ. eigenvalues --   -1.04704  -0.99560  -0.86447  -0.72046  -0.66939
 Alpha  occ. eigenvalues --   -0.65739  -0.61838  -0.59527  -0.58832  -0.57700
 Alpha  occ. eigenvalues --   -0.55219  -0.52391  -0.48450  -0.41591  -0.40721
 Alpha  occ. eigenvalues --   -0.35401  -0.33376  -0.31461
 Alpha virt. eigenvalues --    0.03446   0.04779   0.05326   0.05700   0.06273
 Alpha virt. eigenvalues --    0.06519   0.06940   0.07271   0.10338   0.11298
 Alpha virt. eigenvalues --    0.12602   0.13649   0.14444   0.14601   0.15676

 Mulliken charges:
               1
     1  Cl   0.367458
     2  O   -2.078055
     3  C    4.424347
     4  O   -3.296933
     5  O   -3.284544
     6  C   -2.892482
     7  H    1.338149
     8  H    1.313196
     9  H    1.336566
    10  C   -3.178354
    11  H    1.198911
    12  H    1.453179
    13  H    1.268048
    14  H    2.030516
 Sum of Mulliken charges =  -0.00000

 Dipole moment (field-independent basis, Debye):
    X=             -3.4615    Y=              0.0006    Z=             -0.5386  Tot=              3.5032

 Test job not archived.
 1\1\GINC-SE106\SP\RHF\Aug-CC-pVDZ\C3H7Cl1O3\OHZDE\08-Apr-2025\0\\#t hf
  aug-cc-pvdz iop(5/13=1,5/36=2,99/5=2) pseudo=read geom=check guess=(r
 ead,tcheck) scf=(maxcycle=1)\\title\\0,1\Cl,0,2.144436,-0.561082,0.022
 206\O,0,0.509622,-0.491837,-0.5533\C,0,-0.396885,0.021932,0.46305\O,0,
 -1.642521,-0.24898,-0.064027\O,0,-0.235136,1.354838,0.695367\C,0,-2.01
 4317,-1.629897,-0.063365\H,0,-3.055678,-1.663729,-0.378564\H,0,-1.9266
 69,-2.053193,0.944333\H,0,-1.397247,-2.204827,-0.756237\C,0,-0.478333,
 2.222644,-0.424565\H,0,-0.185471,3.216181,-0.091179\H,0,-1.535319,2.21

 Normal termination of Gaussian 16 at Tue Apr  8 23:20:26 2025.
