 Gaussian 16, Revision C.01,

 ----------------------------------------------------------------------
 #t hf aug-cc-pvdz symm=none int=(grid=ultrafine) guess=(read,tcheck) s
 table=(opt,rrhf)
 ----------------------------------------------------------------------
 -----
 title
 -----
 Symbolic Z-matrix:
 Charge =  0 Multiplicity = 1

 SCF Done:  E(RHF) =  -346.079203591     A.U. after   11 cycles

 1\1\GINC-SE195\Stability\RHF\Aug-CC-pVDZ\C5H12O2\OHZDE\08-Apr-2025\0\\
 #t hf aug-cc-pvdz symm=none int=(grid=ultrafine) guess=(read,tcheck) s
 table=(opt,rrhf)\\title\\0,1\C,0,0.,0.,1.300943\O,0,-0.437643,1.092743
 ,0.535896\O,0,0.437643,-1.092743,0.535896\H,0,-0.856577,-0.277308,1.92
 7113\H,0,0.856577,0.277308,1.927113\C,0,0.613528,1.77922,-0.148226\C,0
 ,-0.613528,-1.77922,-0.148226\C,0,0.,2.922299,-0.93428\H,0,1.143473,1.
 08572,-0.810659\H,0,1.338458,2.157812,0.587722\H,0,-0.710106,2.543061,
 -1.67273\H,0,0.77684,3.484862,-1.459095\H,0,-0.532354,3.604208,-0.2673

 Normal termination of Gaussian 16 at Tue Apr  8 22:59:20 2025.
 Gaussian 16:  ES64L-G16RevC.01  3-Jul-2019

 ----------------------------------------------------------------------
 #t hf aug-cc-pvdz iop(5/13=1,5/36=2,99/5=2) pseudo=read geom=check gue
 ss=(read,tcheck) scf=(maxcycle=1)
 ----------------------------------------------------------------------
 -----
 title
 -----
 Structure from the checkpoint file:  "BDE49_expt_189_mol1.chk"
 Charge =  0 Multiplicity = 1

                         Standard orientation:
 ---------------------------------------------------------------------
 Center     Atomic      Atomic             Coordinates (Angstroms)
 Number     Number       Type             X           Y           Z
 ---------------------------------------------------------------------
      1          6           0        0.000000    0.000000    1.300943
      2          8           0       -0.437643    1.092743    0.535896
      3          8           0        0.437643   -1.092743    0.535896
      4          1           0       -0.856577   -0.277308    1.927113
      5          1           0        0.856577    0.277308    1.927113
      6          6           0        0.613528    1.779220   -0.148226
      7          6           0       -0.613528   -1.779220   -0.148226
      8          6           0        0.000000    2.922299   -0.934280
      9          1           0        1.143473    1.085720   -0.810659
     10          1           0        1.338458    2.157812    0.587722
     11          1           0       -0.710106    2.543061   -1.672730
     12          1           0        0.776840    3.484862   -1.459095
     13          1           0       -0.532354    3.604208   -0.267316
     14          6           0       -0.000000   -2.922299   -0.934280
     15          1           0       -1.143473   -1.085720   -0.810659
     16          1           0       -1.338458   -2.157812    0.587722
     17          1           0        0.710106   -2.543061   -1.672730
     18          1           0       -0.776840   -3.484862   -1.459095
     19          1           0        0.532354   -3.604208   -0.267316
 ---------------------------------------------------------------------

 SCF Done:  E(RHF) =  -347.701760209     A.U. after    2 cycles

 The electronic state is 1-A.
 Alpha  occ. eigenvalues --  -21.04081 -21.04071 -11.44136 -11.42999 -11.42305
 Alpha  occ. eigenvalues --  -11.36066 -11.35962  -1.80734  -1.68622  -1.13362
 Alpha  occ. eigenvalues --   -1.10989  -0.94014  -0.87800  -0.83861  -0.66802
 Alpha  occ. eigenvalues --   -0.66471  -0.63253  -0.61432  -0.60457  -0.53730
 Alpha  occ. eigenvalues --   -0.51564  -0.51048  -0.49926  -0.47865  -0.45866
 Alpha  occ. eigenvalues --   -0.42633  -0.36528  -0.30875  -0.28968
 Alpha virt. eigenvalues --    0.04059   0.04906   0.05211   0.05334   0.05759
 Alpha virt. eigenvalues --    0.06237   0.06447   0.06729   0.07434   0.08552
 Alpha virt. eigenvalues --    0.09178   0.09284   0.10267   0.13089   0.14344

 Mulliken charges:
               1
     1  C   -0.083508
     2  O   -3.072277
     3  O   -3.072277
     4  H    1.658889
     5  H    1.658889
     6  C   -1.879966
     7  C   -1.879966
     8  C   -3.681891
     9  H    1.784090
    10  H    1.541171
    11  H    1.333311
    12  H    1.103674
    13  H    1.254752
    14  C   -3.681891
    15  H    1.784090
    16  H    1.541171
    17  H    1.333311
    18  H    1.103674
    19  H    1.254752
 Sum of Mulliken charges =  -0.00000

 Dipole moment (field-independent basis, Debye):
    X=              0.0000    Y=             -0.0000    Z=             -0.1352  Tot=              0.1352

 Test job not archived.
 1\1\GINC-SE195\SP\RHF\Aug-CC-pVDZ\C5H12O2\OHZDE\08-Apr-2025\0\\#t hf a
 ug-cc-pvdz iop(5/13=1,5/36=2,99/5=2) pseudo=read geom=check guess=(rea
 d,tcheck) scf=(maxcycle=1)\\title\\0,1\C,0,0.,0.,1.300943\O,0,-0.43764
 3,1.092743,0.535896\O,0,0.437643,-1.092743,0.535896\H,0,-0.856577,-0.2
 77308,1.927113\H,0,0.856577,0.277308,1.927113\C,0,0.613528,1.77922,-0.
 148226\C,0,-0.613528,-1.77922,-0.148226\C,0,0.,2.922299,-0.93428\H,0,1
 .143473,1.08572,-0.810659\H,0,1.338458,2.157812,0.587722\H,0,-0.710106
 ,2.543061,-1.67273\H,0,0.77684,3.484862,-1.459095\H,0,-0.532354,3.6042

 Normal termination of Gaussian 16 at Tue Apr  8 22:59:25 2025.
