 Gaussian 16, Revision C.01,

 ----------------------------------------------------------------------
 #t hf aug-cc-pvdz symm=none int=(grid=ultrafine) guess=(read,tcheck) s
 table=(opt,rrhf)
 ----------------------------------------------------------------------
 -----
 title
 -----
 Symbolic Z-matrix:
 Charge =  0 Multiplicity = 1

 SCF Done:  E(RHF) =  -492.909020146     A.U. after   14 cycles
 Normal termination of Gaussian 16 at Wed Apr  9 00:30:20 2025.
 Gaussian 16:  ES64L-G16RevC.01  3-Jul-2019

 ----------------------------------------------------------------------
 #t hf aug-cc-pvdz iop(5/13=1,5/36=2,99/5=2) pseudo=read geom=check gue
 ss=(read,tcheck) scf=(maxcycle=1)
 ----------------------------------------------------------------------
 -----
 title
 -----
 Structure from the checkpoint file:  "BDE49_nonexpt_313_mol1.chk"
 Charge =  0 Multiplicity = 1

                         Standard orientation:
 ---------------------------------------------------------------------
 Center     Atomic      Atomic             Coordinates (Angstroms)
 Number     Number       Type             X           Y           Z
 ---------------------------------------------------------------------
      1          6           0       -0.271663   -0.000044    0.591695
      2          5           0        2.145730   -0.000003   -0.048037
      3          9           0        2.576863   -1.126973   -0.603749
      4          9           0        2.576796    1.127052   -0.603631
      5          6           0       -0.927593    1.202653    0.307252
      6          6           0       -0.927660   -1.202694    0.307215
      7          6           0       -2.210929    1.203394   -0.233507
      8          6           0       -2.857989    0.000046   -0.505488
      9          6           0       -2.210997   -1.203346   -0.233545
     10          1           0       -2.705993   -2.145680   -0.440374
     11          1           0       -0.430999   -2.144652    0.515797
     12          1           0       -2.705872    2.145761   -0.440307
     13          1           0       -3.857798    0.000081   -0.924250
     14          1           0       -0.430878    2.144577    0.515863
     15          6           0        1.144806   -0.000092    1.154262
     16          1           0        1.296050   -0.885672    1.776223
     17          1           0        1.296057    0.885393    1.776357
 ---------------------------------------------------------------------

 SCF Done:  E(RHF) =  -494.995306541     A.U. after    2 cycles

 The electronic state is 1-A.
 Alpha  occ. eigenvalues --  -29.25391 -29.25296 -11.52166 -11.44551 -11.43548
 Alpha  occ. eigenvalues --  -11.41183 -11.40863 -11.38459 -11.36305  -7.69673
 Alpha  occ. eigenvalues --   -1.36354  -1.21625  -1.09450  -1.09374  -0.97162
 Alpha  occ. eigenvalues --   -0.86788  -0.83682  -0.75218  -0.71130  -0.65274
 Alpha  occ. eigenvalues --   -0.61403  -0.60899  -0.58201  -0.57075  -0.52941
 Alpha  occ. eigenvalues --   -0.49752  -0.48538  -0.44656  -0.44414  -0.44384
 Alpha  occ. eigenvalues --   -0.43247  -0.34216  -0.33637  -0.33029  -0.32547
 Alpha  occ. eigenvalues --   -0.25101
 Alpha virt. eigenvalues --    0.03122   0.03639   0.04941   0.05358   0.05549
 Alpha virt. eigenvalues --    0.05902   0.06606   0.07819   0.08282   0.08439
 Alpha virt. eigenvalues --    0.09141   0.11139   0.11227   0.11671   0.13288

 Mulliken charges:
               1
     1  C    4.021251
     2  B    2.160594
     3  F   -0.724473
     4  F   -0.724544
     5  C   -2.519345
     6  C   -2.519575
     7  C   -1.239851
     8  C   -2.783661
     9  C   -1.239844
    10  H    1.501735
    11  H    1.711873
    12  H    1.501745
    13  H    1.526611
    14  H    1.711898
    15  C   -5.025326
    16  H    1.320487
    17  H    1.320423
 Sum of Mulliken charges =  -0.00000

 Dipole moment (field-independent basis, Debye):
    X=              1.1142    Y=              0.0001    Z=             -1.6562  Tot=              1.9961

 Test job not archived.
 1\1\GINC-SE105\SP\RHF\Aug-CC-pVDZ\C7H7B1F2\OHZDE\09-Apr-2025\0\\#t hf
 aug-cc-pvdz iop(5/13=1,5/36=2,99/5=2) pseudo=read geom=check guess=(re
 ad,tcheck) scf=(maxcycle=1)\\title\\0,1\C,0,-0.271663,-0.000044,0.5916
 95\B,0,2.14573,-0.000003,-0.048037\F,0,2.576863,-1.126973,-0.603749\F,
 0,2.576796,1.127052,-0.603631\C,0,-0.927593,1.202653,0.307252\C,0,-0.9
 2766,-1.202694,0.307215\C,0,-2.210929,1.203394,-0.233507\C,0,-2.857989
 ,0.000046,-0.505488\C,0,-2.210997,-1.203346,-0.233545\H,0,-2.705993,-2
 .14568,-0.440374\H,0,-0.430999,-2.144652,0.515797\H,0,-2.705872,2.1457

 Normal termination of Gaussian 16 at Wed Apr  9 00:30:28 2025.
