 Gaussian 16, Revision C.01,

 ----------------------------------------------------------------------
 #t hf aug-cc-pvdz symm=none int=(grid=ultrafine) guess=(read,tcheck) s
 table=(opt,rrhf)
 ----------------------------------------------------------------------
 -----
 title
 -----
 Symbolic Z-matrix:
 Charge =  0 Multiplicity = 1

 SCF Done:  E(RHF) =  -423.831322843     A.U. after   16 cycles
 Normal termination of Gaussian 16 at Wed Apr  9 00:39:05 2025.
 Gaussian 16:  ES64L-G16RevC.01  3-Jul-2019

 ----------------------------------------------------------------------
 #t hf aug-cc-pvdz iop(5/13=1,5/36=2,99/5=2) pseudo=read geom=check gue
 ss=(read,tcheck) scf=(maxcycle=1)
 ----------------------------------------------------------------------
 -----
 title
 -----
 Structure from the checkpoint file:  "BDE49_nonexpt_573_mol1.chk"
 Charge =  0 Multiplicity = 1

                         Standard orientation:
 ---------------------------------------------------------------------
 Center     Atomic      Atomic             Coordinates (Angstroms)
 Number     Number       Type             X           Y           Z
 ---------------------------------------------------------------------
      1          6           0        2.052307   -1.372254   -0.144425
      2          6           0        0.674593   -1.171571   -0.164355
      3          6           0        0.144590    0.116075   -0.016347
      4          6           0       -1.325905    0.419481   -0.054865
      5          8           0       -1.742109    1.529645   -0.290984
      6          5           0       -3.599231   -0.662680    0.093322
      7          6           0        2.912218   -0.290474    0.029428
      8          6           0        2.392294    0.996526    0.168099
      9          6           0        1.018419    1.199340    0.136027
     10          1           0        0.594810    2.191654    0.226106
     11          1           0        2.452914   -2.371389   -0.270872
     12          1           0        0.025437   -2.023524   -0.333146
     13          1           0        3.984530   -0.448720    0.049878
     14          1           0        3.059741    1.840787    0.297067
     15          7           0       -2.191528   -0.662970    0.217489
     16          1           0       -4.154888    0.302922   -0.305515
     17          1           0       -4.169592   -1.663234    0.395382
     18          1           0       -1.730327   -1.494195    0.558560
 ---------------------------------------------------------------------

 SCF Done:  E(RHF) =  -425.779408119     A.U. after    2 cycles

 The electronic state is 1-A.
 Alpha  occ. eigenvalues --  -21.04155 -15.74657 -11.53413 -11.52273 -11.45133
 Alpha  occ. eigenvalues --  -11.44521 -11.42839 -11.42236 -11.38152  -7.62187
 Alpha  occ. eigenvalues --   -1.72212  -1.39757  -1.34191  -1.12768  -1.10922
 Alpha  occ. eigenvalues --   -0.94861  -0.88470  -0.85177  -0.77408  -0.74562
 Alpha  occ. eigenvalues --   -0.68584  -0.62760  -0.60183  -0.59190  -0.56938
 Alpha  occ. eigenvalues --   -0.52824  -0.52382  -0.50370  -0.47086  -0.46171
 Alpha  occ. eigenvalues --   -0.45276  -0.37742  -0.34673  -0.32996  -0.29675
 Alpha virt. eigenvalues --    0.02598   0.03617   0.04082   0.04460   0.05268
 Alpha virt. eigenvalues --    0.05578   0.06309   0.07912   0.08512   0.08635
 Alpha virt. eigenvalues --    0.10105   0.10576   0.10848   0.11300   0.12291

 Mulliken charges:
               1
     1  C   -2.375343
     2  C   -0.228235
     3  C    3.869579
     4  C    3.531292
     5  O   -3.615393
     6  B    7.196488
     7  C   -2.951000
     8  C   -1.277963
     9  C   -2.853013
    10  H    1.652540
    11  H    1.475868
    12  H    1.878250
    13  H    1.525669
    14  H    1.471761
    15  N   -3.501231
    16  H   -3.089519
    17  H   -3.846885
    18  H    1.137134
 Sum of Mulliken charges =   0.00000

 Dipole moment (field-independent basis, Debye):
    X=              2.4798    Y=             -1.3773    Z=              0.4011  Tot=              2.8648

 Test job not archived.
 1\1\GINC-SE462\SP\RHF\Aug-CC-pVDZ\C7H8B1N1O1\OHZDE\09-Apr-2025\0\\#t h
 f aug-cc-pvdz iop(5/13=1,5/36=2,99/5=2) pseudo=read geom=check guess=(
 read,tcheck) scf=(maxcycle=1)\\title\\0,1\C,0,2.052307,-1.372254,-0.14
 4425\C,0,0.674593,-1.171571,-0.164355\C,0,0.14459,0.116075,-0.016347\C
 ,0,-1.325905,0.419481,-0.054865\O,0,-1.742109,1.529645,-0.290984\B,0,-
 3.599231,-0.66268,0.093322\C,0,2.912218,-0.290474,0.029428\C,0,2.39229
 4,0.996526,0.168099\C,0,1.018419,1.19934,0.136027\H,0,0.59481,2.191654
 ,0.226106\H,0,2.452914,-2.371389,-0.270872\H,0,0.025437,-2.023524,-0.3

 Normal termination of Gaussian 16 at Wed Apr  9 00:39:14 2025.
