 Gaussian 16, Revision C.01,

 ----------------------------------------------------------------------
 #t hf aug-cc-pvdz symm=none int=(grid=ultrafine) guess=(read,tcheck) s
 table=(opt,rrhf)
 ----------------------------------------------------------------------
 -----
 title
 -----
 Symbolic Z-matrix:
 Charge =  0 Multiplicity = 1

 SCF Done:  E(RHF) =  -2095.29075863     A.U. after   14 cycles
 Normal termination of Gaussian 16 at Tue Apr  8 23:44:26 2025.
 Gaussian 16:  ES64L-G16RevC.01  3-Jul-2019

 ----------------------------------------------------------------------
 #t hf aug-cc-pvdz iop(5/13=1,5/36=2,99/5=2) pseudo=read geom=check gue
 ss=(read,tcheck) scf=(maxcycle=1)
 ----------------------------------------------------------------------
 -----
 title
 -----
 Structure from the checkpoint file:  "BDE49_nonexpt_1702_mol1.chk"
 Charge =  0 Multiplicity = 1

                         Standard orientation:
 ---------------------------------------------------------------------
 Center     Atomic      Atomic             Coordinates (Angstroms)
 Number     Number       Type             X           Y           Z
 ---------------------------------------------------------------------
      1         16           0       -0.700752   -0.986196   -0.921065
      2         15           0       -2.107931    0.284894    0.084530
      3          8           0       -1.993327    1.690327   -0.292563
      4          8           0       -2.063904   -0.097296    1.626587
      5          8           0        0.656810    0.085253   -1.004009
      6          6           0        1.516218    0.096866    0.049277
      7          9           0        0.865914    0.418781    1.212643
      8         17           0        2.714768    1.361279   -0.286775
      9         17           0        2.327887   -1.486200    0.343269
     10          1           0       -1.233445    0.166638    2.044586
     11          8           0       -3.437466   -0.516632   -0.286498
     12          1           0       -3.848138   -0.180685   -1.093484
 ---------------------------------------------------------------------

 SCF Done:  E(RHF) =  -2097.93923569     A.U. after    2 cycles

 The electronic state is 1-A.
 Alpha  occ. eigenvalues -- -105.34698 -99.92768 -99.92663 -75.77878 -29.33696
 Alpha  occ. eigenvalues --  -21.15064 -21.14466 -21.14243 -21.05469 -13.24235
 Alpha  occ. eigenvalues --  -13.17198 -13.12980 -11.61637 -10.50240 -10.50051
 Alpha  occ. eigenvalues --   -9.70131  -9.69860  -9.69214  -9.69184  -9.69070
 Alpha  occ. eigenvalues --   -9.69045  -8.11539  -2.97205  -2.03609  -1.93543
 Alpha  occ. eigenvalues --   -1.86861  -1.81407  -1.55587  -1.43022  -1.41495
 Alpha  occ. eigenvalues --   -1.32717  -1.28299  -1.12391  -1.03967  -0.81577
 Alpha  occ. eigenvalues --   -0.76160  -0.72839  -0.69713  -0.61420  -0.59662
 Alpha  occ. eigenvalues --   -0.57519  -0.56631  -0.53732  -0.52280  -0.50518
 Alpha  occ. eigenvalues --   -0.48095  -0.45780  -0.44641  -0.43733  -0.37233
 Alpha  occ. eigenvalues --   -0.36957  -0.34088  -0.32788  -0.30432  -0.29436
 Alpha  occ. eigenvalues --   -0.23546  -0.17229
 Alpha virt. eigenvalues --    0.02612   0.03550   0.06016   0.06363   0.06933
 Alpha virt. eigenvalues --    0.08354   0.09610   0.10393   0.10635   0.11956
 Alpha virt. eigenvalues --    0.12517   0.13285   0.13357   0.14750   0.15013

 Mulliken charges:
               1
     1  S   -0.798386
     2  P    8.053418
     3  O   -2.909628
     4  O   -3.000014
     5  O   -2.268126
     6  C    0.811925
     7  F    0.836938
     8  Cl  -0.053198
     9  Cl   0.055120
    10  H    1.038421
    11  O   -2.631820
    12  H    0.865349
 Sum of Mulliken charges =   0.00000

 Dipole moment (field-independent basis, Debye):
    X=             -5.4279    Y=             -1.0412    Z=              2.9386  Tot=              6.2596

 Test job not archived.
 1\1\GINC-SE125\SP\RHF\Aug-CC-pVDZ\C1H2Cl2F1O4P1S1\OHZDE\08-Apr-2025\0\
 \#t hf aug-cc-pvdz iop(5/13=1,5/36=2,99/5=2) pseudo=read geom=check gu
 ess=(read,tcheck) scf=(maxcycle=1)\\title\\0,1\S,0,-0.700752,-0.986196
 ,-0.921065\P,0,-2.107931,0.284894,0.08453\O,0,-1.993327,1.690327,-0.29
 2563\O,0,-2.063904,-0.097296,1.626587\O,0,0.65681,0.085253,-1.004009\C
 ,0,1.516218,0.096866,0.049277\F,0,0.865914,0.418781,1.212643\Cl,0,2.71
 4768,1.361279,-0.286775\Cl,0,2.327887,-1.4862,0.343269\H,0,-1.233445,0
 .166638,2.044586\O,0,-3.437466,-0.516632,-0.286498\H,0,-3.848138,-0.18

 Normal termination of Gaussian 16 at Tue Apr  8 23:44:35 2025.
