 Gaussian 16, Revision C.01,

 ----------------------------------------------------------------------
 #t hf aug-cc-pvdz symm=none int=(grid=ultrafine) guess=(read,tcheck) s
 table=(opt,rrhf)
 ----------------------------------------------------------------------
 -----
 title
 -----
 Symbolic Z-matrix:
 Charge =  0 Multiplicity = 1

 SCF Done:  E(RHF) =  -441.627769874     A.U. after   15 cycles
 Normal termination of Gaussian 16 at Tue Apr  8 23:22:20 2025.
 Gaussian 16:  ES64L-G16RevC.01  3-Jul-2019

 ----------------------------------------------------------------------
 #t hf aug-cc-pvdz iop(5/13=1,5/36=2,99/5=2) pseudo=read geom=check gue
 ss=(read,tcheck) scf=(maxcycle=1)
 ----------------------------------------------------------------------
 -----
 title
 -----
 Structure from the checkpoint file:  "BDE49_nonexpt_1165_mol1.chk"
 Charge =  0 Multiplicity = 1

                         Standard orientation:
 ---------------------------------------------------------------------
 Center     Atomic      Atomic             Coordinates (Angstroms)
 Number     Number       Type             X           Y           Z
 ---------------------------------------------------------------------
      1          9           0        0.516657    1.891721   -0.207412
      2          8           0        0.507817    0.626456   -0.912112
      3          6           0        0.326777   -0.397220    0.091793
      4          8           0       -0.865979   -0.206950    0.787544
      5          8           0        1.337199   -0.394255    1.020007
      6          6           0       -2.042048    0.070538    0.024945
      7          1           0       -1.936838    0.999622   -0.538145
      8          1           0       -2.844950    0.171795    0.753423
      9          1           0       -2.285217   -0.749265   -0.658810
     10          6           0        0.406920   -1.674873   -0.737835
     11          1           0       -0.313468   -1.668201   -1.555060
     12          1           0        0.192593   -2.507515   -0.067571
     13          1           0        1.411254   -1.785625   -1.143566
     14          1           0        1.144517    0.321033    1.639498
 ---------------------------------------------------------------------

 SCF Done:  E(RHF) =  -443.456011142     A.U. after    2 cycles

 The electronic state is 1-A.
 Alpha  occ. eigenvalues --  -29.28960 -21.15172 -21.09531 -21.07054 -11.53969
 Alpha  occ. eigenvalues --  -11.42079 -11.39357  -1.89816  -1.73813  -1.69885
 Alpha  occ. eigenvalues --   -1.12502  -1.01667  -0.85479  -0.71632  -0.70344
 Alpha  occ. eigenvalues --   -0.66816  -0.62121  -0.60070  -0.56526  -0.55612
 Alpha  occ. eigenvalues --   -0.53545  -0.50010  -0.42378  -0.40495  -0.35398
 Alpha  occ. eigenvalues --   -0.35351  -0.32399  -0.26049  -0.22342
 Alpha virt. eigenvalues --    0.03781   0.04862   0.05508   0.05870   0.06562
 Alpha virt. eigenvalues --    0.06763   0.07829   0.10980   0.11985   0.13382
 Alpha virt. eigenvalues --    0.14271   0.14706   0.15701   0.16254   0.17640

 Mulliken charges:
               1
     1  F   -0.322897
     2  O   -1.775953
     3  C    7.652640
     4  O   -3.672633
     5  O   -3.428120
     6  C   -3.356944
     7  H    1.261569
     8  H    1.280489
     9  H    1.428922
    10  C   -3.475873
    11  H    1.253137
    12  H    1.291054
    13  H    1.177685
    14  H    0.686925
 Sum of Mulliken charges =   0.00000

 Dipole moment (field-independent basis, Debye):
    X=             -0.8542    Y=              0.7860    Z=              0.5392  Tot=              1.2799

 Test job not archived.
 1\1\GINC-SE273\SP\RHF\Aug-CC-pVDZ\C3H7F1O3\OHZDE\08-Apr-2025\0\\#t hf
 aug-cc-pvdz iop(5/13=1,5/36=2,99/5=2) pseudo=read geom=check guess=(re
 ad,tcheck) scf=(maxcycle=1)\\title\\0,1\F,0,-0.516652,-1.891722,-0.207
 412\O,0,-0.507815,-0.626457,-0.912112\C,0,-0.326778,0.397219,0.091793\
 O,0,0.865978,0.206953,0.787544\O,0,-1.3372,0.394252,1.020007\C,0,2.042
 048,-0.070532,0.024945\H,0,1.936841,-0.999617,-0.538145\H,0,2.84495,-0
 .171787,0.753423\H,0,2.285215,0.749271,-0.65881\C,0,-0.406925,1.674872
 ,-0.737835\H,0,0.313463,1.668202,-1.55506\H,0,-0.1926,2.507515,-0.0675

 Normal termination of Gaussian 16 at Tue Apr  8 23:22:25 2025.
