 Gaussian 16, Revision C.01,

 ----------------------------------------------------------------------
 #t hf aug-cc-pvdz symm=none int=(grid=ultrafine) guess=(read,tcheck) s
 table=(opt,rrhf)
 ----------------------------------------------------------------------
 -----
 title
 -----
 Symbolic Z-matrix:
 Charge =  0 Multiplicity = 1

 SCF Done:  E(RHF) =  -474.710939906     A.U. after   10 cycles
 Normal termination of Gaussian 16 at Tue Apr  8 22:30:21 2025.
 Gaussian 16:  ES64L-G16RevC.01  3-Jul-2019

 ----------------------------------------------------------------------
 #t hf aug-cc-pvdz iop(5/13=1,5/36=2,99/5=2) pseudo=read geom=check gue
 ss=(read,tcheck) scf=(maxcycle=1)
 ----------------------------------------------------------------------
 -----
 title
 -----
 Structure from the checkpoint file:  "BDE49_expt_1002_mol1.chk"
 Charge =  0 Multiplicity = 1

                         Standard orientation:
 ---------------------------------------------------------------------
 Center     Atomic      Atomic             Coordinates (Angstroms)
 Number     Number       Type             X           Y           Z
 ---------------------------------------------------------------------
      1          6           0        0.245502    0.721848   -0.000000
      2          6           0       -0.245502   -0.721848   -0.000000
      3          1           0        1.336026    0.785375    0.000000
      4          9           0       -0.245502    1.348725    1.102884
      5          9           0       -0.245502    1.348725   -1.102884
      6          9           0        0.245502   -1.348725    1.102884
      7          9           0        0.245502   -1.348725   -1.102884
      8          1           0       -1.336026   -0.785375    0.000000
 ---------------------------------------------------------------------

 SCF Done:  E(RHF) =  -476.406943415     A.U. after    2 cycles

 The electronic state is 1-AG.
 Alpha  occ. eigenvalues --  -29.30890 -29.30872 -29.30839 -29.30838 -11.57497
 Alpha  occ. eigenvalues --  -11.51875  -1.41918  -1.19319  -0.88751  -0.82940
 Alpha  occ. eigenvalues --   -0.77201  -0.75353  -0.69323  -0.48386  -0.45547
 Alpha  occ. eigenvalues --   -0.41423  -0.40116  -0.37145  -0.34717  -0.32367
 Alpha  occ. eigenvalues --   -0.31578  -0.30161  -0.26063  -0.24470  -0.21649
 Alpha virt. eigenvalues --    0.04531   0.05357   0.10955   0.11120   0.11684
 Alpha virt. eigenvalues --    0.12537   0.13259   0.14134   0.20996   0.21856
 Alpha virt. eigenvalues --    0.22179   0.22510   0.23011   0.25874   0.26759

 Mulliken charges:
               1
     1  C   -2.211816
     2  C   -2.211816
     3  H    1.385399
     4  F    0.413208
     5  F    0.413208
     6  F    0.413208
     7  F    0.413208
     8  H    1.385399
 Sum of Mulliken charges =   0.00000

 Dipole moment (field-independent basis, Debye):
    X=              0.0000    Y=              0.0000    Z=             -0.0000  Tot=              0.0000

 Test job not archived.
 1\1\GINC-SE179\SP\RHF\Aug-CC-pVDZ\C2H2F4\OHZDE\08-Apr-2025\0\\#t hf au
 g-cc-pvdz iop(5/13=1,5/36=2,99/5=2) pseudo=read geom=check guess=(read
 ,tcheck) scf=(maxcycle=1)\\title\\0,1\C,0,0.245502,0.721848,0.\C,0,-0.
 245502,-0.721848,0.\H,0,1.336026,0.785375,0.\F,0,-0.245502,1.348725,1.
 102884\F,0,-0.245502,1.348725,-1.102884\F,0,0.245502,-1.348725,1.10288
 4\F,0,0.245502,-1.348725,-1.102884\H,0,-1.336026,-0.785375,0.\\Version
 =ES64L-G16RevC.01\State=1-AG\HF=-476.4069434\RMSD=1.754e-01\Dipole=0.,
 0.,0.\Quadrupole=-1.1280209,0.7750222,0.3529987,-0.4714691,0.,0.\PG=C0

 Normal termination of Gaussian 16 at Tue Apr  8 22:30:23 2025.
