 Gaussian 16, Revision C.01,

 ----------------------------------------------------------------------
 #t hf aug-cc-pvdz symm=none int=(grid=ultrafine) guess=(read,tcheck) s
 table=(opt,rrhf)
 ----------------------------------------------------------------------
 -----
 title
 -----
 Symbolic Z-matrix:
 Charge =  0 Multiplicity = 1

 SCF Done:  E(RHF) =  -764.355651124     A.U. after   14 cycles
 Normal termination of Gaussian 16 at Wed Apr  9 00:24:07 2025.
 Gaussian 16:  ES64L-G16RevC.01  3-Jul-2019

 ----------------------------------------------------------------------
 #t hf aug-cc-pvdz iop(5/13=1,5/36=2,99/5=2) pseudo=read geom=check gue
 ss=(read,tcheck) scf=(maxcycle=1)
 ----------------------------------------------------------------------
 -----
 title
 -----
 Structure from the checkpoint file:  "BDE49_nonexpt_2680_mol1.chk"
 Charge =  0 Multiplicity = 1

                         Standard orientation:
 ---------------------------------------------------------------------
 Center     Atomic      Atomic             Coordinates (Angstroms)
 Number     Number       Type             X           Y           Z
 ---------------------------------------------------------------------
      1          9           0       -2.335337   -0.257420    0.468224
      2         16           0       -1.083364   -0.962541   -0.394609
      3          6           0        0.329230   -0.122576    0.442926
      4          8           0        0.199651    1.233641    0.639542
      5          8           0        1.347214   -0.501669   -0.444025
      6          6           0       -0.108800    2.031757   -0.513099
      7          1           0        0.095659    3.060388   -0.220504
      8          1           0       -1.163483    1.926430   -0.775381
      9          1           0        0.518096    1.755689   -1.363027
     10          6           0        2.636436   -0.631262    0.162386
     11          1           0        3.333467   -0.864526   -0.640829
     12          1           0        2.643688   -1.444131    0.897069
     13          1           0        2.932680    0.304572    0.644910
     14          1           0        0.475642   -0.544279    1.440066
 ---------------------------------------------------------------------

 SCF Done:  E(RHF) =  -766.120625088     A.U. after    2 cycles

 The electronic state is 1-A.
 Alpha  occ. eigenvalues --  -75.75084 -29.26155 -21.07853 -21.07146 -13.20884
 Alpha  occ. eigenvalues --  -13.16179 -13.09238 -11.48739 -11.42583 -11.40919
 Alpha  occ. eigenvalues --   -8.09035  -1.84508  -1.72005  -1.21139  -1.04713
 Alpha  occ. eigenvalues --   -1.00155  -0.86507  -0.71493  -0.67803  -0.64859
 Alpha  occ. eigenvalues --   -0.61942  -0.60799  -0.57686  -0.54436  -0.51812
 Alpha  occ. eigenvalues --   -0.46378  -0.39916  -0.39018  -0.35384  -0.31984
 Alpha  occ. eigenvalues --   -0.31145  -0.25876  -0.17705
 Alpha virt. eigenvalues --    0.03163   0.04991   0.05310   0.05819   0.06333
 Alpha virt. eigenvalues --    0.06709   0.07607   0.07712   0.10755   0.11703
 Alpha virt. eigenvalues --    0.13412   0.14482   0.14897   0.15164   0.15722

 Mulliken charges:
               1
     1  F   -0.355800
     2  S    0.606518
     3  C    1.275075
     4  O   -3.087890
     5  O   -2.652734
     6  C   -2.962123
     7  H    1.269221
     8  H    1.520430
     9  H    1.306284
    10  C   -2.797236
    11  H    1.322743
    12  H    1.338506
    13  H    1.324134
    14  H    1.892872
 Sum of Mulliken charges =  -0.00000

 Dipole moment (field-independent basis, Debye):
    X=             -1.0159    Y=              0.7095    Z=              0.6716  Tot=              1.4094

 Test job not archived.
 1\1\GINC-SE103\SP\RHF\Aug-CC-pVDZ\C3H7F1O2S1\OHZDE\09-Apr-2025\0\\#t h
 f aug-cc-pvdz iop(5/13=1,5/36=2,99/5=2) pseudo=read geom=check guess=(
 read,tcheck) scf=(maxcycle=1)\\title\\0,1\F,0,-2.335337,-0.257421,0.46
 8224\S,0,-1.083364,-0.962541,-0.394609\C,0,0.32923,-0.122576,0.442926\
 O,0,0.199651,1.233641,0.639542\O,0,1.347214,-0.501669,-0.444025\C,0,-0
 .108801,2.031757,-0.513099\H,0,0.095658,3.060388,-0.220504\H,0,-1.1634
 83,1.92643,-0.775381\H,0,0.518096,1.755689,-1.363027\C,0,2.636436,-0.6
 31261,0.162386\H,0,3.333467,-0.864525,-0.640829\H,0,2.643688,-1.44413,

 Normal termination of Gaussian 16 at Wed Apr  9 00:24:12 2025.
