 Gaussian 16, Revision C.01,

 ----------------------------------------------------------------------
 #t hf aug-cc-pvdz symm=none int=(grid=ultrafine) guess=(read,tcheck) s
 table=(opt,rrhf)
 ----------------------------------------------------------------------
 -----
 title
 -----
 Symbolic Z-matrix:
 Charge =  0 Multiplicity = 1

 SCF Done:  E(RHF) =  -913.342277558     A.U. after   13 cycles
 Normal termination of Gaussian 16 at Tue Apr  8 22:47:43 2025.
 Gaussian 16:  ES64L-G16RevC.01  3-Jul-2019

 ----------------------------------------------------------------------
 #t hf aug-cc-pvdz iop(5/13=1,5/36=2,99/5=2) pseudo=read geom=check gue
 ss=(read,tcheck) scf=(maxcycle=1)
 ----------------------------------------------------------------------
 -----
 title
 -----
 Structure from the checkpoint file:  "BDE49_expt_1592_mol1.chk"
 Charge =  0 Multiplicity = 1

                         Standard orientation:
 ---------------------------------------------------------------------
 Center     Atomic      Atomic             Coordinates (Angstroms)
 Number     Number       Type             X           Y           Z
 ---------------------------------------------------------------------
      1          6           0       -1.585530    0.085453    0.723543
      2         16           0       -0.299904    1.057046   -0.172086
      3         16           0        1.152451   -0.349590   -0.658478
      4          6           0        2.238936   -0.354856    0.815192
      5          1           0        3.064648   -1.028945    0.573996
      6          1           0        1.713708   -0.731287    1.692371
      7          1           0        2.628799    0.644300    1.003605
      8          6           0       -2.335383   -0.920726   -0.139656
      9          1           0       -2.257135    0.863455    1.101461
     10          1           0       -1.119050   -0.389497    1.588608
     11          1           0       -2.834934   -0.425378   -0.975057
     12          1           0       -3.092406   -1.441447    0.455588
     13          1           0       -1.652521   -1.669716   -0.546017
 ---------------------------------------------------------------------

 SCF Done:  E(RHF) =  -914.422371283     A.U. after    2 cycles

 The electronic state is 1-A.
 Alpha  occ. eigenvalues --  -75.69775 -75.69526 -13.13665 -13.10472 -13.09064
 Alpha  occ. eigenvalues --  -13.07354 -13.04543 -13.03463 -11.42039 -11.39766
 Alpha  occ. eigenvalues --  -11.36756  -8.03640  -8.03435  -1.26659  -1.16097
 Alpha  occ. eigenvalues --   -1.03969  -0.92324  -0.83923  -0.63429  -0.59565
 Alpha  occ. eigenvalues --   -0.58979  -0.58123  -0.52324  -0.50398  -0.45442
 Alpha  occ. eigenvalues --   -0.40913  -0.33333  -0.24581  -0.23250
 Alpha virt. eigenvalues --    0.02804   0.03636   0.04418   0.05611   0.06580
 Alpha virt. eigenvalues --    0.06900   0.07672   0.08497   0.09018   0.09786
 Alpha virt. eigenvalues --    0.12309   0.13385   0.13999   0.14524   0.14981

 Mulliken charges:
               1
     1  C   -3.850039
     2  S    0.319187
     3  S    0.173684
     4  C   -4.573236
     5  H    1.383951
     6  H    1.499981
     7  H    1.497010
     8  C   -3.482214
     9  H    1.516652
    10  H    1.605200
    11  H    1.329748
    12  H    1.198983
    13  H    1.381093
 Sum of Mulliken charges =  -0.00000

 Dipole moment (field-independent basis, Debye):
    X=             -0.0455    Y=              0.1757    Z=             -0.3043  Tot=              0.3543

 Test job not archived.
 1\1\GINC-SE252\SP\RHF\Aug-CC-pVDZ\C3H8S2\OHZDE\08-Apr-2025\0\\#t hf au
 g-cc-pvdz iop(5/13=1,5/36=2,99/5=2) pseudo=read geom=check guess=(read
 ,tcheck) scf=(maxcycle=1)\\title\\0,1\C,0,-1.58553,0.085453,0.723543\S
 ,0,-0.299904,1.057046,-0.172086\S,0,1.152451,-0.34959,-0.658478\C,0,2.
 238936,-0.354856,0.815192\H,0,3.064648,-1.028945,0.573996\H,0,1.713708
 ,-0.731287,1.692371\H,0,2.628799,0.6443,1.003605\C,0,-2.335383,-0.9207
 26,-0.139656\H,0,-2.257135,0.863455,1.101461\H,0,-1.11905,-0.389497,1.
 588608\H,0,-2.834934,-0.425378,-0.975057\H,0,-3.092406,-1.441447,0.455

 Normal termination of Gaussian 16 at Tue Apr  8 22:47:47 2025.
