 Gaussian 16, Revision C.01,

 ----------------------------------------------------------------------
 #t hf aug-cc-pvdz symm=none int=(grid=ultrafine) guess=(read,tcheck) s
 table=(opt,rrhf)
 ----------------------------------------------------------------------
 -----
 title
 -----
 Symbolic Z-matrix:
 Charge =  0 Multiplicity = 1

 SCF Done:  E(RHF) =  -1090.86822966     A.U. after   16 cycles
 Normal termination of Gaussian 16 at Tue Apr  8 22:51:59 2025.
 Gaussian 16:  ES64L-G16RevC.01  3-Jul-2019

 ----------------------------------------------------------------------
 #t hf aug-cc-pvdz iop(5/13=1,5/36=2,99/5=2) pseudo=read geom=check gue
 ss=(read,tcheck) scf=(maxcycle=1)
 ----------------------------------------------------------------------
 -----
 title
 -----
 Structure from the checkpoint file:  "BDE49_expt_1535_mol1.chk"
 Charge =  0 Multiplicity = 1

                         Standard orientation:
 ---------------------------------------------------------------------
 Center     Atomic      Atomic             Coordinates (Angstroms)
 Number     Number       Type             X           Y           Z
 ---------------------------------------------------------------------
      1          6           0       -0.677982    0.339081   -0.401267
      2          6           0        0.695219   -0.376088   -0.347770
      3          7           0        0.980911   -1.151931    0.978155
      4          8           0        1.918192   -0.786583    1.640825
      5          8           0        0.237086   -2.090519    1.145791
      6          7           0        1.843967    0.656817   -0.544038
      7          7           0       -0.946860    1.292360    0.779401
      8          7           0       -1.871968   -0.709824   -0.407040
      9          8           0       -0.535652    0.910325    1.853373
     10          8           0       -1.570580    2.286485    0.509960
     11          8           0       -2.068291   -1.208966   -1.486236
     12          8           0       -2.459503   -0.869720    0.633352
     13          9           0        0.764354   -1.266468   -1.330144
     14          9           0       -0.754737    1.005869   -1.544937
     15          8           0        1.646893    1.750109   -0.057549
     16          8           0        2.802816    0.253305   -1.148940
 ---------------------------------------------------------------------

 SCF Done:  E(RHF) =  -1095.28066670     A.U. after    2 cycles

 The electronic state is 1-A.
 Alpha  occ. eigenvalues --  -29.41077 -29.41069 -21.18222 -21.17977 -21.17671
 Alpha  occ. eigenvalues --  -21.17620 -21.17509 -21.17453 -21.17383 -21.16956
 Alpha  occ. eigenvalues --  -16.08623 -16.08524 -16.08395 -16.08280 -11.75117
 Alpha  occ. eigenvalues --  -11.65812  -2.09444  -2.08727  -2.07215  -2.06791
 Alpha  occ. eigenvalues --   -1.78572  -1.78522  -1.78283  -1.77906  -1.49694
 Alpha  occ. eigenvalues --   -1.34303  -1.10456  -1.09118  -1.02881  -0.98436
 Alpha  occ. eigenvalues --   -0.91705  -0.83847  -0.82778  -0.80595  -0.79245
 Alpha  occ. eigenvalues --   -0.73971  -0.72606  -0.72064  -0.71056  -0.67850
 Alpha  occ. eigenvalues --   -0.67658  -0.67236  -0.65934  -0.54423  -0.52969
 Alpha  occ. eigenvalues --   -0.49599  -0.48780  -0.46277  -0.44894  -0.44084
 Alpha  occ. eigenvalues --   -0.41003  -0.39942  -0.39275  -0.38739  -0.38339
 Alpha  occ. eigenvalues --   -0.37430  -0.36923  -0.35558  -0.34314  -0.33751
 Alpha  occ. eigenvalues --   -0.32372
 Alpha virt. eigenvalues --    0.06351   0.07551   0.08142   0.08488   0.08843
 Alpha virt. eigenvalues --    0.09538   0.10190   0.11066   0.12059   0.12580
 Alpha virt. eigenvalues --    0.13288   0.14109   0.14557   0.15067   0.15785

 Mulliken charges:
               1
     1  C    2.345532
     2  C    2.305103
     3  N    4.602543
     4  O   -3.022703
     5  O   -3.202863
     6  N    4.550120
     7  N    4.637542
     8  N    4.495581
     9  O   -3.302420
    10  O   -2.966029
    11  O   -2.983667
    12  O   -2.975373
    13  F    0.816780
    14  F    0.759104
    15  O   -3.149013
    16  O   -2.910237
 Sum of Mulliken charges =  -0.00000

 Dipole moment (field-independent basis, Debye):
    X=              0.0712    Y=             -0.6985    Z=             -5.0398  Tot=              5.0884

 Test job not archived.
 1\1\GINC-SE404\SP\RHF\Aug-CC-pVDZ\C2F2N4O8\OHZDE\08-Apr-2025\0\\#t hf
 aug-cc-pvdz iop(5/13=1,5/36=2,99/5=2) pseudo=read geom=check guess=(re
 ad,tcheck) scf=(maxcycle=1)\\title\\0,1\C,0,-0.677982,0.339081,-0.4012
 67\C,0,0.695219,-0.376088,-0.34777\N,0,0.980911,-1.151931,0.978155\O,0
 ,1.918192,-0.786583,1.640825\O,0,0.237086,-2.090519,1.145791\N,0,1.843
 967,0.656817,-0.544038\N,0,-0.94686,1.29236,0.779401\N,0,-1.871968,-0.
 709824,-0.40704\O,0,-0.535652,0.910325,1.853373\O,0,-1.57058,2.286485,
 0.50996\O,0,-2.068291,-1.208966,-1.486236\O,0,-2.459503,-0.86972,0.633

 Normal termination of Gaussian 16 at Tue Apr  8 22:52:13 2025.
