 Gaussian 16, Revision C.01,

 ----------------------------------------------------------------------
 #t hf aug-cc-pvdz symm=none int=(grid=ultrafine) guess=(read,tcheck) s
 table=(opt,rrhf)
 ----------------------------------------------------------------------
 -----
 title
 -----
 Symbolic Z-matrix:
 Charge =  0 Multiplicity = 1

 SCF Done:  E(RHF) =  -839.992873718     A.U. after   14 cycles
 Normal termination of Gaussian 16 at Wed Apr  9 00:53:08 2025.
 Gaussian 16:  ES64L-G16RevC.01  3-Jul-2019

 ----------------------------------------------------------------------
 #t hf aug-cc-pvdz iop(5/13=1,5/36=2,99/5=2) pseudo=read geom=check gue
 ss=(read,tcheck) scf=(maxcycle=1)
 ----------------------------------------------------------------------
 -----
 title
 -----
 Structure from the checkpoint file:  "BDE49_nonexpt_967_mol1.chk"
 Charge =  0 Multiplicity = 1

                         Standard orientation:
 ---------------------------------------------------------------------
 Center     Atomic      Atomic             Coordinates (Angstroms)
 Number     Number       Type             X           Y           Z
 ---------------------------------------------------------------------
      1          9           0       -1.602442    1.091113    0.033832
      2         16           0        0.720707    0.000104   -0.135009
      3          8           0        1.210086    1.262511   -0.605396
      4          7           0       -1.056644    0.000154   -0.651376
      5          6           0        0.595758   -0.000925    1.648919
      6          1           0        1.624326   -0.000994    2.010618
      7          1           0        0.072371    0.901730    1.955313
      8          9           0       -1.602330   -1.091215    0.033263
      9          8           0        1.210449   -1.261628   -0.606828
     10          1           0        0.072613   -0.904072    1.954281
 ---------------------------------------------------------------------

 SCF Done:  E(RHF) =  -842.004890270     A.U. after    2 cycles

 The electronic state is 1-A.
 Alpha  occ. eigenvalues --  -75.94256 -29.33318 -29.33294 -21.09673 -21.09668
 Alpha  occ. eigenvalues --  -15.92667 -13.57899 -13.46876 -13.36997 -11.45973
 Alpha  occ. eigenvalues --   -8.29548  -1.88305  -1.69883  -1.53587  -1.18601
 Alpha  occ. eigenvalues --   -0.95631  -0.86342  -0.75852  -0.71130  -0.66753
 Alpha  occ. eigenvalues --   -0.62263  -0.59342  -0.50356  -0.48733  -0.45619
 Alpha  occ. eigenvalues --   -0.44262  -0.42501  -0.41996  -0.40287  -0.33412
 Alpha  occ. eigenvalues --   -0.32687  -0.23807  -0.23734
 Alpha virt. eigenvalues --    0.02591   0.05239   0.05635   0.08808   0.10661
 Alpha virt. eigenvalues --    0.11822   0.11934   0.13182   0.14847   0.15927
 Alpha virt. eigenvalues --    0.16405   0.17735   0.18810   0.20247   0.20519

 Mulliken charges:
               1
     1  F   -0.134582
     2  S    6.032248
     3  O   -2.529618
     4  N   -0.449288
     5  C   -4.157453
     6  H    1.349306
     7  H    1.276905
     8  F   -0.134567
     9  O   -2.529677
    10  H    1.276726
 Sum of Mulliken charges =  -0.00000

 Dipole moment (field-independent basis, Debye):
    X=             -1.7088    Y=             -0.0016    Z=              3.5249  Tot=              3.9172

 Test job not archived.
 1\1\GINC-SE070\SP\RHF\Aug-CC-pVDZ\C1H3F2N1O2S1\OHZDE\09-Apr-2025\0\\#t
  hf aug-cc-pvdz iop(5/13=1,5/36=2,99/5=2) pseudo=read geom=check guess
 =(read,tcheck) scf=(maxcycle=1)\\title\\0,1\F,0,-1.602442,1.091113,0.0
 33832\S,0,0.720707,0.000104,-0.135009\O,0,1.210086,1.262511,-0.605396\
 N,0,-1.056644,0.000154,-0.651376\C,0,0.595758,-0.000925,1.648919\H,0,1
 .624326,-0.000994,2.010618\H,0,0.072371,0.90173,1.955313\F,0,-1.60233,
 -1.091215,0.033263\O,0,1.210449,-1.261628,-0.606828\H,0,0.072613,-0.90
 4072,1.954281\\Version=ES64L-G16RevC.01\State=1-A\HF=-842.0048903\RMSD

 Normal termination of Gaussian 16 at Wed Apr  9 00:53:11 2025.
