 Gaussian 16, Revision C.01,

 ----------------------------------------------------------------------
 #t hf aug-cc-pvdz symm=none int=(grid=ultrafine) guess=(read,tcheck) s
 table=(opt,rrhf)
 ----------------------------------------------------------------------
 -----
 title
 -----
 Symbolic Z-matrix:
 Charge =  0 Multiplicity = 1

 SCF Done:  E(RHF) =  -577.203610067     A.U. after   12 cycles

 1\1\GINC-SE090\Stability\RHF\Aug-CC-pVDZ\C3H7Cl1\OHZDE\08-Apr-2025\0\\
 #t hf aug-cc-pvdz symm=none int=(grid=ultrafine) guess=(read,tcheck) s
 table=(opt,rrhf)\\title\\0,1\C,0,-0.174682,0.884446,0.311399\Cl,0,-1.4
 67174,-0.346701,-0.067622\H,0,-0.576713,1.837295,-0.028403\H,0,-0.0904
 67,0.894927,1.398047\C,0,1.151754,0.560513,-0.359802\C,0,1.823739,-0.7
 17654,0.144792\H,0,1.808828,1.420651,-0.17695\H,0,2.782912,-0.872553,-
 0.355123\H,0,2.012405,-0.666194,1.221586\H,0,1.00075,0.508867,-1.44224
 9\H,0,1.199381,-1.592908,-0.045662\\Version=ES64L-G16RevC.01\HF=-577.2

 Normal termination of Gaussian 16 at Tue Apr  8 22:31:40 2025.
 Gaussian 16:  ES64L-G16RevC.01  3-Jul-2019

 ----------------------------------------------------------------------
 #t hf aug-cc-pvdz iop(5/13=1,5/36=2,99/5=2) pseudo=read geom=check gue
 ss=(read,tcheck) scf=(maxcycle=1)
 ----------------------------------------------------------------------
 -----
 title
 -----
 Structure from the checkpoint file:  "BDE49_expt_1026_mol1.chk"
 Charge =  0 Multiplicity = 1

                         Standard orientation:
 ---------------------------------------------------------------------
 Center     Atomic      Atomic             Coordinates (Angstroms)
 Number     Number       Type             X           Y           Z
 ---------------------------------------------------------------------
      1          6           0       -0.174682    0.884446    0.311399
      2         17           0       -1.467174   -0.346701   -0.067622
      3          1           0       -0.576713    1.837295   -0.028403
      4          1           0       -0.090467    0.894927    1.398047
      5          6           0        1.151754    0.560513   -0.359802
      6          6           0        1.823739   -0.717654    0.144792
      7          1           0        1.808828    1.420651   -0.176950
      8          1           0        2.782912   -0.872553   -0.355123
      9          1           0        2.012405   -0.666194    1.221586
     10          1           0        1.000750    0.508867   -1.442249
     11          1           0        1.199381   -1.592908   -0.045662
 ---------------------------------------------------------------------

 SCF Done:  E(RHF) =  -578.068419933     A.U. after    2 cycles

 The electronic state is 1-A.
 Alpha  occ. eigenvalues --  -99.86991 -11.45137 -11.40527 -11.36256 -10.44236
 Alpha  occ. eigenvalues --   -9.64113  -9.63477  -9.63387  -1.33088  -1.17664
 Alpha  occ. eigenvalues --   -0.99646  -0.85501  -0.66082  -0.65048  -0.59183
 Alpha  occ. eigenvalues --   -0.55974  -0.51836  -0.49620  -0.48177  -0.45829
 Alpha  occ. eigenvalues --   -0.44758
 Alpha virt. eigenvalues --    0.03415   0.05144   0.05753   0.06173   0.06580
 Alpha virt. eigenvalues --    0.06814   0.07132   0.08284   0.11351   0.12266
 Alpha virt. eigenvalues --    0.14099   0.14577   0.15844   0.16424   0.16796

 Mulliken charges:
               1
     1  C   -3.603513
     2  Cl   0.051837
     3  H    1.513294
     4  H    1.665269
     5  C   -2.613435
     6  C   -3.428684
     7  H    1.335241
     8  H    1.193981
     9  H    1.221052
    10  H    1.368611
    11  H    1.296347
 Sum of Mulliken charges =  -0.00000

 Dipole moment (field-independent basis, Debye):
    X=              2.0406    Y=              1.5110    Z=              0.3302  Tot=              2.5605

 Test job not archived.
 1\1\GINC-SE090\SP\RHF\Aug-CC-pVDZ\C3H7Cl1\OHZDE\08-Apr-2025\0\\#t hf a
 ug-cc-pvdz iop(5/13=1,5/36=2,99/5=2) pseudo=read geom=check guess=(rea
 d,tcheck) scf=(maxcycle=1)\\title\\0,1\C,0,-0.174682,0.884446,0.311399
 \Cl,0,-1.467174,-0.346701,-0.067622\H,0,-0.576713,1.837295,-0.028403\H
 ,0,-0.090467,0.894927,1.398047\C,0,1.151754,0.560513,-0.359802\C,0,1.8
 23739,-0.717654,0.144792\H,0,1.808828,1.420651,-0.17695\H,0,2.782912,-
 0.872553,-0.355123\H,0,2.012405,-0.666194,1.221586\H,0,1.00075,0.50886
 7,-1.442249\H,0,1.199381,-1.592908,-0.045662\\Version=ES64L-G16RevC.01

 Normal termination of Gaussian 16 at Tue Apr  8 22:31:43 2025.
