 Gaussian 16, Revision C.01,

 ----------------------------------------------------------------------
 #t hf aug-cc-pvdz symm=none int=(grid=ultrafine) guess=(read,tcheck) s
 table=(opt,rrhf)
 ----------------------------------------------------------------------
 -----
 title
 -----
 Symbolic Z-matrix:
 Charge =  0 Multiplicity = 1

 SCF Done:  E(RHF) =  -634.718121337     A.U. after   16 cycles
 Normal termination of Gaussian 16 at Wed Apr  9 00:00:37 2025.
 Gaussian 16:  ES64L-G16RevC.01  3-Jul-2019

 ----------------------------------------------------------------------
 #t hf aug-cc-pvdz iop(5/13=1,5/36=2,99/5=2) pseudo=read geom=check gue
 ss=(read,tcheck) scf=(maxcycle=1)
 ----------------------------------------------------------------------
 -----
 title
 -----
 Structure from the checkpoint file:  "BDE49_nonexpt_2080_mol1.chk"
 Charge =  0 Multiplicity = 1

                         Standard orientation:
 ---------------------------------------------------------------------
 Center     Atomic      Atomic             Coordinates (Angstroms)
 Number     Number       Type             X           Y           Z
 ---------------------------------------------------------------------
      1         14           0        1.980774   -1.360745    0.000000
      2          6           0        0.194608   -0.787154    0.000000
      3          6           0       -0.104516    0.589426    0.000000
      4          6           0       -1.424884    1.041255    0.000000
      5          1           0       -1.653941    2.098516    0.000000
      6          6           0       -2.465420    0.110635    0.000000
      7          6           0       -0.873005   -1.688950    0.000000
      8          1           0       -0.665026   -2.753984    0.000000
      9          6           0       -2.199125   -1.252946    0.000000
     10          1           0       -3.010633   -1.970983   -0.000001
     11          1           0       -3.490226    0.465413   -0.000001
     12          8           0        0.986238    1.412469    0.000000
     13          6           0        0.792160    2.819997    0.000000
     14          1           0        1.788832    3.257722    0.000000
     15          1           0        0.252013    3.148946    0.894394
     16          1           0        0.252013    3.148946   -0.894394
     17          1           0        2.711454   -0.896661    1.201866
     18          1           0        2.711455   -0.896662   -1.201865
     19          1           0        1.964406   -2.844148    0.000001
 ---------------------------------------------------------------------

 SCF Done:  E(RHF) =  -636.500837757     A.U. after    2 cycles

 The electronic state is 1-A.
 Alpha  occ. eigenvalues --  -76.20630 -21.07848 -11.52674 -11.46362 -11.42840
 Alpha  occ. eigenvalues --  -11.42086 -11.40781 -11.39814 -11.36378  -5.54104
 Alpha  occ. eigenvalues --   -2.19115  -2.17688  -2.16196  -1.79390  -1.31848
 Alpha  occ. eigenvalues --   -1.10055  -1.08708  -0.99075  -0.87440  -0.83578
 Alpha  occ. eigenvalues --   -0.76101  -0.69203  -0.64217  -0.62851  -0.62770
 Alpha  occ. eigenvalues --   -0.60302  -0.54065  -0.53318  -0.52898  -0.46470
 Alpha  occ. eigenvalues --   -0.46113  -0.45173  -0.42411  -0.41048  -0.37891
 Alpha  occ. eigenvalues --   -0.33839  -0.26771
 Alpha virt. eigenvalues --    0.03226   0.04509   0.05188   0.05501   0.05612
 Alpha virt. eigenvalues --    0.05971   0.06950   0.07178   0.07584   0.07975
 Alpha virt. eigenvalues --    0.09408   0.09793   0.10738   0.10955   0.12811

 Mulliken charges:
               1
     1  Si   6.034102
     2  C   -5.111404
     3  C    8.334226
     4  C   -3.591182
     5  H    1.976239
     6  C    0.058206
     7  C   -0.985549
     8  H    1.862420
     9  C   -2.086566
    10  H    1.593212
    11  H    1.522115
    12  O   -4.850385
    13  C   -3.709471
    14  H    1.446938
    15  H    1.372931
    16  H    1.372931
    17  H   -1.735337
    18  H   -1.735338
    19  H   -1.768088
 Sum of Mulliken charges =  -0.00000

 Dipole moment (field-independent basis, Debye):
    X=             -0.9258    Y=              1.7880    Z=             -0.0000  Tot=              2.0135

 Test job not archived.
 1\1\GINC-SE367\SP\RHF\Aug-CC-pVDZ\C7H10O1Si1\OHZDE\09-Apr-2025\0\\#t h
 f aug-cc-pvdz iop(5/13=1,5/36=2,99/5=2) pseudo=read geom=check guess=(
 read,tcheck) scf=(maxcycle=1)\\title\\0,1\Si,0,1.980775,-1.360744,0.\C
 ,0,0.194608,-0.787154,0.\C,0,-0.104516,0.589426,0.\C,0,-1.424885,1.041
 254,0.\H,0,-1.653942,2.098515,0.\C,0,-2.46542,0.110633,0.\C,0,-0.87300
 4,-1.688951,0.\H,0,-0.665024,-2.753984,0.\C,0,-2.199124,-1.252948,0.\H
 ,0,-3.010632,-1.970985,-0.000001\H,0,-3.490226,0.465411,-0.000001\O,0,
 0.986237,1.41247,0.\C,0,0.792158,2.819998,0.\H,0,1.78883,3.257723,0.\H

 Normal termination of Gaussian 16 at Wed Apr  9 00:00:45 2025.
