 Gaussian 16, Revision C.01,

 ----------------------------------------------------------------------
 #t hf aug-cc-pvdz symm=none int=(grid=ultrafine) guess=(read,tcheck) s
 table=(opt,rrhf)
 ----------------------------------------------------------------------
 -----
 title
 -----
 Symbolic Z-matrix:
 Charge =  0 Multiplicity = 1

 SCF Done:  E(RHF) =  -347.844697008     A.U. after   14 cycles
 Normal termination of Gaussian 16 at Tue Apr  8 22:37:09 2025.
 Gaussian 16:  ES64L-G16RevC.01  3-Jul-2019

 ----------------------------------------------------------------------
 #t hf aug-cc-pvdz iop(5/13=1,5/36=2,99/5=2) pseudo=read geom=check gue
 ss=(read,tcheck) scf=(maxcycle=1)
 ----------------------------------------------------------------------
 -----
 title
 -----
 Structure from the checkpoint file:  "BDE49_expt_105_mol1.chk"
 Charge =  0 Multiplicity = 1

                         Standard orientation:
 ---------------------------------------------------------------------
 Center     Atomic      Atomic             Coordinates (Angstroms)
 Number     Number       Type             X           Y           Z
 ---------------------------------------------------------------------
      1          6           0       -2.650305    0.214326   -0.000000
      2          6           0       -1.779164    1.302728    0.000042
      3          6           0       -0.402234    1.098966    0.000037
      4          6           0        0.136720   -0.194091   -0.000009
      5          6           0       -0.750292   -1.274591   -0.000050
      6          6           0       -2.130329   -1.076707   -0.000046
      7          1           0       -0.354441   -2.285524   -0.000087
      8          1           0       -2.173642    2.313095    0.000078
      9          1           0        0.259168    1.959022    0.000070
     10          1           0       -2.797239   -1.932027   -0.000079
     11          1           0       -3.722876    0.372698    0.000003
     12          6           0        1.641238   -0.426805   -0.000012
     13          6           0        2.309246    0.131375   -1.269497
     14          1           0        1.859001   -0.291591   -2.170993
     15          1           0        3.377638   -0.104480   -1.278711
     16          1           0        2.208718    1.219319   -1.325495
     17          6           0        2.309234    0.131268    1.269526
     18          1           0        1.793683   -1.512171   -0.000057
     19          1           0        3.377626   -0.104587    1.278731
     20          1           0        1.858980   -0.291775    2.170982
     21          1           0        2.208703    1.219207    1.325615
 ---------------------------------------------------------------------

 SCF Done:  E(RHF) =  -349.583551990     A.U. after    2 cycles

 The electronic state is 1-A.
 Alpha  occ. eigenvalues --  -11.51484 -11.44660 -11.42632 -11.41239 -11.40051
 Alpha  occ. eigenvalues --  -11.39942 -11.38169 -11.37063 -11.35243  -1.35588
 Alpha  occ. eigenvalues --   -1.21161  -1.08466  -1.06324  -0.99936  -0.88478
 Alpha  occ. eigenvalues --   -0.85630  -0.79857  -0.70132  -0.64961  -0.62226
 Alpha  occ. eigenvalues --   -0.59324  -0.57217  -0.56388  -0.54894  -0.53441
 Alpha  occ. eigenvalues --   -0.50440  -0.49583  -0.46457  -0.44616  -0.42760
 Alpha  occ. eigenvalues --   -0.40235  -0.32399  -0.31217
 Alpha virt. eigenvalues --    0.03560   0.04679   0.05155   0.05738   0.05822
 Alpha virt. eigenvalues --    0.06055   0.06519   0.06606   0.06849   0.07570
 Alpha virt. eigenvalues --    0.08178   0.09772   0.11414   0.12014   0.12233

 Mulliken charges:
               1
     1  C   -3.303229
     2  C   -1.946262
     3  C   -2.480811
     4  C    6.482277
     5  C   -3.388054
     6  C   -1.353435
     7  H    1.691365
     8  H    1.488172
     9  H    1.996825
    10  H    1.497417
    11  H    1.569253
    12  C   -2.838819
    13  C   -4.284476
    14  H    1.273132
    15  H    1.238707
    16  H    1.379612
    17  C   -4.284475
    18  H    1.371344
    19  H    1.238712
    20  H    1.273132
    21  H    1.379613
 Sum of Mulliken charges =   0.00000

 Dipole moment (field-independent basis, Debye):
    X=              0.2080    Y=             -0.1125    Z=             -0.0000  Tot=              0.2365

 Test job not archived.
 1\1\GINC-SE105\SP\RHF\Aug-CC-pVDZ\C9H12\OHZDE\08-Apr-2025\0\\#t hf aug
 -cc-pvdz iop(5/13=1,5/36=2,99/5=2) pseudo=read geom=check guess=(read,
 tcheck) scf=(maxcycle=1)\\title\\0,1\C,0,-2.650305,0.214326,0.\C,0,-1.
 779164,1.302728,0.000042\C,0,-0.402234,1.098966,0.000037\C,0,0.13672,-
 0.194091,-0.000009\C,0,-0.750292,-1.274591,-0.00005\C,0,-2.130329,-1.0
 76707,-0.000046\H,0,-0.354441,-2.285524,-0.000087\H,0,-2.173642,2.3130
 95,0.000078\H,0,0.259168,1.959022,0.00007\H,0,-2.797239,-1.932027,-0.0
 00079\H,0,-3.722876,0.372698,0.000003\C,0,1.641238,-0.426805,-0.000012

 Normal termination of Gaussian 16 at Tue Apr  8 22:37:20 2025.
