 Gaussian 16, Revision C.01,

 ----------------------------------------------------------------------
 #t hf aug-cc-pvdz symm=none int=(grid=ultrafine) guess=(read,tcheck) s
 table=(opt,rrhf)
 ----------------------------------------------------------------------
 -----
 title
 -----
 Symbolic Z-matrix:
 Charge =  0 Multiplicity = 1

 SCF Done:  E(RHF) =  -1943.10420200     A.U. after   18 cycles
 Normal termination of Gaussian 16 at Tue Apr  8 23:28:27 2025.
 Gaussian 16:  ES64L-G16RevC.01  3-Jul-2019

 ----------------------------------------------------------------------
 #t hf aug-cc-pvdz iop(5/13=1,5/36=2,99/5=2) pseudo=read geom=check gue
 ss=(read,tcheck) scf=(maxcycle=1)
 ----------------------------------------------------------------------
 -----
 title
 -----
 Structure from the checkpoint file:  "BDE49_nonexpt_1259_mol1.chk"
 Charge =  0 Multiplicity = 1

                         Standard orientation:
 ---------------------------------------------------------------------
 Center     Atomic      Atomic             Coordinates (Angstroms)
 Number     Number       Type             X           Y           Z
 ---------------------------------------------------------------------
      1         17           0        3.006960    0.011662   -0.641927
      2         17           0       -1.619669    1.792349   -1.059341
      3          8           0        0.991872    2.155928    1.033991
      4          8           0        0.352945   -1.684102   -1.529598
      5         15           0        1.533152   -0.539472    0.696644
      6         15           0       -1.382207    0.775048    0.758627
      7          6           0        0.532153    1.067557    0.868072
      8          6           0        0.158388   -1.202613   -0.451570
      9          6           0       -1.221402   -1.035813    0.205283
     10          6           0       -1.273562   -1.851168    1.526959
     11          1           0       -0.564664   -1.505316    2.284691
     12          1           0       -1.046948   -2.901144    1.322678
     13          1           0       -2.275169   -1.794891    1.957554
     14          6           0       -2.339872   -1.475751   -0.743583
     15          1           0       -2.283629   -0.952863   -1.697260
     16          1           0       -2.250725   -2.546077   -0.944300
     17          1           0       -3.319741   -1.289411   -0.296977
 ---------------------------------------------------------------------

 SCF Done:  E(RHF) =  -1945.49594157     A.U. after    2 cycles

 The electronic state is 1-A.
 Alpha  occ. eigenvalues -- -105.26257-105.25595 -99.91297 -99.91027 -21.11295
 Alpha  occ. eigenvalues --  -21.10070 -11.52905 -11.51271 -11.46841 -11.43324
 Alpha  occ. eigenvalues --  -11.40285 -10.48576 -10.48288  -9.68480  -9.68222
 Alpha  occ. eigenvalues --   -9.67759  -9.67706  -9.67660  -9.67508  -2.84238
 Alpha  occ. eigenvalues --   -2.83521  -1.76139  -1.75397  -1.56933  -1.56230
 Alpha  occ. eigenvalues --   -1.53789  -1.53576  -1.52585  -1.52021  -1.27082
 Alpha  occ. eigenvalues --   -1.24631  -1.22635  -1.05079  -0.96545  -0.85748
 Alpha  occ. eigenvalues --   -0.81446  -0.68667  -0.66161  -0.62924  -0.61554
 Alpha  occ. eigenvalues --   -0.59867  -0.58253  -0.56476  -0.55396  -0.55172
 Alpha  occ. eigenvalues --   -0.54183  -0.52939  -0.52059  -0.49668  -0.49180
 Alpha  occ. eigenvalues --   -0.48466  -0.45510  -0.45162  -0.36327  -0.26828
 Alpha  occ. eigenvalues --   -0.15082  -0.09479  -0.01353
 Alpha virt. eigenvalues --    0.03804   0.04423   0.05304   0.05405   0.05659
 Alpha virt. eigenvalues --    0.06615   0.07686   0.08518   0.09107   0.09194
 Alpha virt. eigenvalues --    0.09989   0.10379   0.10475   0.10931   0.11650

 Mulliken charges:
               1
     1  Cl  -1.406693
     2  Cl  -1.441654
     3  O   -2.900219
     4  O   -3.550974
     5  P    5.320905
     6  P    5.598973
     7  C   -1.264062
     8  C    2.423966
     9  C   -1.777705
    10  C   -3.806717
    11  H    1.432997
    12  H    1.294649
    13  H    1.359497
    14  C   -5.056004
    15  H    1.262977
    16  H    1.216232
    17  H    1.293831
 Sum of Mulliken charges =   0.00000

 Dipole moment (field-independent basis, Debye):
    X=             -0.8324    Y=             -3.7213    Z=              5.9820  Tot=              7.0940

 Test job not archived.
 1\1\GINC-SE253\SP\RHF\Aug-CC-pVDZ\C5H6Cl2O2P2\OHZDE\08-Apr-2025\0\\#t
 hf aug-cc-pvdz iop(5/13=1,5/36=2,99/5=2) pseudo=read geom=check guess=
 (read,tcheck) scf=(maxcycle=1)\\title\\0,1\Cl,0,3.00696,0.011662,-0.64
 1927\Cl,0,-1.619669,1.792349,-1.059341\O,0,0.991872,2.155928,1.033991\
 O,0,0.352945,-1.684102,-1.529598\P,0,1.533152,-0.539472,0.696644\P,0,-
 1.382207,0.775048,0.758627\C,0,0.532153,1.067557,0.868072\C,0,0.158388
 ,-1.202613,-0.45157\C,0,-1.221402,-1.035813,0.205283\C,0,-1.273562,-1.
 851168,1.526959\H,0,-0.564664,-1.505316,2.284691\H,0,-1.046948,-2.9011

 Normal termination of Gaussian 16 at Tue Apr  8 23:28:39 2025.
