 Gaussian 16, Revision C.01,

 ----------------------------------------------------------------------
 #t hf aug-cc-pvdz symm=none int=(grid=ultrafine) guess=(read,tcheck) s
 table=opt
 ----------------------------------------------------------------------
 -----
 title
 -----
 Symbolic Z-matrix:
 Charge =  0 Multiplicity = 2

 SCF Done:  E(UHF) =  -622.616397172     A.U. after   20 cycles
 Normal termination of Gaussian 16 at Tue Apr  8 22:47:28 2025.
 Gaussian 16:  ES64L-G16RevC.01  3-Jul-2019

 ----------------------------------------------------------------------
 #t hf aug-cc-pvdz iop(5/13=1,5/36=2,99/5=2) pseudo=read geom=check gue
 ss=(read,tcheck) scf=(maxcycle=1)
 ----------------------------------------------------------------------
 -----
 title
 -----
 Structure from the checkpoint file:  "BDE49_expt_1596_mol2.chk"
 Charge =  0 Multiplicity = 2

                         Standard orientation:
 ---------------------------------------------------------------------
 Center     Atomic      Atomic             Coordinates (Angstroms)
 Number     Number       Type             X           Y           Z
 ---------------------------------------------------------------------
      1         16           0       -0.142855    0.066672    0.253968
      2          8           0        1.220510   -0.799481   -0.108017
      3          8           0        0.069803    1.437927   -0.188172
      4          8           0       -1.250024   -0.749911   -0.197072
      5          1           0        1.963374   -0.175029   -0.117400
 ---------------------------------------------------------------------

 SCF Done:  E(UHF) =  -623.773421612     A.U. after    2 cycles

 The electronic state is 2-A.
 Alpha  occ. eigenvalues --  -75.93183 -21.16662 -21.12144 -21.11979 -13.54781
 Alpha  occ. eigenvalues --  -13.42568 -13.29067  -8.28084  -1.91887  -1.74927
 Alpha  occ. eigenvalues --   -1.71372  -0.98284  -0.69277  -0.62249  -0.59607
 Alpha  occ. eigenvalues --   -0.50804  -0.47790  -0.44751  -0.41812  -0.40607
 Alpha  occ. eigenvalues --   -0.31428
 Alpha virt. eigenvalues --    0.03399   0.08296   0.09246   0.09456   0.13323
 Alpha virt. eigenvalues --    0.18174   0.18938   0.20176   0.20600   0.21108
 Alpha virt. eigenvalues --    0.23079   0.24004   0.25737   0.26322   0.26888

  Beta  occ. eigenvalues --  -75.92738 -21.15955 -21.10782 -21.10724 -13.54929
  Beta  occ. eigenvalues --  -13.42398 -13.26672  -8.27454  -1.89693  -1.72631
  Beta  occ. eigenvalues --   -1.67845  -0.92171  -0.67416  -0.59181  -0.58265
  Beta  occ. eigenvalues --   -0.46367  -0.43288  -0.41207  -0.39658  -0.39246
  Beta virt. eigenvalues --    0.01273   0.05453   0.08919   0.09399   0.10155
  Beta virt. eigenvalues --    0.16488   0.18542   0.19354   0.20559   0.21499
  Beta virt. eigenvalues --    0.21822   0.23515   0.24631   0.26459   0.26855

 Mulliken charges and spin densities:
               1          2
     1  S    5.511764   0.492063
     2  O   -2.200064   0.083184
     3  O   -2.116741   0.211601
     4  O   -2.111632   0.244740
     5  H    0.916674  -0.031587
 Sum of Mulliken charges =   0.00000   1.00000

 Dipole moment (field-independent basis, Debye):
    X=              1.6410    Y=             -0.2758    Z=              0.6165  Tot=              1.7746
                          Isotropic Fermi Contact Couplings
        Atom                 a.u.       MegaHertz       Gauss      10(-4) cm-1
     1  S(33)              1.08187     371.59473     132.59424     123.95066
     2  O(17)              0.07104     -43.06620     -15.36709     -14.36534
     3  O(17)              0.07894     -47.85172     -17.07468     -15.96162
     4  O(17)              0.08282     -50.20751     -17.91529     -16.74742
     5  H(1)              -0.00248     -11.09398      -3.95861      -3.70055
 --------------------------------------------------------
       Center         ----  Spin Dipole Couplings  ----
                      3XX-RR        3YY-RR        3ZZ-RR

 Normal termination of Gaussian 16 at Tue Apr  8 22:47:30 2025.
