 Gaussian 16, Revision C.01,

 ----------------------------------------------------------------------
 #t hf aug-cc-pvdz symm=none int=(grid=ultrafine) guess=(read,tcheck) s
 table=(opt,rrhf)
 ----------------------------------------------------------------------
 -----
 title
 -----
 Symbolic Z-matrix:
 Charge =  0 Multiplicity = 1

 SCF Done:  E(RHF) =  -816.729186186     A.U. after   16 cycles
 Normal termination of Gaussian 16 at Tue Apr  8 23:37:02 2025.
 Gaussian 16:  ES64L-G16RevC.01  3-Jul-2019

 ----------------------------------------------------------------------
 #t hf aug-cc-pvdz iop(5/13=1,5/36=2,99/5=2) pseudo=read geom=check gue
 ss=(read,tcheck) scf=(maxcycle=1)
 ----------------------------------------------------------------------
 -----
 title
 -----
 Structure from the checkpoint file:  "BDE49_nonexpt_1385_mol1.chk"
 Charge =  0 Multiplicity = 1

                         Standard orientation:
 ---------------------------------------------------------------------
 Center     Atomic      Atomic             Coordinates (Angstroms)
 Number     Number       Type             X           Y           Z
 ---------------------------------------------------------------------
      1          7           0       -0.365508    0.153164   -0.093165
      2         15           0       -1.396778   -1.182783    0.312106
      3          6           0       -2.919909   -0.117502   -0.062214
      4          6           0       -2.453161    1.259454   -0.524910
      5          6           0       -1.027820    1.462437   -0.008655
      6          8           0       -4.058025   -0.479763    0.056588
      7          6           0        1.041437    0.064413   -0.045452
      8          1           0       -1.045570    1.839247    1.025688
      9          1           0       -0.485193    2.185747   -0.620435
     10          1           0       -3.158020    2.021638   -0.188150
     11          1           0       -2.459522    1.247550   -1.621185
     12          6           0        1.834652    1.175362    0.280484
     13          6           0        3.225498    1.077351    0.284495
     14          6           0        3.857373   -0.122525   -0.019248
     15          6           0        3.074018   -1.233723   -0.334040
     16          6           0        1.689187   -1.146717   -0.351112
     17          1           0        1.099766   -2.016961   -0.613564
     18          1           0        4.938280   -0.195082   -0.010473
     19          1           0        3.545855   -2.179254   -0.577717
     20          1           0        1.375408    2.118388    0.545545
     21          1           0        3.813379    1.952417    0.539293
     22          1           0       -1.577606   -0.977293    1.722767
 ---------------------------------------------------------------------

 SCF Done:  E(RHF) =  -819.138765775     A.U. after    2 cycles

 The electronic state is 1-A.
 Alpha  occ. eigenvalues -- -105.21301 -21.07369 -15.74271 -11.53306 -11.50333
 Alpha  occ. eigenvalues --  -11.46452 -11.46035 -11.43418 -11.40929 -11.40828
 Alpha  occ. eigenvalues --  -11.40203 -11.36572  -2.79096  -1.72628  -1.60261
 Alpha  occ. eigenvalues --   -1.50393  -1.46771  -1.38383  -1.28644  -1.16558
 Alpha  occ. eigenvalues --   -1.09722  -1.04552  -0.94958  -0.87100  -0.85454
 Alpha  occ. eigenvalues --   -0.76861  -0.71502  -0.69104  -0.67697  -0.64842
 Alpha  occ. eigenvalues --   -0.62158  -0.58912  -0.58182  -0.56852  -0.53591
 Alpha  occ. eigenvalues --   -0.52052  -0.51125  -0.46984  -0.45338  -0.44355
 Alpha  occ. eigenvalues --   -0.41814  -0.41501  -0.33632  -0.30970  -0.26911
 Alpha  occ. eigenvalues --   -0.17685  -0.03931
 Alpha virt. eigenvalues --    0.03346   0.04892   0.05146   0.05524   0.05722
 Alpha virt. eigenvalues --    0.06044   0.06564   0.07475   0.07671   0.08477
 Alpha virt. eigenvalues --    0.08886   0.09221   0.10743   0.11200   0.11907

 Mulliken charges:
               1
     1  N   -3.729163
     2  P    2.753374
     3  C    2.106329
     4  C   -3.587285
     5  C   -2.439697
     6  O   -3.139361
     7  C    5.327899
     8  H    1.568879
     9  H    1.598289
    10  H    1.232268
    11  H    1.379885
    12  C   -2.532497
    13  C   -1.030783
    14  C   -3.014731
    15  C   -1.154064
    16  C   -2.966608
    17  H    2.122400
    18  H    1.575382
    19  H    1.522767
    20  H    1.881373
    21  H    1.527662
    22  H   -1.002317
 Sum of Mulliken charges =   0.00000

 Dipole moment (field-independent basis, Debye):
    X=              2.0051    Y=             -2.2524    Z=             -1.4324  Tot=              3.3385

 Test job not archived.
 1\1\GINC-SE015\SP\RHF\Aug-CC-pVDZ\C9H10N1O1P1\OHZDE\08-Apr-2025\0\\#t
 hf aug-cc-pvdz iop(5/13=1,5/36=2,99/5=2) pseudo=read geom=check guess=
 (read,tcheck) scf=(maxcycle=1)\\title\\0,1\N,0,-0.365508,0.153164,-0.0
 93165\P,0,-1.396778,-1.182783,0.312106\C,0,-2.919909,-0.117502,-0.0622
 14\C,0,-2.453161,1.259454,-0.52491\C,0,-1.02782,1.462437,-0.008655\O,0
 ,-4.058025,-0.479763,0.056588\C,0,1.041437,0.064413,-0.045452\H,0,-1.0
 4557,1.839247,1.025688\H,0,-0.485193,2.185747,-0.620435\H,0,-3.15802,2
 .021638,-0.18815\H,0,-2.459522,1.24755,-1.621185\C,0,1.834652,1.175362

 Normal termination of Gaussian 16 at Tue Apr  8 23:37:19 2025.
