 Gaussian 16, Revision C.01,

 ----------------------------------------------------------------------
 #t hf aug-cc-pvdz symm=none int=(grid=ultrafine) guess=(read,tcheck) s
 table=(opt,rrhf)
 ----------------------------------------------------------------------
 -----
 title
 -----
 Symbolic Z-matrix:
 Charge =  0 Multiplicity = 1

 SCF Done:  E(RHF) =  -1100.52558183     A.U. after   12 cycles
 Normal termination of Gaussian 16 at Tue Apr  8 23:49:54 2025.
 Gaussian 16:  ES64L-G16RevC.01  3-Jul-2019

 ----------------------------------------------------------------------
 #t hf aug-cc-pvdz iop(5/13=1,5/36=2,99/5=2) pseudo=read geom=check gue
 ss=(read,tcheck) scf=(maxcycle=1)
 ----------------------------------------------------------------------
 -----
 title
 -----
 Structure from the checkpoint file:  "BDE49_nonexpt_181_mol1.chk"
 Charge =  0 Multiplicity = 1

                         Standard orientation:
 ---------------------------------------------------------------------
 Center     Atomic      Atomic             Coordinates (Angstroms)
 Number     Number       Type             X           Y           Z
 ---------------------------------------------------------------------
      1         17           0        1.971704   -0.642733   -0.880952
      2         17           0        0.774950    1.525351    0.840325
      3          5           0        0.568552   -0.016087   -0.004541
      4          6           0       -0.766072   -0.835142    0.084153
      5          6           0       -2.054463    0.006895   -0.031331
      6          6           0       -0.744750   -1.633443    1.416940
      7          1           0       -0.755369   -0.962149    2.279939
      8          1           0        0.136414   -2.275280    1.497158
      9          1           0       -1.629654   -2.273294    1.478662
     10          1           0       -0.761055   -1.567093   -0.732675
     11          6           0       -2.223363    0.698548   -1.387515
     12          1           0       -2.075099    0.752922    0.770033
     13          1           0       -2.909853   -0.655634    0.145079
     14          1           0       -1.420463    1.417283   -1.579002
     15          1           0       -3.167949    1.246502   -1.433867
     16          1           0       -2.220950   -0.028474   -2.205456
 ---------------------------------------------------------------------

 SCF Done:  E(RHF) =  -1101.95063094     A.U. after    2 cycles

 The electronic state is 1-A.
 Alpha  occ. eigenvalues --  -99.89619 -99.89600 -11.42182 -11.40470 -11.37770
 Alpha  occ. eigenvalues --  -11.35025 -10.47031 -10.46776  -9.66993  -9.66855
 Alpha  occ. eigenvalues --   -9.66606  -9.66537  -9.66431  -9.66234  -7.70615
 Alpha  occ. eigenvalues --   -1.40220  -1.29314  -1.24679  -1.08844  -0.93702
 Alpha  occ. eigenvalues --   -0.87119  -0.76815  -0.67262  -0.63157  -0.60367
 Alpha  occ. eigenvalues --   -0.58530  -0.57785  -0.57066  -0.55295  -0.52347
 Alpha  occ. eigenvalues --   -0.51027  -0.50118  -0.48934  -0.45992  -0.43348
 Alpha  occ. eigenvalues --   -0.41028
 Alpha virt. eigenvalues --    0.03527   0.04020   0.04409   0.04663   0.05574
 Alpha virt. eigenvalues --    0.06141   0.06613   0.06990   0.07588   0.07801
 Alpha virt. eigenvalues --    0.08449   0.09684   0.10465   0.10688   0.11701

 Mulliken charges:
               1
     1  Cl  -1.592181
     2  Cl  -1.515672
     3  B    3.648185
     4  C   -0.831493
     5  C   -3.172657
     6  C   -4.311915
     7  H    1.222220
     8  H    1.178148
     9  H    1.302306
    10  H    1.803708
    11  C   -3.960263
    12  H    1.245112
    13  H    1.254204
    14  H    1.362000
    15  H    1.085829
    16  H    1.282471
 Sum of Mulliken charges =   0.00000

 Dipole moment (field-independent basis, Debye):
    X=             -1.7028    Y=             -0.8598    Z=              0.2028  Tot=              1.9183

 Test job not archived.
 1\1\GINC-SE404\SP\RHF\Aug-CC-pVDZ\C4H9B1Cl2\OHZDE\08-Apr-2025\0\\#t hf
  aug-cc-pvdz iop(5/13=1,5/36=2,99/5=2) pseudo=read geom=check guess=(r
 ead,tcheck) scf=(maxcycle=1)\\title\\0,1\Cl,0,-1.971704,-0.642733,0.88
 0952\Cl,0,-0.77495,1.525351,-0.840325\B,0,-0.568552,-0.016087,0.004541
 \C,0,0.766072,-0.835142,-0.084153\C,0,2.054463,0.006895,0.031331\C,0,0
 .74475,-1.633443,-1.41694\H,0,0.755369,-0.962149,-2.279939\H,0,-0.1364
 14,-2.27528,-1.497158\H,0,1.629654,-2.273294,-1.478662\H,0,0.761055,-1
 .567093,0.732675\C,0,2.223363,0.698548,1.387515\H,0,2.075099,0.752922,

 Normal termination of Gaussian 16 at Tue Apr  8 23:50:00 2025.
