 Gaussian 16, Revision C.01,

 ----------------------------------------------------------------------
 #t hf aug-cc-pvdz symm=none int=(grid=ultrafine) guess=(read,tcheck) s
 table=opt
 ----------------------------------------------------------------------
 -----
 title
 -----
 Symbolic Z-matrix:
 Charge =  0 Multiplicity = 2

 SCF Done:  E(UHF) =  -315.877665401     A.U. after   15 cycles

 1\1\GINC-SE457\Stability\UHF\Aug-CC-pVDZ\B1H4Si1\OHZDE\09-Apr-2025\0\\
 #t hf aug-cc-pvdz symm=none int=(grid=ultrafine) guess=(read,tcheck) s
 table=opt\\title\\0,2\Si,0,-0.564786,0.,-0.000004\B,0,1.363004,0.,0.00
 0016\H,0,-1.407905,-1.215421,-0.000016\H,0,-1.407904,1.215422,-0.00001
 6\H,0,1.9539,-1.032595,0.000004\H,0,1.953899,1.032595,0.000004\\Versio
 n=ES64L-G16RevC.01\HF=-315.8776654\S2=0.762528\S2-1=0.\S2A=0.750055\RM
 SD=2.979e-09\Dipole=-0.2788862,-0.0000002,0.0000042\Quadrupole=-0.6607
 209,-0.1710234,0.8317443,0.0000014,0.0000129,0.\PG=Unknown\\@

 Normal termination of Gaussian 16 at Wed Apr  9 00:13:31 2025.
 Gaussian 16:  ES64L-G16RevC.01  3-Jul-2019

 ----------------------------------------------------------------------
 #t hf aug-cc-pvdz iop(5/13=1,5/36=2,99/5=2) pseudo=read geom=check gue
 ss=(read,tcheck) scf=(maxcycle=1)
 ----------------------------------------------------------------------
 -----
 title
 -----
 Structure from the checkpoint file:  "BDE49_nonexpt_2451_mol2.chk"
 Charge =  0 Multiplicity = 2

                         Standard orientation:
 ---------------------------------------------------------------------
 Center     Atomic      Atomic             Coordinates (Angstroms)
 Number     Number       Type             X           Y           Z
 ---------------------------------------------------------------------
      1         14           0        0.564786   -0.000000    0.000004
      2          5           0       -1.363004    0.000000   -0.000016
      3          1           0        1.407905   -1.215421    0.000016
      4          1           0        1.407904    1.215422    0.000016
      5          1           0       -1.953900   -1.032595   -0.000004
      6          1           0       -1.953899    1.032595   -0.000004
 ---------------------------------------------------------------------

 SCF Done:  E(UHF) =  -316.143783499     A.U. after    2 cycles

 The electronic state is 2-A.
 Alpha  occ. eigenvalues --  -76.22542  -7.61474  -5.56164  -2.19565  -2.18129
 Alpha  occ. eigenvalues --   -2.15514  -0.89051  -0.70587  -0.50573  -0.46175
 Alpha  occ. eigenvalues --   -0.39169  -0.26529
 Alpha virt. eigenvalues --    0.03426   0.03744   0.04879   0.05733   0.06908
 Alpha virt. eigenvalues --    0.08469   0.09321   0.09957   0.10773   0.11437
 Alpha virt. eigenvalues --    0.13137   0.14437   0.15330   0.17506   0.18354

  Beta  occ. eigenvalues --  -76.22140  -7.61443  -5.55587  -2.19071  -2.17578
  Beta  occ. eigenvalues --   -2.12389  -0.85798  -0.68491  -0.50479  -0.46572
  Beta  occ. eigenvalues --   -0.38251
  Beta virt. eigenvalues --    0.00644   0.03511   0.03761   0.05119   0.07973
  Beta virt. eigenvalues --    0.08567   0.09170   0.09347   0.10552   0.10934
  Beta virt. eigenvalues --    0.12983   0.14475   0.15587   0.16682   0.19717

 Mulliken charges and spin densities:
               1          2
     1  Si   4.772738   1.001715
     2  B    2.075605   0.263065
     3  H   -1.483129  -0.067327
     4  H   -1.483128  -0.067328
     5  H   -1.941043  -0.065063
     6  H   -1.941043  -0.065063
 Sum of Mulliken charges =  -0.00000   1.00000

 Dipole moment (field-independent basis, Debye):
    X=              0.6490    Y=             -0.0000    Z=             -0.0000  Tot=              0.6490
                          Isotropic Fermi Contact Couplings
        Atom                 a.u.       MegaHertz       Gauss      10(-4) cm-1
     1  Si(29)             0.12084    -107.39586     -38.32151     -35.82340
     2  B(11)             -0.01204     -17.27654      -6.16470      -5.76283
     3  H(1)              -0.01043     -46.60000     -16.62804     -15.54409
     4  H(1)              -0.01043     -46.60002     -16.62804     -15.54409
     5  H(1)              -0.00371     -16.60067      -5.92353      -5.53739
     6  H(1)              -0.00371     -16.60068      -5.92353      -5.53739
 --------------------------------------------------------
       Center         ----  Spin Dipole Couplings  ----

 Normal termination of Gaussian 16 at Wed Apr  9 00:13:32 2025.
