 Gaussian 16, Revision C.01,

 ----------------------------------------------------------------------
 #t hf aug-cc-pvdz symm=none int=(grid=ultrafine) guess=(read,tcheck) s
 table=(opt,rrhf)
 ----------------------------------------------------------------------
 -----
 title
 -----
 Symbolic Z-matrix:
 Charge =  0 Multiplicity = 1

 SCF Done:  E(RHF) =  -839.962084381     A.U. after   11 cycles

 1\1\GINC-SE118\Stability\RHF\Aug-CC-pVDZ\C4H12P2\OHZDE\08-Apr-2025\0\\
 #t hf aug-cc-pvdz symm=none int=(grid=ultrafine) guess=(read,tcheck) s
 table=(opt,rrhf)\\title\\0,1\P,0,-0.942518,0.000001,-0.614488\P,0,0.94
 2518,0.,0.614488\C,0,-1.815441,1.419164,0.221963\C,0,-1.81544,-1.41916
 5,0.221961\C,0,1.815441,1.419164,-0.221963\C,0,1.81544,-1.419165,-0.22
 1961\H,0,1.352117,-2.36309,0.073376\H,0,2.853249,-1.440221,0.121448\H,
 0,1.803914,-1.341923,-1.312402\H,0,-1.352119,2.36309,-0.073372\H,0,-1.
 803916,1.34192,1.312404\H,0,-2.85325,1.44022,-0.121447\H,0,-1.352117,-

 Normal termination of Gaussian 16 at Tue Apr  8 23:41:47 2025.
 Gaussian 16:  ES64L-G16RevC.01  3-Jul-2019

 ----------------------------------------------------------------------
 #t hf aug-cc-pvdz iop(5/13=1,5/36=2,99/5=2) pseudo=read geom=check gue
 ss=(read,tcheck) scf=(maxcycle=1)
 ----------------------------------------------------------------------
 -----
 title
 -----
 Structure from the checkpoint file:  "BDE49_nonexpt_1631_mol1.chk"
 Charge =  0 Multiplicity = 1

                         Standard orientation:
 ---------------------------------------------------------------------
 Center     Atomic      Atomic             Coordinates (Angstroms)
 Number     Number       Type             X           Y           Z
 ---------------------------------------------------------------------
      1         15           0       -0.942518   -0.000001    0.614488
      2         15           0        0.942518   -0.000000   -0.614488
      3          6           0       -1.815441   -1.419164   -0.221963
      4          6           0       -1.815440    1.419165   -0.221961
      5          6           0        1.815441   -1.419164    0.221963
      6          6           0        1.815440    1.419165    0.221961
      7          1           0        1.352117    2.363090   -0.073376
      8          1           0        2.853249    1.440220   -0.121448
      9          1           0        1.803914    1.341923    1.312402
     10          1           0       -1.352119   -2.363090    0.073372
     11          1           0       -1.803916   -1.341920   -1.312404
     12          1           0       -2.853250   -1.440220    0.121447
     13          1           0       -1.352117    2.363090    0.073376
     14          1           0       -2.853249    1.440221    0.121449
     15          1           0       -1.803914    1.341923   -1.312402
     16          1           0        1.352119   -2.363090   -0.073373
     17          1           0        1.803916   -1.341921    1.312404
     18          1           0        2.853250   -1.440221   -0.121447
 ---------------------------------------------------------------------

 SCF Done:  E(RHF) =  -841.204219768     A.U. after    2 cycles

 The electronic state is 1-A.
 Alpha  occ. eigenvalues -- -105.15915-105.15738 -11.37126 -11.36923 -11.36761
 Alpha  occ. eigenvalues --  -11.36649  -2.74615  -2.73659  -1.51876  -1.47481
 Alpha  occ. eigenvalues --   -1.46075  -1.45965  -1.43518  -1.30360  -1.04226
 Alpha  occ. eigenvalues --   -1.01021  -0.96706  -0.96265  -0.67190  -0.57769
 Alpha  occ. eigenvalues --   -0.57402  -0.56857  -0.56355  -0.55819  -0.55456
 Alpha  occ. eigenvalues --   -0.55014  -0.53875  -0.53589  -0.20370  -0.20244
 Alpha  occ. eigenvalues --   -0.06921  -0.02610   0.05079
 Alpha virt. eigenvalues --    0.05133   0.05595   0.06367   0.06495   0.06798
 Alpha virt. eigenvalues --    0.06859   0.07173   0.07445   0.07763   0.07948
 Alpha virt. eigenvalues --    0.08255   0.09992   0.10622   0.11406   0.11493

 Mulliken charges:
               1
     1  P    6.114599
     2  P    6.114600
     3  C   -5.462604
     4  C   -5.462596
     5  C   -5.462579
     6  C   -5.462577
     7  H    0.776675
     8  H    0.536842
     9  H    1.091747
    10  H    0.776678
    11  H    1.091757
    12  H    0.536878
    13  H    0.776681
    14  H    0.536876
    15  H    1.091755
    16  H    0.776675
    17  H    1.091748
    18  H    0.536845
 Sum of Mulliken charges =  -0.00000

 Dipole moment (field-independent basis, Debye):
    X=             -0.0004    Y=             -0.0000    Z=              0.0000  Tot=              0.0004

 Test job not archived.
 1\1\GINC-SE118\SP\RHF\Aug-CC-pVDZ\C4H12P2\OHZDE\08-Apr-2025\0\\#t hf a
 ug-cc-pvdz iop(5/13=1,5/36=2,99/5=2) pseudo=read geom=check guess=(rea
 d,tcheck) scf=(maxcycle=1)\\title\\0,1\P,0,-0.942518,0.000001,-0.61448
 8\P,0,0.942518,0.,0.614488\C,0,-1.815441,1.419164,0.221963\C,0,-1.8154
 4,-1.419165,0.221961\C,0,1.815441,1.419164,-0.221963\C,0,1.81544,-1.41
 9165,-0.221961\H,0,1.352117,-2.36309,0.073376\H,0,2.853249,-1.440221,0
 .121448\H,0,1.803914,-1.341923,-1.312402\H,0,-1.352119,2.36309,-0.0733
 72\H,0,-1.803916,1.34192,1.312404\H,0,-2.85325,1.44022,-0.121447\H,0,-

 Normal termination of Gaussian 16 at Tue Apr  8 23:41:54 2025.
