 Gaussian 16, Revision C.01,

 ----------------------------------------------------------------------
 #t hf aug-cc-pvdz symm=none int=(grid=ultrafine) guess=(read,tcheck) s
 table=(opt,rrhf)
 ----------------------------------------------------------------------
 -----
 title
 -----
 Symbolic Z-matrix:
 Charge =  0 Multiplicity = 1

 SCF Done:  E(RHF) =  -437.730281746     A.U. after   11 cycles
 Normal termination of Gaussian 16 at Tue Apr  8 22:46:35 2025.
 Gaussian 16:  ES64L-G16RevC.01  3-Jul-2019

 ----------------------------------------------------------------------
 #t hf aug-cc-pvdz iop(5/13=1,5/36=2,99/5=2) pseudo=read geom=check gue
 ss=(read,tcheck) scf=(maxcycle=1)
 ----------------------------------------------------------------------
 -----
 title
 -----
 Structure from the checkpoint file:  "BDE49_expt_1545_mol1.chk"
 Charge =  0 Multiplicity = 1

                         Standard orientation:
 ---------------------------------------------------------------------
 Center     Atomic      Atomic             Coordinates (Angstroms)
 Number     Number       Type             X           Y           Z
 ---------------------------------------------------------------------
      1          6           0       -1.163284    0.020145    0.000002
      2         16           0        0.665889   -0.086845   -0.000001
      3          1           0       -1.529902    0.521235   -0.895050
      4          1           0       -1.529900    0.521223    0.895061
      5          1           0       -1.524621   -1.008379   -0.000005
      6          1           0        0.909894    1.234579    0.000007
 ---------------------------------------------------------------------

 SCF Done:  E(RHF) =  -438.174836916     A.U. after    2 cycles

 The electronic state is 1-A.
 Alpha  occ. eigenvalues --  -75.68426 -13.11187 -13.06257 -13.00399 -11.39757
 Alpha  occ. eigenvalues --   -8.02273  -1.17996  -0.94059  -0.59880  -0.58715
 Alpha  occ. eigenvalues --   -0.49117  -0.39207  -0.23520
 Alpha virt. eigenvalues --    0.02466   0.04342   0.05908   0.06026   0.10195
 Alpha virt. eigenvalues --    0.11884   0.14132   0.15374   0.15545   0.17202
 Alpha virt. eigenvalues --    0.17290   0.20191   0.26251   0.26267   0.26951

 Mulliken charges:
               1
     1  C   -4.461398
     2  S   -0.478546
     3  H    1.331490
     4  H    1.331490
     5  H    1.312003
     6  H    0.964960
 Sum of Mulliken charges =   0.00000

 Dipole moment (field-independent basis, Debye):
    X=             -0.3358    Y=             -0.8335    Z=             -0.0000  Tot=              0.8986

 Test job not archived.
 1\1\GINC-SE039\SP\RHF\Aug-CC-pVDZ\C1H4S1\OHZDE\08-Apr-2025\0\\#t hf au
 g-cc-pvdz iop(5/13=1,5/36=2,99/5=2) pseudo=read geom=check guess=(read
 ,tcheck) scf=(maxcycle=1)\\title\\0,1\C,0,-1.163284,0.020145,0.000002\
 S,0,0.665889,-0.086845,-0.000001\H,0,-1.529902,0.521235,-0.89505\H,0,-
 1.5299,0.521223,0.895061\H,0,-1.524621,-1.008379,-0.000005\H,0,0.90989
 4,1.234579,0.000007\\Version=ES64L-G16RevC.01\State=1-A\HF=-438.174836
 9\RMSD=8.866e-02\Dipole=-0.1321104,-0.3279195,-0.0000019\Quadrupole=0.
 8951228,1.1946009,-2.0897237,0.1498051,-0.0000035,0.0000212\PG=C01 [X(

 Normal termination of Gaussian 16 at Tue Apr  8 22:46:38 2025.
