 Gaussian 16, Revision C.01,

 ----------------------------------------------------------------------
 #t hf aug-cc-pvdz symm=none int=(grid=ultrafine) guess=(read,tcheck) s
 table=opt
 ----------------------------------------------------------------------
 -----
 title
 -----
 Symbolic Z-matrix:
 Charge =  0 Multiplicity = 2

 SCF Done:  E(UHF) =  -646.600519855     A.U. after   18 cycles
 Normal termination of Gaussian 16 at Tue Apr  8 22:56:35 2025.
 Gaussian 16:  ES64L-G16RevC.01  3-Jul-2019

 ----------------------------------------------------------------------
 #t hf aug-cc-pvdz iop(5/13=1,5/36=2,99/5=2) pseudo=read geom=check gue
 ss=(read,tcheck) scf=(maxcycle=1)
 ----------------------------------------------------------------------
 -----
 title
 -----
 Structure from the checkpoint file:  "BDE49_expt_1833_mol2.chk"
 Charge =  0 Multiplicity = 2

                         Standard orientation:
 ---------------------------------------------------------------------
 Center     Atomic      Atomic             Coordinates (Angstroms)
 Number     Number       Type             X           Y           Z
 ---------------------------------------------------------------------
      1         16           0        0.150485    0.000001    0.254918
      2          8           0        0.670083   -1.272514   -0.192700
      3          8           0        0.670065    1.272522   -0.192700
      4          9           0       -1.458771   -0.000010   -0.110610
 ---------------------------------------------------------------------

 SCF Done:  E(UHF) =  -647.792272268     A.U. after    2 cycles

 The electronic state is 2-A.
 Alpha  occ. eigenvalues --  -75.96765 -29.34039 -21.15282 -21.15269 -13.58406
 Alpha  occ. eigenvalues --  -13.45877 -13.31605  -8.32030  -1.91024  -1.74456
 Alpha  occ. eigenvalues --   -1.13023  -0.77329  -0.63900  -0.57225  -0.52364
 Alpha  occ. eigenvalues --   -0.50055  -0.44100  -0.43695  -0.37163  -0.33976
 Alpha  occ. eigenvalues --   -0.29702
 Alpha virt. eigenvalues --    0.07605   0.08528   0.08600   0.12559   0.18505
 Alpha virt. eigenvalues --    0.20779   0.20807   0.21441   0.22830   0.24672
 Alpha virt. eigenvalues --    0.24837   0.25737   0.28825   0.30304   0.32964

  Beta  occ. eigenvalues --  -75.96323 -29.33352 -21.13909 -21.13896 -13.58634
  Beta  occ. eigenvalues --  -13.45307 -13.29637  -8.31387  -1.88220  -1.70675
  Beta  occ. eigenvalues --   -1.08254  -0.73782  -0.60348  -0.54905  -0.51444
  Beta  occ. eigenvalues --   -0.43537  -0.41675  -0.37911  -0.36249  -0.33236
  Beta virt. eigenvalues --    0.02426   0.08297   0.08735   0.10635   0.14670
  Beta virt. eigenvalues --    0.19253   0.21016   0.21791   0.22327   0.23052
  Beta virt. eigenvalues --    0.25153   0.25691   0.26811   0.29643   0.31292

 Mulliken charges and spin densities:
               1          2
     1  S    4.059368   0.429012
     2  O   -2.108058   0.238185
     3  O   -2.108060   0.238184
     4  F    0.156749   0.094619
 Sum of Mulliken charges =   0.00000   1.00000

 Dipole moment (field-independent basis, Debye):
    X=             -3.5448    Y=             -0.0000    Z=              0.2580  Tot=              3.5542
                          Isotropic Fermi Contact Couplings
        Atom                 a.u.       MegaHertz       Gauss      10(-4) cm-1
     1  S(33)              1.05775     363.30877     129.63760     121.18676
     2  O(17)              0.08003     -48.51370     -17.31090     -16.18243
     3  O(17)              0.08003     -48.51374     -17.31091     -16.18244
     4  F(19)              0.08165     343.55340     122.58840     114.59708
 --------------------------------------------------------
       Center         ----  Spin Dipole Couplings  ----
                      3XX-RR        3YY-RR        3ZZ-RR
 --------------------------------------------------------

 Normal termination of Gaussian 16 at Tue Apr  8 22:56:36 2025.
