 Gaussian 16, Revision C.01,

 ----------------------------------------------------------------------
 #t hf aug-cc-pvdz symm=none int=(grid=ultrafine) guess=(read,tcheck) s
 table=(opt,rrhf)
 ----------------------------------------------------------------------
 -----
 title
 -----
 Symbolic Z-matrix:
 Charge =  0 Multiplicity = 1

 SCF Done:  E(RHF) =  -806.125179255     A.U. after   12 cycles

 1\1\GINC-SE460\Stability\RHF\Aug-CC-pVDZ\H6O3Si2\OHZDE\09-Apr-2025\0\\
 #t hf aug-cc-pvdz symm=none int=(grid=ultrafine) guess=(read,tcheck) s
 table=(opt,rrhf)\\title\\0,1\Si,0,-0.432099,0.020862,-0.007476\Si,0,1.
 912643,-0.045349,0.04721\O,0,-1.064774,-1.080937,-1.06504\H,0,-0.81320
 5,-1.025412,-1.990155\O,0,-0.815623,1.572662,-0.374105\H,0,-1.710523,1
 .876137,-0.193785\O,0,-1.123788,-0.369745,1.431499\H,0,-1.46994,-1.261
 065,1.523709\H,0,2.362867,-1.413669,0.405174\H,0,2.456318,0.906073,1.0
 44464\H,0,2.480347,0.284909,-1.284503\\Version=ES64L-G16RevC.01\HF=-80

 Normal termination of Gaussian 16 at Wed Apr  9 00:09:35 2025.
 Gaussian 16:  ES64L-G16RevC.01  3-Jul-2019

 ----------------------------------------------------------------------
 #t hf aug-cc-pvdz iop(5/13=1,5/36=2,99/5=2) pseudo=read geom=check gue
 ss=(read,tcheck) scf=(maxcycle=1)
 ----------------------------------------------------------------------
 -----
 title
 -----
 Structure from the checkpoint file:  "BDE49_nonexpt_2334_mol1.chk"
 Charge =  0 Multiplicity = 1

                         Standard orientation:
 ---------------------------------------------------------------------
 Center     Atomic      Atomic             Coordinates (Angstroms)
 Number     Number       Type             X           Y           Z
 ---------------------------------------------------------------------
      1         14           0       -0.432099    0.020862   -0.007476
      2         14           0        1.912643   -0.045349    0.047210
      3          8           0       -1.064774   -1.080937   -1.065040
      4          1           0       -0.813205   -1.025412   -1.990155
      5          8           0       -0.815623    1.572662   -0.374105
      6          1           0       -1.710523    1.876137   -0.193785
      7          8           0       -1.123788   -0.369745    1.431499
      8          1           0       -1.469940   -1.261065    1.523709
      9          1           0        2.362867   -1.413669    0.405174
     10          1           0        2.456318    0.906073    1.044464
     11          1           0        2.480347    0.284909   -1.284503
 ---------------------------------------------------------------------

 SCF Done:  E(RHF) =  -807.376271721     A.U. after    2 cycles

 The electronic state is 1-A.
 Alpha  occ. eigenvalues --  -76.25613 -76.21175 -21.08218 -21.07930 -21.07759
 Alpha  occ. eigenvalues --   -5.60349  -5.54635  -2.28230  -2.27003  -2.21525
 Alpha  occ. eigenvalues --   -2.16718  -2.16666  -2.16017  -1.70867  -1.64533
 Alpha  occ. eigenvalues --   -1.64058  -0.79281  -0.70740  -0.62799  -0.61420
 Alpha  occ. eigenvalues --   -0.48991  -0.48247  -0.46881  -0.46443  -0.43076
 Alpha  occ. eigenvalues --   -0.41051  -0.38561  -0.36284  -0.31832
 Alpha virt. eigenvalues --    0.03500   0.05219   0.05773   0.06208   0.07456
 Alpha virt. eigenvalues --    0.07607   0.08272   0.08657   0.08979   0.09289
 Alpha virt. eigenvalues --    0.10549   0.10756   0.13768   0.14645   0.15383

 Mulliken charges:
               1
     1  Si   5.735325
     2  Si   4.257275
     3  O   -2.916947
     4  H    1.039333
     5  O   -2.777785
     6  H    1.079541
     7  O   -2.711245
     8  H    0.935804
     9  H   -1.533425
    10  H   -1.566511
    11  H   -1.541364
 Sum of Mulliken charges =  -0.00000

 Dipole moment (field-independent basis, Debye):
    X=             -1.3895    Y=             -0.3519    Z=             -0.3605  Tot=              1.4780

 Test job not archived.
 1\1\GINC-SE460\SP\RHF\Aug-CC-pVDZ\H6O3Si2\OHZDE\09-Apr-2025\0\\#t hf a
 ug-cc-pvdz iop(5/13=1,5/36=2,99/5=2) pseudo=read geom=check guess=(rea
 d,tcheck) scf=(maxcycle=1)\\title\\0,1\Si,0,-0.432099,0.020862,-0.0074
 76\Si,0,1.912643,-0.045349,0.04721\O,0,-1.064774,-1.080937,-1.06504\H,
 0,-0.813205,-1.025412,-1.990155\O,0,-0.815623,1.572662,-0.374105\H,0,-
 1.710523,1.876137,-0.193785\O,0,-1.123788,-0.369745,1.431499\H,0,-1.46
 994,-1.261065,1.523709\H,0,2.362867,-1.413669,0.405174\H,0,2.456318,0.
 906073,1.044464\H,0,2.480347,0.284909,-1.284503\\Version=ES64L-G16RevC

 Normal termination of Gaussian 16 at Wed Apr  9 00:09:39 2025.
