 Gaussian 16, Revision C.01,

 ----------------------------------------------------------------------
 #t hf aug-cc-pvdz symm=none int=(grid=ultrafine) guess=(read,tcheck) s
 table=(opt,rrhf)
 ----------------------------------------------------------------------
 -----
 title
 -----
 Symbolic Z-matrix:
 Charge =  0 Multiplicity = 1

 SCF Done:  E(RHF) =  -874.627789168     A.U. after   14 cycles
 Normal termination of Gaussian 16 at Wed Apr  9 00:02:12 2025.
 Gaussian 16:  ES64L-G16RevC.01  3-Jul-2019

 ----------------------------------------------------------------------
 #t hf aug-cc-pvdz iop(5/13=1,5/36=2,99/5=2) pseudo=read geom=check gue
 ss=(read,tcheck) scf=(maxcycle=1)
 ----------------------------------------------------------------------
 -----
 title
 -----
 Structure from the checkpoint file:  "BDE49_nonexpt_2115_mol1.chk"
 Charge =  0 Multiplicity = 1

                         Standard orientation:
 ---------------------------------------------------------------------
 Center     Atomic      Atomic             Coordinates (Angstroms)
 Number     Number       Type             X           Y           Z
 ---------------------------------------------------------------------
      1          7           0       -1.339000   -0.745226    0.412781
      2          9           0       -2.424985    0.155776    0.648901
      3          9           0       -1.689757   -1.353748   -0.811681
      4         14           0        0.000000    0.434788    0.000000
      5          6           0        0.370725    1.374659    1.547060
      6          1           0       -0.420876    2.098350    1.754425
      7          1           0        1.315894    1.911884    1.436219
      8          1           0        0.456424    0.696631    2.398127
      9          6           0       -0.370725    1.374659   -1.547060
     10          1           0       -1.315894    1.911884   -1.436219
     11          1           0       -0.456424    0.696631   -2.398127
     12          1           0        0.420876    2.098349   -1.754425
     13          7           0        1.339000   -0.745226   -0.412781
     14          9           0        2.424985    0.155776   -0.648901
     15          9           0        1.689757   -1.353748    0.811681
 ---------------------------------------------------------------------

 SCF Done:  E(RHF) =  -877.011300268     A.U. after    2 cycles

 The electronic state is 1-A.
 Alpha  occ. eigenvalues --  -76.27756 -29.30445 -29.30443 -29.30387 -29.30385
 Alpha  occ. eigenvalues --  -15.87431 -15.87322 -11.38578 -11.38561  -5.62475
 Alpha  occ. eigenvalues --   -2.27307  -2.26641  -2.26194  -1.48364  -1.46191
 Alpha  occ. eigenvalues --   -1.09556  -1.05826  -0.83286  -0.82189  -0.80497
 Alpha  occ. eigenvalues --   -0.67267  -0.66146  -0.65999  -0.60988  -0.58678
 Alpha  occ. eigenvalues --   -0.58655  -0.57511  -0.52254  -0.45491  -0.45151
 Alpha  occ. eigenvalues --   -0.43662  -0.40604  -0.40470  -0.32743  -0.32140
 Alpha  occ. eigenvalues --   -0.30553  -0.29863  -0.22812  -0.22400  -0.22297
 Alpha  occ. eigenvalues --   -0.19820
 Alpha virt. eigenvalues --    0.02990   0.05009   0.05727   0.06430   0.06917
 Alpha virt. eigenvalues --    0.06926   0.08170   0.09226   0.09613   0.12156
 Alpha virt. eigenvalues --    0.12820   0.15670   0.16318   0.16608   0.17148

 Mulliken charges:
               1
     1  N   -0.205943
     2  F   -0.261063
     3  F   -0.368618
     4  Si   6.231549
     5  C   -5.655993
     6  H    1.148618
     7  H    1.071149
     8  H    1.156074
     9  C   -5.655993
    10  H    1.071149
    11  H    1.156074
    12  H    1.148619
    13  N   -0.205943
    14  F   -0.261063
    15  F   -0.368618
 Sum of Mulliken charges =   0.00000

 Dipole moment (field-independent basis, Debye):
    X=              0.0000    Y=              2.2841    Z=             -0.0000  Tot=              2.2841

 Test job not archived.
 1\1\GINC-SE095\SP\RHF\Aug-CC-pVDZ\C2H6F4N2Si1\OHZDE\09-Apr-2025\0\\#t
 hf aug-cc-pvdz iop(5/13=1,5/36=2,99/5=2) pseudo=read geom=check guess=
 (read,tcheck) scf=(maxcycle=1)\\title\\0,1\N,0,-1.339,-0.745226,0.4127
 81\F,0,-2.424985,0.155776,0.648901\F,0,-1.689757,-1.353748,-0.811681\S
 i,0,0.,0.434788,0.\C,0,0.370725,1.374659,1.54706\H,0,-0.420876,2.09835
 ,1.754425\H,0,1.315894,1.911884,1.436219\H,0,0.456424,0.696631,2.39812
 7\C,0,-0.370725,1.374659,-1.54706\H,0,-1.315894,1.911884,-1.436219\H,0
 ,-0.456424,0.696631,-2.398127\H,0,0.420876,2.098349,-1.754425\N,0,1.33

 Normal termination of Gaussian 16 at Wed Apr  9 00:02:19 2025.
