 Gaussian 16, Revision C.01,

 ----------------------------------------------------------------------
 #t hf aug-cc-pvdz symm=none int=(grid=ultrafine) guess=(read,tcheck) s
 table=(opt,rrhf)
 ----------------------------------------------------------------------
 -----
 title
 -----
 Symbolic Z-matrix:
 Charge =  0 Multiplicity = 1

 SCF Done:  E(RHF) =  -635.881710988     A.U. after   15 cycles
 Normal termination of Gaussian 16 at Tue Apr  8 22:40:16 2025.
 Gaussian 16:  ES64L-G16RevC.01  3-Jul-2019

 ----------------------------------------------------------------------
 #t hf aug-cc-pvdz iop(5/13=1,5/36=2,99/5=2) pseudo=read geom=check gue
 ss=(read,tcheck) scf=(maxcycle=1)
 ----------------------------------------------------------------------
 -----
 title
 -----
 Structure from the checkpoint file:  "BDE49_expt_1223_mol1.chk"
 Charge =  0 Multiplicity = 1

                         Standard orientation:
 ---------------------------------------------------------------------
 Center     Atomic      Atomic             Coordinates (Angstroms)
 Number     Number       Type             X           Y           Z
 ---------------------------------------------------------------------
      1          6           0       -0.543462    1.450806    0.502180
      2          6           0        0.583861    1.524139   -0.514198
      3          8           0        1.037612    0.230575   -0.951077
      4          1           0        1.416779    2.105344   -0.114480
      5          1           0        0.232226    1.978103   -1.441489
      6          7           0        1.921322   -0.432349   -0.030025
      7          8           0        2.225347    0.167445    0.971858
      8          8           0        2.244961   -1.513810   -0.413589
      9          8           0       -1.731576    0.880242   -0.075319
     10          1           0       -0.845689    2.461525    0.785078
     11          1           0       -0.254297    0.901705    1.396030
     12          7           0       -1.880557   -0.543381    0.107077
     13          8           0       -1.072526   -1.108362    0.798101
     14          8           0       -2.838414   -0.964371   -0.466525
 ---------------------------------------------------------------------

 SCF Done:  E(RHF) =  -638.547081327     A.U. after    2 cycles

 The electronic state is 1-A.
 Alpha  occ. eigenvalues --  -21.15365 -21.15199 -21.14025 -21.13926 -21.13541
 Alpha  occ. eigenvalues --  -21.13482 -16.07260 -16.07197 -11.52258 -11.45215
 Alpha  occ. eigenvalues --   -2.09553  -2.09103  -1.79139  -1.76442  -1.75270
 Alpha  occ. eigenvalues --   -1.75227  -1.17080  -1.01505  -0.91449  -0.86291
 Alpha  occ. eigenvalues --   -0.77280  -0.76216  -0.74182  -0.72580  -0.70285
 Alpha  occ. eigenvalues --   -0.68337  -0.65088  -0.63036  -0.59592  -0.50377
 Alpha  occ. eigenvalues --   -0.50046  -0.42202  -0.38419  -0.38215  -0.37247
 Alpha  occ. eigenvalues --   -0.35733  -0.35228  -0.34056  -0.33565
 Alpha virt. eigenvalues --    0.03226   0.04502   0.05018   0.05978   0.09426
 Alpha virt. eigenvalues --    0.09720   0.10896   0.11794   0.13158   0.13758
 Alpha virt. eigenvalues --    0.14113   0.14621   0.15079   0.15843   0.16570

 Mulliken charges:
               1
     1  C   -1.610168
     2  C   -1.276565
     3  O   -2.802548
     4  H    1.590658
     5  H    1.429057
     6  N    6.802024
     7  O   -2.722872
     8  O   -2.890014
     9  O   -2.826836
    10  H    1.345784
    11  H    1.832282
    12  N    6.617405
    13  O   -2.673745
    14  O   -2.814462
 Sum of Mulliken charges =   0.00000

 Dipole moment (field-independent basis, Debye):
    X=             -0.0929    Y=              3.0589    Z=             -0.2593  Tot=              3.0713

 Test job not archived.
 1\1\GINC-SE095\SP\RHF\Aug-CC-pVDZ\C2H4N2O6\OHZDE\08-Apr-2025\0\\#t hf
 aug-cc-pvdz iop(5/13=1,5/36=2,99/5=2) pseudo=read geom=check guess=(re
 ad,tcheck) scf=(maxcycle=1)\\title\\0,1\C,0,-0.543462,1.450806,0.50218
 \C,0,0.583861,1.524139,-0.514198\O,0,1.037612,0.230575,-0.951077\H,0,1
 .416779,2.105344,-0.11448\H,0,0.232226,1.978103,-1.441489\N,0,1.921322
 ,-0.432349,-0.030025\O,0,2.225347,0.167445,0.971858\O,0,2.244961,-1.51
 381,-0.413589\O,0,-1.731576,0.880242,-0.075319\H,0,-0.845689,2.461525,
 0.785078\H,0,-0.254297,0.901705,1.39603\N,0,-1.880557,-0.543381,0.1070

 Normal termination of Gaussian 16 at Tue Apr  8 22:40:22 2025.
