 Gaussian 16, Revision C.01,

 ----------------------------------------------------------------------
 #t hf aug-cc-pvdz symm=none int=(grid=ultrafine) guess=(read,tcheck) s
 table=(opt,rrhf)
 ----------------------------------------------------------------------
 -----
 title
 -----
 Symbolic Z-matrix:
 Charge =  0 Multiplicity = 1

 SCF Done:  E(RHF) =  -1339.71030405     A.U. after   17 cycles
 Normal termination of Gaussian 16 at Wed Apr  9 00:41:08 2025.
 Gaussian 16:  ES64L-G16RevC.01  3-Jul-2019

 ----------------------------------------------------------------------
 #t hf aug-cc-pvdz iop(5/13=1,5/36=2,99/5=2) pseudo=read geom=check gue
 ss=(read,tcheck) scf=(maxcycle=1)
 ----------------------------------------------------------------------
 -----
 title
 -----
 Structure from the checkpoint file:  "BDE49_nonexpt_630_mol1.chk"
 Charge =  0 Multiplicity = 1

                         Standard orientation:
 ---------------------------------------------------------------------
 Center     Atomic      Atomic             Coordinates (Angstroms)
 Number     Number       Type             X           Y           Z
 ---------------------------------------------------------------------
      1          5           0        2.418737   -0.149060    0.000000
      2         17           0       -3.004444   -0.386612   -0.000001
      3         17           0       -0.298185   -1.998150    0.000000
      4          8           0        3.433995    0.761482   -0.000005
      5          1           0        4.296171    0.331914   -0.000003
      6          8           0        2.733935   -1.469130    0.000009
      7          1           0        1.966066   -2.052219    0.000012
      8          7           0       -1.542031    1.779422   -0.000001
      9          6           0       -1.473469    0.467100    0.000001
     10          6           0       -0.258571   -0.238476    0.000000
     11          6           0        0.951551    0.465293   -0.000001
     12          6           0        0.845736    1.865816   -0.000002
     13          1           0        1.748580    2.461972   -0.000003
     14          6           0       -0.400028    2.473005   -0.000002
     15          1           0       -0.500344    3.553386   -0.000003
 ---------------------------------------------------------------------

 SCF Done:  E(RHF) =  -1342.04940912     A.U. after    2 cycles

 The electronic state is 1-A.
 Alpha  occ. eigenvalues --  -99.92291 -99.90473 -21.07099 -21.06959 -15.77180
 Alpha  occ. eigenvalues --  -11.53314 -11.50490 -11.48140 -11.46024 -11.40605
 Alpha  occ. eigenvalues --  -10.49702 -10.47873  -9.69715  -9.69174  -9.68632
 Alpha  occ. eigenvalues --   -9.67865  -9.66985  -9.66784  -7.68767  -1.83888
 Alpha  occ. eigenvalues --   -1.67310  -1.51307  -1.36337  -1.32523  -1.20895
 Alpha  occ. eigenvalues --   -1.11063  -0.94587  -0.91160  -0.79972  -0.73240
 Alpha  occ. eigenvalues --   -0.69005  -0.68841  -0.64815  -0.63424  -0.62257
 Alpha  occ. eigenvalues --   -0.59383  -0.56397  -0.55065  -0.52718  -0.52713
 Alpha  occ. eigenvalues --   -0.50085  -0.49980  -0.44976  -0.41558  -0.39336
 Alpha  occ. eigenvalues --   -0.37866  -0.37385  -0.36121
 Alpha virt. eigenvalues --    0.03050   0.04525   0.04769   0.05501   0.05910
 Alpha virt. eigenvalues --    0.06186   0.06753   0.07412   0.08286   0.08702
 Alpha virt. eigenvalues --    0.09370   0.10229   0.11372   0.11831   0.12080

 Mulliken charges:
               1
     1  B    5.635021
     2  Cl  -0.227611
     3  Cl  -0.691208
     4  O   -4.332019
     5  H    1.207395
     6  O   -4.712223
     7  H    1.444433
     8  N   -3.249066
     9  C   -2.723404
    10  C    4.434992
    11  C   -0.236143
    12  C    1.626235
    13  H    2.013246
    14  C   -1.723713
    15  H    1.534065
 Sum of Mulliken charges =  -0.00000

 Dipole moment (field-independent basis, Debye):
    X=              2.9748    Y=              1.6572    Z=              0.0000  Tot=              3.4052

 Test job not archived.
 1\1\GINC-SE457\SP\RHF\Aug-CC-pVDZ\C5H4B1Cl2N1O2\OHZDE\09-Apr-2025\0\\#
 t hf aug-cc-pvdz iop(5/13=1,5/36=2,99/5=2) pseudo=read geom=check gues
 s=(read,tcheck) scf=(maxcycle=1)\\title\\0,1\B,0,2.418737,-0.14906,0.\
 Cl,0,-3.004444,-0.386613,-0.000001\Cl,0,-0.298185,-1.99815,0.\O,0,3.43
 3995,0.761483,-0.000005\H,0,4.296171,0.331915,-0.000003\O,0,2.733935,-
 1.469129,0.000009\H,0,1.966066,-2.052219,0.000012\N,0,-1.542031,1.7794
 22,-0.000001\C,0,-1.473469,0.4671,0.000001\C,0,-0.258571,-0.238476,0.\
 C,0,0.951551,0.465293,-0.000001\C,0,0.845735,1.865816,-0.000002\H,0,1.

 Normal termination of Gaussian 16 at Wed Apr  9 00:41:17 2025.
