 Gaussian 16, Revision C.01,

 ----------------------------------------------------------------------
 #t hf aug-cc-pvdz symm=none int=(grid=ultrafine) guess=(read,tcheck) s
 table=(opt,rrhf)
 ----------------------------------------------------------------------
 -----
 title
 -----
 Symbolic Z-matrix:
 Charge =  0 Multiplicity = 1

 SCF Done:  E(RHF) =  -808.068411861     A.U. after   13 cycles
 Normal termination of Gaussian 16 at Wed Apr  9 00:11:09 2025.
 Gaussian 16:  ES64L-G16RevC.01  3-Jul-2019

 ----------------------------------------------------------------------
 #t hf aug-cc-pvdz iop(5/13=1,5/36=2,99/5=2) pseudo=read geom=check gue
 ss=(read,tcheck) scf=(maxcycle=1)
 ----------------------------------------------------------------------
 -----
 title
 -----
 Structure from the checkpoint file:  "BDE49_nonexpt_2362_mol1.chk"
 Charge =  0 Multiplicity = 1

                         Standard orientation:
 ---------------------------------------------------------------------
 Center     Atomic      Atomic             Coordinates (Angstroms)
 Number     Number       Type             X           Y           Z
 ---------------------------------------------------------------------
      1         14           0       -0.776861    1.125603    0.212414
      2         14           0       -2.168514   -0.722763   -0.244032
      3          8           0        0.845437    0.871508   -0.271353
      4          1           0       -0.785593    1.479230    1.650035
      5          1           0       -1.143355    2.317751   -0.580334
      6          6           0        1.492244   -0.255233    0.095236
      7          1           0       -3.534615   -0.221305   -0.543463
      8          1           0       -2.242995   -1.642311    0.910680
      9          1           0       -1.669175   -1.446024   -1.437357
     10          8           0        0.952154   -1.121836    0.742213
     11          6           0        2.915489   -0.289838   -0.391149
     12          1           0        3.460306    0.568544    0.008396
     13          1           0        2.932969   -0.206277   -1.480152
     14          1           0        3.390584   -1.216321   -0.076571
 ---------------------------------------------------------------------

 SCF Done:  E(RHF) =  -809.368978749     A.U. after    2 cycles

 The electronic state is 1-A.
 Alpha  occ. eigenvalues --  -76.24788 -76.21646 -21.08532 -21.05765 -11.52993
 Alpha  occ. eigenvalues --  -11.39983  -5.58235  -5.55018  -2.23837  -2.20016
 Alpha  occ. eigenvalues --   -2.19353  -2.17138  -2.17072  -2.16243  -1.81790
 Alpha  occ. eigenvalues --   -1.64878  -1.11504  -0.83605  -0.77001  -0.68885
 Alpha  occ. eigenvalues --   -0.63414  -0.62534  -0.60360  -0.52534  -0.51251
 Alpha  occ. eigenvalues --   -0.48531  -0.47088  -0.46129  -0.42224  -0.36500
 Alpha  occ. eigenvalues --   -0.33059  -0.30655
 Alpha virt. eigenvalues --    0.03529   0.04723   0.05068   0.05954   0.06172
 Alpha virt. eigenvalues --    0.06490   0.07358   0.07793   0.08057   0.09034
 Alpha virt. eigenvalues --    0.09631   0.10327   0.10420   0.11117   0.12365

 Mulliken charges:
               1
     1  Si   4.835198
     2  Si   4.531946
     3  O   -3.478652
     4  H   -1.777444
     5  H   -1.726626
     6  C    5.489267
     7  H   -1.583064
     8  H   -1.523851
     9  H   -1.508726
    10  O   -2.775861
    11  C   -4.302095
    12  H    1.276572
    13  H    1.250197
    14  H    1.293138
 Sum of Mulliken charges =  -0.00000

 Dipole moment (field-independent basis, Debye):
    X=              1.2731    Y=              0.3883    Z=             -0.6330  Tot=              1.4739

 Test job not archived.
 1\1\GINC-SE072\SP\RHF\Aug-CC-pVDZ\C2H8O2Si2\OHZDE\09-Apr-2025\0\\#t hf
  aug-cc-pvdz iop(5/13=1,5/36=2,99/5=2) pseudo=read geom=check guess=(r
 ead,tcheck) scf=(maxcycle=1)\\title\\0,1\Si,0,-0.776861,1.125603,0.212
 414\Si,0,-2.168514,-0.722763,-0.244032\O,0,0.845437,0.871508,-0.271353
 \H,0,-0.785593,1.47923,1.650035\H,0,-1.143355,2.317751,-0.580334\C,0,1
 .492244,-0.255233,0.095236\H,0,-3.534615,-0.221305,-0.543463\H,0,-2.24
 2995,-1.642311,0.91068\H,0,-1.669175,-1.446024,-1.437357\O,0,0.952154,
 -1.121836,0.742213\C,0,2.915489,-0.289838,-0.391149\H,0,3.460306,0.568

 Normal termination of Gaussian 16 at Wed Apr  9 00:11:14 2025.
