 Gaussian 16, Revision C.01,

 ----------------------------------------------------------------------
 #t hf aug-cc-pvdz symm=none int=(grid=ultrafine) guess=(read,tcheck) s
 table=opt
 ----------------------------------------------------------------------
 -----
 title
 -----
 Symbolic Z-matrix:
 Charge =  0 Multiplicity = 2

 SCF Done:  E(UHF) =  -474.986847883     A.U. after   17 cycles
 Normal termination of Gaussian 16 at Tue Apr  8 23:34:10 2025.
 Gaussian 16:  ES64L-G16RevC.01  3-Jul-2019

 ----------------------------------------------------------------------
 #t hf aug-cc-pvdz iop(5/13=1,5/36=2,99/5=2) pseudo=read geom=check gue
 ss=(read,tcheck) scf=(maxcycle=1)
 ----------------------------------------------------------------------
 -----
 title
 -----
 Structure from the checkpoint file:  "BDE49_nonexpt_1452_mol2.chk"
 Charge =  0 Multiplicity = 2

                         Standard orientation:
 ---------------------------------------------------------------------
 Center     Atomic      Atomic             Coordinates (Angstroms)
 Number     Number       Type             X           Y           Z
 ---------------------------------------------------------------------
      1          7           0        2.330456    0.141600   -0.083597
      2          6           0        1.006926   -0.489655   -0.027291
      3          6           0       -0.088047    0.583828    0.043428
      4          1           0        0.879625   -1.074645   -0.943313
      5          1           0        2.550143    0.573367    0.809523
      6          1           0        3.046433   -0.558281   -0.251934
      7         15           0       -1.836060   -0.049185   -0.075058
      8          1           0        0.005429    1.142390    0.984298
      9          1           0        0.065261    1.301878   -0.766400
     10          1           0        0.876977   -1.187482    0.815117
     11          1           0       -1.709430   -1.015695    0.966930
 ---------------------------------------------------------------------

 SCF Done:  E(UHF) =  -475.822624330     A.U. after    2 cycles

 The electronic state is 2-A.
 Alpha  occ. eigenvalues -- -105.17594 -15.73278 -11.42451 -11.36542  -2.75220
 Alpha  occ. eigenvalues --   -1.47724  -1.44810  -1.42848  -1.33310  -1.06018
 Alpha  occ. eigenvalues --   -0.86643  -0.69077  -0.66301  -0.61117  -0.55453
 Alpha  occ. eigenvalues --   -0.51302  -0.48612  -0.36108  -0.21867  -0.06984
 Alpha  occ. eigenvalues --    0.01935
 Alpha virt. eigenvalues --    0.04247   0.05554   0.05946   0.06516   0.06873
 Alpha virt. eigenvalues --    0.07232   0.08962   0.10641   0.11411   0.12440
 Alpha virt. eigenvalues --    0.13888   0.15603   0.16157   0.17062   0.18381

  Beta  occ. eigenvalues -- -105.16968 -15.73272 -11.42426 -11.36616  -2.73307
  Beta  occ. eigenvalues --   -1.45997  -1.41134  -1.33213  -1.20903  -1.05768
  Beta  occ. eigenvalues --   -0.86310  -0.66884  -0.65341  -0.59973  -0.54716
  Beta  occ. eigenvalues --   -0.51203  -0.48272  -0.36103  -0.22790  -0.04647
  Beta virt. eigenvalues --    0.04230   0.05580   0.05800   0.06510   0.06846
  Beta virt. eigenvalues --    0.07033   0.07469   0.10733   0.11168   0.11899
  Beta virt. eigenvalues --    0.12690   0.14266   0.16249   0.16957   0.17309

 Mulliken charges and spin densities:
               1          2
     1  N   -2.503839   0.026425
     2  C   -1.459886  -0.230223
     3  C   -3.494607  -0.447841
     4  H    1.037484   0.328677
     5  H    0.550393   0.019530
     6  H    0.639256  -0.049452
     7  P    2.634786   1.405456
     8  H    1.100834   0.053668
     9  H    1.294316  -0.009124
    10  H    1.387137   0.087243
    11  H   -1.185874  -0.184359
 Sum of Mulliken charges =   0.00000   1.00000

 Dipole moment (field-independent basis, Debye):
    X=             -0.9670    Y=              1.3338    Z=             -0.4730  Tot=              1.7141
                          Isotropic Fermi Contact Couplings
        Atom                 a.u.       MegaHertz       Gauss      10(-4) cm-1
     1  N(14)              0.00088       0.28441       0.10148       0.09487
     2  C(13)              0.02999      33.71011      12.02860      11.24448
     3  C(13)             -0.00304      -3.41622      -1.21899      -1.13953
     4  H(1)              -0.00019      -0.84525      -0.30161      -0.28195
     5  H(1)               0.00014       0.62107       0.22161       0.20717
     6  H(1)               0.00004       0.16950       0.06048       0.05654
     7  P(31)              0.27570     499.32534     178.17170     166.55700
     8  H(1)               0.00592      26.48403       9.45016       8.83412

 Normal termination of Gaussian 16 at Tue Apr  8 23:34:13 2025.
