 Gaussian 16, Revision C.01,

 ----------------------------------------------------------------------
 #t hf aug-cc-pvdz symm=none int=(grid=ultrafine) guess=(read,tcheck) s
 table=(opt,rrhf)
 ----------------------------------------------------------------------
 -----
 title
 -----
 Symbolic Z-matrix:
 Charge =  0 Multiplicity = 1

 SCF Done:  E(RHF) =  -257.506445690     A.U. after   12 cycles
 Normal termination of Gaussian 16 at Wed Apr  9 00:29:41 2025.
 Gaussian 16:  ES64L-G16RevC.01  3-Jul-2019

 ----------------------------------------------------------------------
 #t hf aug-cc-pvdz iop(5/13=1,5/36=2,99/5=2) pseudo=read geom=check gue
 ss=(read,tcheck) scf=(maxcycle=1)
 ----------------------------------------------------------------------
 -----
 title
 -----
 Structure from the checkpoint file:  "BDE49_nonexpt_318_mol1.chk"
 Charge =  0 Multiplicity = 1

                         Standard orientation:
 ---------------------------------------------------------------------
 Center     Atomic      Atomic             Coordinates (Angstroms)
 Number     Number       Type             X           Y           Z
 ---------------------------------------------------------------------
      1          6           0       -0.379707   -0.003192    0.000007
      2          5           0        1.033665   -0.710427    0.000014
      3          8           0        2.170899    0.029887   -0.000026
      4          6           0       -1.150089   -0.474459    1.256883
      5          1           0       -0.656143   -0.151820    2.179274
      6          1           0       -1.242765   -1.564421    1.290666
      7          6           0       -1.150090   -0.474465   -1.256866
      8          1           0       -1.242765   -1.564427   -1.290643
      9          1           0       -0.656144   -0.151830   -2.179258
     10          1           0       -2.162976   -0.054403   -1.262767
     11          1           0       -2.162975   -0.054396    1.262781
     12          6           0       -0.277266    1.532477    0.000004
     13          1           0       -1.273986    1.989426    0.000003
     14          1           0        0.258888    1.897794   -0.880270
     15          1           0        0.258889    1.897798    0.880277
     16          1           0        2.971753   -0.502431   -0.000059
     17          1           0        1.115617   -1.910414   -0.000041
 ---------------------------------------------------------------------

 SCF Done:  E(RHF) =  -258.765886457     A.U. after    2 cycles

 The electronic state is 1-A.
 Alpha  occ. eigenvalues --  -21.06279 -11.38511 -11.38184 -11.37779 -11.32801
 Alpha  occ. eigenvalues --   -7.61308  -1.74565  -1.25407  -0.99436  -0.99129
 Alpha  occ. eigenvalues --   -0.85551  -0.71517  -0.63541  -0.59728  -0.58758
 Alpha  occ. eigenvalues --   -0.58080  -0.53138  -0.51952  -0.50218  -0.44387
 Alpha  occ. eigenvalues --   -0.44057  -0.40765  -0.39667  -0.35328
 Alpha virt. eigenvalues --    0.03234   0.04390   0.04740   0.04904   0.06530
 Alpha virt. eigenvalues --    0.06547   0.06703   0.07128   0.07247   0.09090
 Alpha virt. eigenvalues --    0.09157   0.09621   0.10547   0.10885   0.11445

 Mulliken charges:
               1
     1  C   -0.095035
     2  B    7.488386
     3  O   -3.916700
     4  C   -3.912851
     5  H    1.172936
     6  H    1.270781
     7  C   -3.912910
     8  H    1.270804
     9  H    1.172905
    10  H    1.210560
    11  H    1.210577
    12  C   -4.064443
    13  H    1.214513
    14  H    1.235235
    15  H    1.235219
    16  H    1.197572
    17  H   -3.777549
 Sum of Mulliken charges =  -0.00000

 Dipole moment (field-independent basis, Debye):
    X=              0.9290    Y=             -0.1475    Z=             -0.0000  Tot=              0.9407

 Test job not archived.
 1\1\GINC-SE096\SP\RHF\Aug-CC-pVDZ\C4H11B1O1\OHZDE\09-Apr-2025\0\\#t hf
  aug-cc-pvdz iop(5/13=1,5/36=2,99/5=2) pseudo=read geom=check guess=(r
 ead,tcheck) scf=(maxcycle=1)\\title\\0,1\C,0,-0.379707,-0.003192,0.000
 007\B,0,1.033665,-0.710427,0.000014\O,0,2.170899,0.029886,-0.000026\C,
 0,-1.150089,-0.474459,1.256883\H,0,-0.656143,-0.15182,2.179274\H,0,-1.
 242765,-1.564421,1.290666\C,0,-1.15009,-0.474465,-1.256866\H,0,-1.2427
 65,-1.564427,-1.290643\H,0,-0.656144,-0.15183,-2.179258\H,0,-2.162976,
 -0.054403,-1.262767\H,0,-2.162975,-0.054396,1.262781\C,0,-0.277266,1.5

 Normal termination of Gaussian 16 at Wed Apr  9 00:29:47 2025.
