 Gaussian 16, Revision C.01,

 ----------------------------------------------------------------------
 #t hf aug-cc-pvdz symm=none int=(grid=ultrafine) guess=(read,tcheck) s
 table=(opt,rrhf)
 ----------------------------------------------------------------------
 -----
 title
 -----
 Symbolic Z-matrix:
 Charge =  0 Multiplicity = 1

 SCF Done:  E(RHF) =  -311.379790659     A.U. after   14 cycles
 Normal termination of Gaussian 16 at Wed Apr  9 00:40:29 2025.
 Gaussian 16:  ES64L-G16RevC.01  3-Jul-2019

 ----------------------------------------------------------------------
 #t hf aug-cc-pvdz iop(5/13=1,5/36=2,99/5=2) pseudo=read geom=check gue
 ss=(read,tcheck) scf=(maxcycle=1)
 ----------------------------------------------------------------------
 -----
 title
 -----
 Structure from the checkpoint file:  "BDE49_nonexpt_615_mol1.chk"
 Charge =  0 Multiplicity = 1

                         Standard orientation:
 ---------------------------------------------------------------------
 Center     Atomic      Atomic             Coordinates (Angstroms)
 Number     Number       Type             X           Y           Z
 ---------------------------------------------------------------------
      1          6           0       -2.485175    0.482912    0.724739
      2          6           0       -1.957584   -0.342564   -0.452572
      3          1           0       -2.567708   -0.126739    1.630742
      4          1           0       -3.478122    0.883432    0.505032
      5          1           0       -1.825521    1.326254    0.937186
      6          6           0       -0.581082   -0.961449   -0.197280
      7          1           0       -1.896315    0.287925   -1.343453
      8          1           0       -2.661141   -1.149703   -0.680586
      9          6           0        0.560457    0.049676   -0.194596
     10          1           0       -0.344866   -1.703365   -0.971413
     11          1           0       -0.571469   -1.508559    0.754221
     12          8           0        0.435164    1.200491   -0.529927
     13          5           0        3.036365    0.196575    0.295740
     14          7           0        1.803355   -0.488121    0.215982
     15          1           0        3.090626    1.341971    0.002327
     16          1           0        3.982390   -0.425907    0.663200
     17          1           0        1.765818   -1.466719    0.469838
 ---------------------------------------------------------------------

 SCF Done:  E(RHF) =  -312.846453486     A.U. after    2 cycles

 The electronic state is 1-A.
 Alpha  occ. eigenvalues --  -21.04138 -15.74471 -11.51758 -11.43230 -11.39443
 Alpha  occ. eigenvalues --  -11.35575  -7.61946  -1.72012  -1.38585  -1.21852
 Alpha  occ. eigenvalues --   -1.04739  -0.90961  -0.83265  -0.76581  -0.68639
 Alpha  occ. eigenvalues --   -0.64174  -0.59483  -0.57879  -0.54050  -0.51642
 Alpha  occ. eigenvalues --   -0.50137  -0.46962  -0.46303  -0.46157  -0.44953
 Alpha  occ. eigenvalues --   -0.36029  -0.29523
 Alpha virt. eigenvalues --    0.02860   0.03844   0.04055   0.04624   0.05368
 Alpha virt. eigenvalues --    0.05901   0.06150   0.06702   0.07241   0.08829
 Alpha virt. eigenvalues --    0.09302   0.10592   0.11117   0.11969   0.12790

 Mulliken charges:
               1
     1  C   -3.707976
     2  C   -2.918278
     3  H    1.274961
     4  H    1.163461
     5  H    1.379631
     6  C   -3.357315
     7  H    1.395423
     8  H    1.199847
     9  C    5.565371
    10  H    1.522189
    11  H    1.656439
    12  O   -3.064973
    13  B    7.320852
    14  N   -3.566382
    15  H   -3.198958
    16  H   -3.881149
    17  H    1.216858
 Sum of Mulliken charges =   0.00000

 Dipole moment (field-independent basis, Debye):
    X=             -0.9533    Y=             -1.9935    Z=              0.2417  Tot=              2.2229

 Test job not archived.
 1\1\GINC-SE126\SP\RHF\Aug-CC-pVDZ\C4H10B1N1O1\OHZDE\09-Apr-2025\0\\#t
 hf aug-cc-pvdz iop(5/13=1,5/36=2,99/5=2) pseudo=read geom=check guess=
 (read,tcheck) scf=(maxcycle=1)\\title\\0,1\C,0,-2.485175,0.482912,0.72
 4739\C,0,-1.957584,-0.342564,-0.452572\H,0,-2.567708,-0.126739,1.63074
 2\H,0,-3.478122,0.883432,0.505032\H,0,-1.825521,1.326254,0.937186\C,0,
 -0.581082,-0.961449,-0.19728\H,0,-1.896315,0.287925,-1.343453\H,0,-2.6
 61141,-1.149703,-0.680586\C,0,0.560457,0.049676,-0.194596\H,0,-0.34486
 6,-1.703365,-0.971413\H,0,-0.571469,-1.508559,0.754221\O,0,0.435164,1.

 Normal termination of Gaussian 16 at Wed Apr  9 00:40:35 2025.
