 Gaussian 16, Revision C.01,

 ----------------------------------------------------------------------
 #t hf aug-cc-pvdz symm=none int=(grid=ultrafine) guess=(read,tcheck) s
 table=(opt,rrhf)
 ----------------------------------------------------------------------
 -----
 title
 -----
 Symbolic Z-matrix:
 Charge =  0 Multiplicity = 1

 SCF Done:  E(RHF) =  -282.747949778     A.U. after   14 cycles
 Normal termination of Gaussian 16 at Tue Apr  8 22:44:30 2025.
 Gaussian 16:  ES64L-G16RevC.01  3-Jul-2019

 ----------------------------------------------------------------------
 #t hf aug-cc-pvdz iop(5/13=1,5/36=2,99/5=2) pseudo=read geom=check gue
 ss=(read,tcheck) scf=(maxcycle=1)
 ----------------------------------------------------------------------
 -----
 title
 -----
 Structure from the checkpoint file:  "BDE49_expt_1478_mol1.chk"
 Charge =  0 Multiplicity = 1

                         Standard orientation:
 ---------------------------------------------------------------------
 Center     Atomic      Atomic             Coordinates (Angstroms)
 Number     Number       Type             X           Y           Z
 ---------------------------------------------------------------------
      1          6           0       -0.721781    0.469173    0.000361
      2          8           0        0.102173   -0.723430   -0.000071
      3          7           0        1.488296   -0.527679    0.000206
      4          8           0        1.828732    0.603427   -0.000280
      5          6           0       -2.164437    0.004545   -0.000200
      6          1           0       -0.478271    1.066954   -0.882537
      7          1           0       -0.478685    1.066102    0.883946
      8          1           0       -2.379613   -0.595655   -0.886209
      9          1           0       -2.831423    0.870582    0.000069
     10          1           0       -2.380018   -0.596515    0.885128
 ---------------------------------------------------------------------

 SCF Done:  E(RHF) =  -283.990402299     A.U. after    2 cycles

 The electronic state is 1-A.
 Alpha  occ. eigenvalues --  -21.14352 -21.10196 -15.93030 -11.44864 -11.37959
 Alpha  occ. eigenvalues --   -1.97113  -1.72395  -1.15778  -0.97411  -0.85370
 Alpha  occ. eigenvalues --   -0.68730  -0.67495  -0.62549  -0.58627  -0.55369
 Alpha  occ. eigenvalues --   -0.51261  -0.50769  -0.42691  -0.34283  -0.30123
 Alpha virt. eigenvalues --    0.03662   0.05765   0.05894   0.06182   0.06602
 Alpha virt. eigenvalues --    0.10899   0.12161   0.13452   0.13830   0.14076
 Alpha virt. eigenvalues --    0.15113   0.16317   0.17032   0.17462   0.18364

 Mulliken charges:
               1
     1  C   -1.777082
     2  O   -2.012827
     3  N    2.291687
     4  O   -1.721356
     5  C   -3.463939
     6  H    1.542133
     7  H    1.542035
     8  H    1.233701
     9  H    1.131989
    10  H    1.233658
 Sum of Mulliken charges =  -0.00000

 Dipole moment (field-independent basis, Debye):
    X=             -1.8326    Y=              1.0650    Z=             -0.0001  Tot=              2.1196

 Test job not archived.
 1\1\GINC-SE339\SP\RHF\Aug-CC-pVDZ\C2H5N1O2\OHZDE\08-Apr-2025\0\\#t hf
 aug-cc-pvdz iop(5/13=1,5/36=2,99/5=2) pseudo=read geom=check guess=(re
 ad,tcheck) scf=(maxcycle=1)\\title\\0,1\C,0,-0.721781,0.469173,0.00036
 1\O,0,0.102173,-0.72343,-0.000071\N,0,1.488296,-0.527679,0.000206\O,0,
 1.828732,0.603427,-0.00028\C,0,-2.164437,0.004545,-0.0002\H,0,-0.47827
 1,1.066954,-0.882537\H,0,-0.478685,1.066102,0.883946\H,0,-2.379613,-0.
 595655,-0.886209\H,0,-2.831423,0.870582,0.000069\H,0,-2.380018,-0.5965
 15,0.885128\\Version=ES64L-G16RevC.01\State=1-A\HF=-283.9904023\RMSD=1

 Normal termination of Gaussian 16 at Tue Apr  8 22:44:33 2025.
