 Gaussian 16, Revision C.01,

 ----------------------------------------------------------------------
 #t hf aug-cc-pvdz symm=none int=(grid=ultrafine) guess=(read,tcheck) s
 table=(opt,rrhf)
 ----------------------------------------------------------------------
 -----
 title
 -----
 Symbolic Z-matrix:
 Charge =  0 Multiplicity = 1

 SCF Done:  E(RHF) =  -458.384253055     A.U. after   12 cycles
 Normal termination of Gaussian 16 at Tue Apr  8 23:28:02 2025.
 Gaussian 16:  ES64L-G16RevC.01  3-Jul-2019

 ----------------------------------------------------------------------
 #t hf aug-cc-pvdz iop(5/13=1,5/36=2,99/5=2) pseudo=read geom=check gue
 ss=(read,tcheck) scf=(maxcycle=1)
 ----------------------------------------------------------------------
 -----
 title
 -----
 Structure from the checkpoint file:  "BDE49_nonexpt_1299_mol1.chk"
 Charge =  0 Multiplicity = 1

                         Standard orientation:
 ---------------------------------------------------------------------
 Center     Atomic      Atomic             Coordinates (Angstroms)
 Number     Number       Type             X           Y           Z
 ---------------------------------------------------------------------
      1         15           0       -1.466495   -0.095779   -0.013659
      2          6           0        0.283554    0.035347    0.555636
      3          6           0        1.377878    0.752187   -0.196542
      4          6           0        1.368097   -0.754303   -0.145983
      5          1           0        0.356610    0.057049    1.638962
      6          1           0        1.104603   -1.290822   -1.050476
      7          1           0        2.108309   -1.255811    0.466087
      8          1           0        2.129437    1.277387    0.382343
      9          1           0        1.119149    1.232230   -1.132899
     10          1           0       -1.191874   -0.067525   -1.406820
     11          1           0       -1.805987    1.284781    0.029028
 ---------------------------------------------------------------------

 SCF Done:  E(RHF) =  -459.175681455     A.U. after    2 cycles

 The electronic state is 1-A.
 Alpha  occ. eigenvalues -- -105.17328 -11.40883 -11.40812 -11.36331  -2.74481
 Alpha  occ. eigenvalues --   -1.47886  -1.43381  -1.42362  -1.27380  -0.86462
 Alpha  occ. eigenvalues --   -0.84724  -0.72363  -0.66253  -0.57803  -0.51260
 Alpha  occ. eigenvalues --   -0.42121  -0.41390  -0.25388  -0.22131  -0.01900
 Alpha virt. eigenvalues --    0.04293   0.05881   0.06145   0.06330   0.06521
 Alpha virt. eigenvalues --    0.06990   0.08715   0.10222   0.11755   0.12796
 Alpha virt. eigenvalues --    0.13384   0.13751   0.14093   0.15203   0.16179

 Mulliken charges:
               1
     1  P    2.333175
     2  C   -1.971213
     3  C   -2.433413
     4  C   -2.699238
     5  H    1.065737
     6  H    1.287957
     7  H    1.189592
     8  H    1.214499
     9  H    1.237959
    10  H   -0.781411
    11  H   -0.443646
 Sum of Mulliken charges =  -0.00000

 Dipole moment (field-independent basis, Debye):
    X=              0.3354    Y=             -1.1165    Z=              1.6909  Tot=              2.0539

 Test job not archived.
 1\1\GINC-SE336\SP\RHF\Aug-CC-pVDZ\C3H7P1\OHZDE\08-Apr-2025\0\\#t hf au
 g-cc-pvdz iop(5/13=1,5/36=2,99/5=2) pseudo=read geom=check guess=(read
 ,tcheck) scf=(maxcycle=1)\\title\\0,1\P,0,-1.466495,-0.095778,-0.01365
 9\C,0,0.283554,0.035347,0.555636\C,0,1.377878,0.752187,-0.196542\C,0,1
 .368097,-0.754303,-0.145983\H,0,0.35661,0.057049,1.638962\H,0,1.104603
 ,-1.290822,-1.050476\H,0,2.108309,-1.255811,0.466087\H,0,2.129437,1.27
 7387,0.382343\H,0,1.119149,1.23223,-1.132899\H,0,-1.191874,-0.067525,-
 1.40682\H,0,-1.805987,1.284782,0.029028\\Version=ES64L-G16RevC.01\Stat

 Normal termination of Gaussian 16 at Tue Apr  8 23:28:05 2025.
