 Gaussian 16, Revision C.01,

 ----------------------------------------------------------------------
 #t hf aug-cc-pvdz symm=none int=(grid=ultrafine) guess=(read,tcheck) s
 table=opt
 ----------------------------------------------------------------------
 -----
 title
 -----
 Symbolic Z-matrix:
 Charge =  0 Multiplicity = 2

 SCF Done:  E(UHF) =  -718.814294290     A.U. after   18 cycles
 Normal termination of Gaussian 16 at Wed Apr  9 00:20:43 2025.
 Gaussian 16:  ES64L-G16RevC.01  3-Jul-2019

 ----------------------------------------------------------------------
 #t hf aug-cc-pvdz iop(5/13=1,5/36=2,99/5=2) pseudo=read geom=check gue
 ss=(read,tcheck) scf=(maxcycle=1)
 ----------------------------------------------------------------------
 -----
 title
 -----
 Structure from the checkpoint file:  "BDE49_nonexpt_2595_mol2.chk"
 Charge =  0 Multiplicity = 2

                         Standard orientation:
 ---------------------------------------------------------------------
 Center     Atomic      Atomic             Coordinates (Angstroms)
 Number     Number       Type             X           Y           Z
 ---------------------------------------------------------------------
      1         16           0       -2.483640    0.127322    0.000040
      2          8           0       -0.889314    0.568761   -0.000007
      3          6           0        0.109582   -0.442514   -0.000044
      4          8           0       -0.145179   -1.614584   -0.000014
      5          7           0        1.335024    0.137055   -0.000019
      6          6           0        1.592642    1.573637   -0.000010
      7          1           0        2.172039    1.847914   -0.887871
      8          1           0        2.172020    1.847907    0.887865
      9          1           0        0.659298    2.125016   -0.000018
     10          6           0        2.506362   -0.731106   -0.000000
     11          1           0        3.116940   -0.541716    0.888921
     12          1           0        3.116968   -0.541715   -0.888902
     13          1           0        2.180242   -1.767454   -0.000006
 ---------------------------------------------------------------------

 SCF Done:  E(UHF) =  -720.433837203     A.U. after    2 cycles

 The electronic state is 2-A.
 Alpha  occ. eigenvalues --  -75.75462 -21.11626 -21.04150 -15.76355 -13.22129
 Alpha  occ. eigenvalues --  -13.09726 -13.08437 -11.53149 -11.41313 -11.40381
 Alpha  occ. eigenvalues --   -8.08762  -1.85462  -1.68372  -1.44165  -1.09159
 Alpha  occ. eigenvalues --   -1.05482  -0.97953  -0.74916  -0.69218  -0.67551
 Alpha  occ. eigenvalues --   -0.64044  -0.57485  -0.56640  -0.55839  -0.53806
 Alpha  occ. eigenvalues --   -0.50917  -0.44663  -0.44427  -0.31320  -0.30990
 Alpha  occ. eigenvalues --   -0.26487  -0.24842
 Alpha virt. eigenvalues --    0.03011   0.05023   0.05485   0.05890   0.06728
 Alpha virt. eigenvalues --    0.06970   0.07905   0.08936   0.11221   0.12320
 Alpha virt. eigenvalues --    0.12895   0.13785   0.14010   0.14370   0.14562

  Beta  occ. eigenvalues --  -75.74506 -21.11094 -21.04181 -15.76316 -13.21767
  Beta  occ. eigenvalues --  -13.09172 -13.02532 -11.53168 -11.41317 -11.40386
  Beta  occ. eigenvalues --   -8.07691  -1.84559  -1.68010  -1.44055  -1.06708
  Beta  occ. eigenvalues --   -1.03557  -0.94066  -0.74084  -0.68881  -0.67309
  Beta  occ. eigenvalues --   -0.63890  -0.56678  -0.56001  -0.55769  -0.53783
  Beta  occ. eigenvalues --   -0.50577  -0.43794  -0.40301  -0.31154  -0.30869
  Beta  occ. eigenvalues --   -0.23479
  Beta virt. eigenvalues --    0.03020   0.04468   0.05069   0.05738   0.06006
  Beta virt. eigenvalues --    0.06836   0.07028   0.07918   0.09020   0.12389
  Beta virt. eigenvalues --    0.12608   0.13101   0.13798   0.14148   0.14456

 Mulliken charges and spin densities:
               1          2
     1  S    0.515387   0.988596
     2  O   -2.219176   0.005946
     3  C    5.445624   0.002134
     4  O   -2.536675  -0.000939
     5  N   -2.837161   0.011131
     6  C   -3.469811  -0.000517
     7  H    1.405077   0.000521
     8  H    1.405068   0.000521
     9  H    1.616528  -0.005452
    10  C   -3.433347  -0.002551
    11  H    1.367063   0.000391
    12  H    1.367069   0.000391
    13  H    1.374355  -0.000170
 Sum of Mulliken charges =  -0.00000   1.00000

 Dipole moment (field-independent basis, Debye):
    X=              1.3501    Y=              1.3354    Z=              0.0001  Tot=              1.8990
                          Isotropic Fermi Contact Couplings
        Atom                 a.u.       MegaHertz       Gauss      10(-4) cm-1
     1  S(33)              0.27355      93.95772      33.52645      31.34092
     2  O(17)              0.03327     -20.16947      -7.19697      -6.72781
     3  C(13)             -0.00211      -2.37370      -0.84700      -0.79178
     4  O(17)             -0.00273       1.65497       0.59054       0.55204
     5  N(14)              0.00208       0.67146       0.23959       0.22397
     6  C(13)             -0.00051      -0.56809      -0.20271      -0.18949
     7  H(1)               0.00009       0.42108       0.15025       0.14046
     8  H(1)               0.00009       0.42109       0.15025       0.14046

 Normal termination of Gaussian 16 at Wed Apr  9 00:20:48 2025.
