 Gaussian 16, Revision C.01,

 ----------------------------------------------------------------------
 #t hf aug-cc-pvdz symm=none int=(grid=ultrafine) guess=(read,tcheck) s
 table=opt
 ----------------------------------------------------------------------
 -----
 title
 -----
 Symbolic Z-matrix:
 Charge =  0 Multiplicity = 2

 SCF Done:  E(UHF) =  -321.298982162     A.U. after   19 cycles
 Normal termination of Gaussian 16 at Tue Apr  8 23:06:05 2025.
 Gaussian 16:  ES64L-G16RevC.01  3-Jul-2019

 ----------------------------------------------------------------------
 #t hf aug-cc-pvdz iop(5/13=1,5/36=2,99/5=2) pseudo=read geom=check gue
 ss=(read,tcheck) scf=(maxcycle=1)
 ----------------------------------------------------------------------
 -----
 title
 -----
 Structure from the checkpoint file:  "BDE49_expt_365_mol2.chk"
 Charge =  0 Multiplicity = 2

                         Standard orientation:
 ---------------------------------------------------------------------
 Center     Atomic      Atomic             Coordinates (Angstroms)
 Number     Number       Type             X           Y           Z
 ---------------------------------------------------------------------
      1          6           0       -1.230620   -0.680375    0.009392
      2          6           0       -0.012068    0.071449    0.001707
      3          8           0        0.038834    1.295792    0.006392
      4          8           0        1.092196   -0.727794   -0.003950
      5          7           0       -2.401804    0.013021   -0.055897
      6          1           0       -1.247574   -1.759270    0.010544
      7          1           0       -2.325391    1.014434    0.063978
      8          1           0       -3.266147   -0.424036    0.216466
      9          6           0        2.344799   -0.033034    0.001186
     10          1           0        3.109274   -0.807817   -0.003401
     11          1           0        2.440537    0.591097    0.892329
     12          1           0        2.441028    0.602218   -0.881885
 ---------------------------------------------------------------------

 SCF Done:  E(UHF) =  -322.699831723     A.U. after    2 cycles

 The electronic state is 2-A.
 Alpha  occ. eigenvalues --  -21.07950 -21.03937 -15.78097 -11.50987 -11.41910
 Alpha  occ. eigenvalues --  -11.40697  -1.82761  -1.65507  -1.37980  -1.06868
 Alpha  occ. eigenvalues --   -0.96440  -0.77204  -0.72004  -0.64840  -0.62950
 Alpha  occ. eigenvalues --   -0.61256  -0.56696  -0.53411  -0.52544  -0.46138
 Alpha  occ. eigenvalues --   -0.41543  -0.33066  -0.30033  -0.24329
 Alpha virt. eigenvalues --    0.03358   0.05031   0.05280   0.06561   0.06998
 Alpha virt. eigenvalues --    0.07193   0.10666   0.11976   0.12396   0.14029
 Alpha virt. eigenvalues --    0.14258   0.15261   0.15728   0.16326   0.16663

  Beta  occ. eigenvalues --  -21.07831 -21.03036 -15.77294 -11.51115 -11.40807
  Beta  occ. eigenvalues --  -11.40408  -1.82325  -1.63994  -1.35292  -1.04454
  Beta  occ. eigenvalues --   -0.93572  -0.76153  -0.71676  -0.64367  -0.62093
  Beta  occ. eigenvalues --   -0.60577  -0.53337  -0.52234  -0.50805  -0.41167
  Beta  occ. eigenvalues --   -0.40425  -0.29845  -0.29129
  Beta virt. eigenvalues --    0.03400   0.05043   0.05324   0.06565   0.07009
  Beta virt. eigenvalues --    0.07200   0.09374   0.10708   0.12297   0.13860
  Beta virt. eigenvalues --    0.14267   0.14549   0.15261   0.15860   0.16415

 Mulliken charges and spin densities:
               1          2
     1  C   -1.771688   0.965119
     2  C    7.036983  -0.402016
     3  O   -3.167049   0.249522
     4  O   -3.338181   0.017789
     5  N   -2.711413   0.229811
     6  H    1.615134  -0.035797
     7  H    0.679996  -0.009385
     8  H    0.676425  -0.010824
     9  C   -2.987278  -0.008690
    10  H    1.324760  -0.000131
    11  H    1.316425   0.002354
    12  H    1.325886   0.002246
 Sum of Mulliken charges =  -0.00000   1.00000

 Dipole moment (field-independent basis, Debye):
    X=             -1.1135    Y=             -1.0582    Z=              0.4473  Tot=              1.5999
                          Isotropic Fermi Contact Couplings
        Atom                 a.u.       MegaHertz       Gauss      10(-4) cm-1
     1  C(13)              0.07957      89.44959      31.91784      29.83717
     2  C(13)             -0.03642     -40.94221     -14.60920     -13.65685
     3  O(17)              0.05323     -32.26881     -11.51431     -10.76372
     4  O(17)              0.00034      -0.20311      -0.07247      -0.06775
     5  N(14)              0.05838      18.86427       6.73124       6.29244
     6  H(1)              -0.01366     -61.06008     -21.78776     -20.36745
     7  H(1)              -0.00328     -14.67269      -5.23558      -4.89428
     8  H(1)              -0.00176      -7.85446      -2.80267      -2.61996

 Normal termination of Gaussian 16 at Tue Apr  8 23:06:09 2025.
