 Gaussian 16, Revision C.01,

 ----------------------------------------------------------------------
 #t hf aug-cc-pvdz symm=none int=(grid=ultrafine) guess=(read,tcheck) s
 table=opt
 ----------------------------------------------------------------------
 -----
 title
 -----
 Symbolic Z-matrix:
 Charge =  0 Multiplicity = 2

 SCF Done:  E(UHF) =  -256.629002936     A.U. after   19 cycles
 Normal termination of Gaussian 16 at Wed Apr  9 00:36:57 2025.
 Gaussian 16:  ES64L-G16RevC.01  3-Jul-2019

 ----------------------------------------------------------------------
 #t hf aug-cc-pvdz iop(5/13=1,5/36=2,99/5=2) pseudo=read geom=check gue
 ss=(read,tcheck) scf=(maxcycle=1)
 ----------------------------------------------------------------------
 -----
 title
 -----
 Structure from the checkpoint file:  "BDE49_nonexpt_542_mol2.chk"
 Charge =  0 Multiplicity = 2

                         Standard orientation:
 ---------------------------------------------------------------------
 Center     Atomic      Atomic             Coordinates (Angstroms)
 Number     Number       Type             X           Y           Z
 ---------------------------------------------------------------------
      1          9           0       -1.766935   -0.702644   -0.281886
      2          6           0        0.129632    0.753306   -0.234636
      3          6           0       -1.099973    0.299488    0.464319
      4          1           0       -1.806335    1.124259    0.584336
      5          1           0       -0.857720   -0.135981    1.436349
      6          7           0        1.288495    0.124475   -0.075065
      7          5           0        2.381092   -0.472401    0.084160
      8          1           0        3.397403   -1.021001    0.233232
      9          1           0        0.066179    1.530432   -0.990391
 ---------------------------------------------------------------------

 SCF Done:  E(UHF) =  -257.699556261     A.U. after    2 cycles

 The electronic state is 2-A.
 Alpha  occ. eigenvalues --  -29.23996 -15.69364 -11.46237 -11.41335  -7.67008
 Alpha  occ. eigenvalues --   -1.37245  -1.16689  -0.94656  -0.72091  -0.70819
 Alpha  occ. eigenvalues --   -0.68741  -0.63582  -0.58483  -0.50696  -0.42129
 Alpha  occ. eigenvalues --   -0.36163  -0.28020  -0.24171  -0.22123
 Alpha virt. eigenvalues --    0.03393   0.03662   0.04012   0.04986   0.06396
 Alpha virt. eigenvalues --    0.07165   0.09570   0.10901   0.12883   0.13669
 Alpha virt. eigenvalues --    0.13795   0.14990   0.15220   0.16641   0.17253

  Beta  occ. eigenvalues --  -29.23701 -15.70546 -11.45977 -11.39765  -7.66275
  Beta  occ. eigenvalues --   -1.36826  -1.16166  -0.90571  -0.70989  -0.70601
  Beta  occ. eigenvalues --   -0.66816  -0.62800  -0.58394  -0.49406  -0.43549
  Beta  occ. eigenvalues --   -0.35154  -0.24109  -0.23967
  Beta virt. eigenvalues --    0.03412   0.03705   0.03915   0.04926   0.06410
  Beta virt. eigenvalues --    0.07170   0.09071   0.10100   0.11015   0.12990
  Beta virt. eigenvalues --    0.13908   0.14960   0.15197   0.15759   0.17045

 Mulliken charges and spin densities:
               1          2
     1  F    0.266233   0.025014
     2  C    1.990090   1.308413
     3  C   -2.873688  -0.319974
     4  H    1.367894   0.000552
     5  H    1.295807   0.001768
     6  N   -2.776331  -0.407120
     7  B    2.141168   0.452110
     8  H   -2.975872  -0.009346
     9  H    1.564699  -0.051416
 Sum of Mulliken charges =  -0.00000   1.00000

 Dipole moment (field-independent basis, Debye):
    X=              0.2596    Y=             -1.0347    Z=             -0.3810  Tot=              1.1328
                          Isotropic Fermi Contact Couplings
        Atom                 a.u.       MegaHertz       Gauss      10(-4) cm-1
     1  F(19)              0.03526     148.34698      52.93389      49.48323
     2  C(13)              0.11769     132.30948      47.21131      44.13369
     3  C(13)             -0.03054     -34.33524     -12.25167     -11.45300
     4  H(1)               0.00278      12.41260       4.42913       4.14040
     5  H(1)               0.00268      11.96298       4.26869       3.99042
     6  N(14)             -0.12643     -40.84922     -14.57602     -13.62583
     7  B(11)              0.04230      60.67982      21.65207      20.24061
     8  H(1)              -0.01100     -49.16987     -17.54503     -16.40130

 Normal termination of Gaussian 16 at Wed Apr  9 00:36:59 2025.
