 Gaussian 16, Revision C.01,

 ----------------------------------------------------------------------
 #t hf aug-cc-pvdz symm=none int=(grid=ultrafine) guess=(read,tcheck) s
 table=(opt,rrhf)
 ----------------------------------------------------------------------
 -----
 title
 -----
 Symbolic Z-matrix:
 Charge =  0 Multiplicity = 1

 SCF Done:  E(RHF) =  -798.563463620     A.U. after   15 cycles
 Normal termination of Gaussian 16 at Tue Apr  8 23:19:52 2025.
 Gaussian 16:  ES64L-G16RevC.01  3-Jul-2019

 ----------------------------------------------------------------------
 #t hf aug-cc-pvdz iop(5/13=1,5/36=2,99/5=2) pseudo=read geom=check gue
 ss=(read,tcheck) scf=(maxcycle=1)
 ----------------------------------------------------------------------
 -----
 title
 -----
 Structure from the checkpoint file:  "BDE49_nonexpt_1071_mol1.chk"
 Charge =  0 Multiplicity = 1

                         Standard orientation:
 ---------------------------------------------------------------------
 Center     Atomic      Atomic             Coordinates (Angstroms)
 Number     Number       Type             X           Y           Z
 ---------------------------------------------------------------------
      1         17           0       -1.889328   -0.018744    0.008346
      2          8           0       -0.369241   -0.823556   -0.251874
      3          6           0        0.768223    0.019535   -0.019956
      4          8           0        1.834186   -0.787820   -0.323086
      5          1           0        1.864829   -1.474091    0.354589
      6          8           0        0.720594    0.394540    1.320239
      7          1           0        1.387952    1.081113    1.438346
      8          8           0        0.844093    1.092653   -0.873161
      9          1           0        0.019411    1.587895   -0.792021
 ---------------------------------------------------------------------

 SCF Done:  E(RHF) =  -800.186762185     A.U. after    2 cycles

 The electronic state is 1-A.
 Alpha  occ. eigenvalues --  -99.95102 -21.12698 -21.11303 -21.11107 -21.10998
 Alpha  occ. eigenvalues --  -11.54289 -10.51845  -9.71704  -9.70956  -9.70785
 Alpha  occ. eigenvalues --   -1.93977  -1.73753  -1.70898  -1.70187  -1.26388
 Alpha  occ. eigenvalues --   -0.90355  -0.76935  -0.68540  -0.66907  -0.60166
 Alpha  occ. eigenvalues --   -0.58113  -0.55322  -0.53122  -0.49940  -0.42731
 Alpha  occ. eigenvalues --   -0.40998  -0.36610  -0.34680  -0.33173
 Alpha virt. eigenvalues --    0.03565   0.03896   0.05490   0.06592   0.09788
 Alpha virt. eigenvalues --    0.12271   0.12799   0.13891   0.14194   0.15986
 Alpha virt. eigenvalues --    0.16528   0.19127   0.19803   0.20367   0.21165

 Mulliken charges:
               1
     1  Cl   0.341838
     2  O   -2.355024
     3  C    8.867381
     4  O   -2.911205
     5  H    0.612664
     6  O   -2.842370
     7  H    0.576271
     8  O   -2.922952
     9  H    0.633397
 Sum of Mulliken charges =   0.00000

 Dipole moment (field-independent basis, Debye):
    X=              2.5905    Y=             -0.2763    Z=              0.4186  Tot=              2.6386

 Test job not archived.
 1\1\GINC-SE036\SP\RHF\Aug-CC-pVDZ\C1H3Cl1O4\OHZDE\08-Apr-2025\0\\#t hf
  aug-cc-pvdz iop(5/13=1,5/36=2,99/5=2) pseudo=read geom=check guess=(r
 ead,tcheck) scf=(maxcycle=1)\\title\\0,1\Cl,0,-1.889328,-0.018744,0.00
 8346\O,0,-0.369241,-0.823556,-0.251874\C,0,0.768223,0.019535,-0.019956
 \O,0,1.834186,-0.78782,-0.323086\H,0,1.864829,-1.474091,0.354589\O,0,0
 .720594,0.39454,1.320239\H,0,1.387952,1.081113,1.438346\O,0,0.844093,1
 .092653,-0.873161\H,0,0.019411,1.587895,-0.792021\\Version=ES64L-G16Re
 vC.01\State=1-A\HF=-800.1867622\RMSD=4.330e-02\Dipole=1.0191847,-0.108

 Normal termination of Gaussian 16 at Tue Apr  8 23:19:55 2025.
