 Gaussian 16, Revision C.01,

 ----------------------------------------------------------------------
 #t hf aug-cc-pvdz symm=none int=(grid=ultrafine) guess=(read,tcheck) s
 table=(opt,rrhf)
 ----------------------------------------------------------------------
 -----
 title
 -----
 Symbolic Z-matrix:
 Charge =  0 Multiplicity = 1

 SCF Done:  E(RHF) =  -155.075676056     A.U. after   12 cycles
 Normal termination of Gaussian 16 at Wed Apr  9 00:35:46 2025.
 Gaussian 16:  ES64L-G16RevC.01  3-Jul-2019

 ----------------------------------------------------------------------
 #t hf aug-cc-pvdz iop(5/13=1,5/36=2,99/5=2) pseudo=read geom=check gue
 ss=(read,tcheck) scf=(maxcycle=1)
 ----------------------------------------------------------------------
 -----
 title
 -----
 Structure from the checkpoint file:  "BDE49_nonexpt_493_mol1.chk"
 Charge =  0 Multiplicity = 1

                         Standard orientation:
 ---------------------------------------------------------------------
 Center     Atomic      Atomic             Coordinates (Angstroms)
 Number     Number       Type             X           Y           Z
 ---------------------------------------------------------------------
      1          1           0       -1.817334    1.065048    0.000003
      2          1           0       -1.817335   -1.065047    0.000003
      3          5           0       -1.289544    0.000000    0.000002
      4          7           0        0.046304   -0.000001    0.000000
      5          8           0        1.219783    0.000000   -0.000002
 ---------------------------------------------------------------------

 SCF Done:  E(RHF) =  -155.740416890     A.U. after    2 cycles

 The electronic state is 1-A.
 Alpha  occ. eigenvalues --  -21.17714 -15.86840  -7.64817  -1.90105  -1.22314
 Alpha  occ. eigenvalues --   -0.74143  -0.63751  -0.61669  -0.58902  -0.47255
 Alpha  occ. eigenvalues --   -0.29077
 Alpha virt. eigenvalues --    0.03517   0.03741   0.04588   0.05185   0.09977
 Alpha virt. eigenvalues --    0.10574   0.12114   0.15363   0.16089   0.18525
 Alpha virt. eigenvalues --    0.18939   0.20893   0.22963   0.23822   0.24373

 Mulliken charges:
               1
     1  H   -2.503436
     2  H   -2.503438
     3  B    6.916031
     4  N    0.020643
     5  O   -1.929800
 Sum of Mulliken charges =   0.00000

 Dipole moment (field-independent basis, Debye):
    X=              1.0497    Y=              0.0000    Z=             -0.0000  Tot=              1.0497

 Test job not archived.
 1\1\GINC-SE459\SP\RHF\Aug-CC-pVDZ\B1H2N1O1\OHZDE\09-Apr-2025\0\\#t hf
 aug-cc-pvdz iop(5/13=1,5/36=2,99/5=2) pseudo=read geom=check guess=(re
 ad,tcheck) scf=(maxcycle=1)\\title\\0,1\H,0,1.817334,-1.065048,0.00000
 3\H,0,1.817335,1.065047,0.000003\B,0,1.289544,0.,0.000002\N,0,-0.04630
 4,0.000001,0.\O,0,-1.219783,0.,-0.000002\\Version=ES64L-G16RevC.01\Sta
 te=1-A\HF=-155.7404169\RMSD=1.914e-01\Dipole=-0.4129662,-0.0000003,-0.
 0000008\Quadrupole=-0.56213,0.620799,-0.058669,0.,-0.0000009,0.\PG=C01
  [X(B1H2N1O1)]\\@

 Normal termination of Gaussian 16 at Wed Apr  9 00:35:47 2025.
