 Gaussian 16, Revision C.01,

 ----------------------------------------------------------------------
 #t hf aug-cc-pvdz symm=none int=(grid=ultrafine) guess=(read,tcheck) s
 table=(opt,rrhf)
 ----------------------------------------------------------------------
 -----
 title
 -----
 Symbolic Z-matrix:
 Charge =  0 Multiplicity = 1

 SCF Done:  E(RHF) =  -421.511220797     A.U. after   15 cycles

 1\1\GINC-SE249\Stability\RHF\Aug-CC-pVDZ\C9H10O1\OHZDE\08-Apr-2025\0\\
 #t hf aug-cc-pvdz symm=none int=(grid=ultrafine) guess=(read,tcheck) s
 table=(opt,rrhf)\\title\\0,1\O,0,-0.930646,-1.100503,-0.22735\C,0,0.27
 9051,-0.462973,-0.140297\C,0,0.491067,0.886518,-0.432311\C,0,1.348303,
 -1.259101,0.285326\C,0,2.617546,-0.710458,0.409897\C,0,2.841139,0.6344
 06,0.109576\C,0,1.774045,1.421892,-0.308717\H,0,-0.329967,1.526267,-0.
 726363\H,0,1.929854,2.470871,-0.535584\H,0,1.157526,-2.302481,0.505656
 \H,0,3.43854,-1.338139,0.73839\H,0,3.83283,1.060347,0.205006\C,0,-2.01

 Normal termination of Gaussian 16 at Tue Apr  8 22:45:03 2025.
 Gaussian 16:  ES64L-G16RevC.01  3-Jul-2019

 ----------------------------------------------------------------------
 #t hf aug-cc-pvdz iop(5/13=1,5/36=2,99/5=2) pseudo=read geom=check gue
 ss=(read,tcheck) scf=(maxcycle=1)
 ----------------------------------------------------------------------
 -----
 title
 -----
 Structure from the checkpoint file:  "BDE49_expt_1435_mol1.chk"
 Charge =  0 Multiplicity = 1

                         Standard orientation:
 ---------------------------------------------------------------------
 Center     Atomic      Atomic             Coordinates (Angstroms)
 Number     Number       Type             X           Y           Z
 ---------------------------------------------------------------------
      1          8           0       -0.930646   -1.100503   -0.227350
      2          6           0        0.279051   -0.462973   -0.140297
      3          6           0        0.491067    0.886518   -0.432311
      4          6           0        1.348303   -1.259101    0.285326
      5          6           0        2.617546   -0.710458    0.409897
      6          6           0        2.841139    0.634406    0.109576
      7          6           0        1.774045    1.421892   -0.308717
      8          1           0       -0.329967    1.526267   -0.726363
      9          1           0        1.929854    2.470871   -0.535584
     10          1           0        1.157526   -2.302481    0.505656
     11          1           0        3.438540   -1.338139    0.738390
     12          1           0        3.832830    1.060347    0.205006
     13          6           0       -2.012472   -0.468243   -0.901645
     14          6           0       -2.857161    0.422776   -0.032430
     15          1           0       -2.628695   -1.290056   -1.281402
     16          1           0       -1.646311    0.082876   -1.777702
     17          6           0       -2.707879    0.591123    1.275812
     18          1           0       -3.660581    0.932120   -0.562116
     19          1           0       -1.920263    0.087353    1.823641
     20          1           0       -3.369595    1.239215    1.838002
 ---------------------------------------------------------------------

 SCF Done:  E(RHF) =  -423.499972970     A.U. after    2 cycles

 The electronic state is 1-A.
 Alpha  occ. eigenvalues --  -21.07013 -11.52621 -11.45781 -11.45369 -11.42433
 Alpha  occ. eigenvalues --  -11.41295 -11.40236 -11.40023 -11.37578 -11.36101
 Alpha  occ. eigenvalues --   -1.78765  -1.31608  -1.18492  -1.09162  -1.07139
 Alpha  occ. eigenvalues --   -0.98185  -0.86855  -0.84093  -0.78024  -0.71040
 Alpha  occ. eigenvalues --   -0.66887  -0.65176  -0.63609  -0.59267  -0.57739
 Alpha  occ. eigenvalues --   -0.56069  -0.53636  -0.52176  -0.49977  -0.46447
 Alpha  occ. eigenvalues --   -0.44794  -0.40816  -0.38022  -0.35690  -0.32785
 Alpha  occ. eigenvalues --   -0.26130
 Alpha virt. eigenvalues --    0.03466   0.04934   0.05050   0.05299   0.05642
 Alpha virt. eigenvalues --    0.05971   0.06394   0.06917   0.07845   0.08283
 Alpha virt. eigenvalues --    0.09818   0.11489   0.12028   0.12245   0.12659

 Mulliken charges:
               1
     1  O   -4.650220
     2  C    6.272392
     3  C   -2.885049
     4  C   -4.886006
     5  C   -0.003936
     6  C   -2.801125
     7  C   -0.359091
     8  H    2.154267
     9  H    1.490652
    10  H    1.831444
    11  H    1.506623
    12  H    1.560961
    13  C   -2.751177
    14  C   -0.647550
    15  H    1.287589
    16  H    1.483014
    17  C   -2.960211
    18  H    1.386063
    19  H    1.593101
    20  H    1.378258
 Sum of Mulliken charges =   0.00000

 Dipole moment (field-independent basis, Debye):
    X=             -0.8397    Y=              0.1104    Z=             -0.3371  Tot=              0.9116

 Test job not archived.
 1\1\GINC-SE249\SP\RHF\Aug-CC-pVDZ\C9H10O1\OHZDE\08-Apr-2025\0\\#t hf a
 ug-cc-pvdz iop(5/13=1,5/36=2,99/5=2) pseudo=read geom=check guess=(rea
 d,tcheck) scf=(maxcycle=1)\\title\\0,1\O,0,-0.930646,-1.100503,-0.2273
 5\C,0,0.279051,-0.462973,-0.140297\C,0,0.491067,0.886518,-0.432311\C,0
 ,1.348303,-1.259101,0.285326\C,0,2.617546,-0.710458,0.409897\C,0,2.841
 139,0.634406,0.109576\C,0,1.774045,1.421892,-0.308717\H,0,-0.329967,1.
 526267,-0.726363\H,0,1.929854,2.470871,-0.535584\H,0,1.157526,-2.30248
 1,0.505656\H,0,3.43854,-1.338139,0.73839\H,0,3.83283,1.060347,0.205006

 Normal termination of Gaussian 16 at Tue Apr  8 22:45:15 2025.
