 Gaussian 16, Revision C.01,

 ----------------------------------------------------------------------
 #t hf aug-cc-pvdz symm=none int=(grid=ultrafine) guess=(read,tcheck) s
 table=(opt,rrhf)
 ----------------------------------------------------------------------
 -----
 title
 -----
 Symbolic Z-matrix:
 Charge =  0 Multiplicity = 1

 SCF Done:  E(RHF) =  -254.378030731     A.U. after   12 cycles
 Normal termination of Gaussian 16 at Wed Apr  9 00:40:54 2025.
 Gaussian 16:  ES64L-G16RevC.01  3-Jul-2019

 ----------------------------------------------------------------------
 #t hf aug-cc-pvdz iop(5/13=1,5/36=2,99/5=2) pseudo=read geom=check gue
 ss=(read,tcheck) scf=(maxcycle=1)
 ----------------------------------------------------------------------
 -----
 title
 -----
 Structure from the checkpoint file:  "BDE49_nonexpt_642_mol1.chk"
 Charge =  0 Multiplicity = 1

                         Standard orientation:
 ---------------------------------------------------------------------
 Center     Atomic      Atomic             Coordinates (Angstroms)
 Number     Number       Type             X           Y           Z
 ---------------------------------------------------------------------
      1          5           0       -0.631956    0.027185    0.000065
      2          6           0        0.727980   -0.796267    0.000022
      3          6           0        2.023111    0.031039   -0.000005
      4          1           0        2.088933    0.673545    0.884586
      5          1           0        2.088893    0.673553   -0.884594
      6          1           0        2.913716   -0.602468   -0.000028
      7          8           0       -0.684072    1.391777   -0.000017
      8          1           0        0.184700    1.799804   -0.000038
      9          8           0       -1.852035   -0.592329   -0.000026
     10          1           0       -1.783427   -1.549537   -0.000050
     11          1           0        0.724618   -1.467518   -0.869838
     12          1           0        0.724656   -1.467521    0.869877
 ---------------------------------------------------------------------

 SCF Done:  E(RHF) =  -255.516623660     A.U. after    2 cycles

 The electronic state is 1-A.
 Alpha  occ. eigenvalues --  -21.04930 -21.04865 -11.39985 -11.34375  -7.62409
 Alpha  occ. eigenvalues --   -1.80804  -1.64595  -1.16315  -0.91884  -0.74055
 Alpha  occ. eigenvalues --   -0.63278  -0.61882  -0.56567  -0.54653  -0.50702
 Alpha  occ. eigenvalues --   -0.50435  -0.45010  -0.43937  -0.35615  -0.32863
 Alpha virt. eigenvalues --    0.02900   0.03910   0.04864   0.05392   0.06992
 Alpha virt. eigenvalues --    0.07304   0.07608   0.08135   0.08741   0.09485
 Alpha virt. eigenvalues --    0.10375   0.13219   0.14484   0.14941   0.16636

 Mulliken charges:
               1
     1  B    8.136606
     2  C   -4.510522
     3  C   -3.712966
     4  H    1.168633
     5  H    1.168634
     6  H    1.142861
     7  O   -3.985872
     8  H    1.329824
     9  O   -4.292653
    10  H    1.020049
    11  H    1.267624
    12  H    1.267782
 Sum of Mulliken charges =   0.00000

 Dipole moment (field-independent basis, Debye):
    X=              1.5492    Y=             -0.8569    Z=              0.0000  Tot=              1.7704

 Test job not archived.
 1\1\GINC-SE096\SP\RHF\Aug-CC-pVDZ\C2H7B1O2\OHZDE\09-Apr-2025\0\\#t hf
 aug-cc-pvdz iop(5/13=1,5/36=2,99/5=2) pseudo=read geom=check guess=(re
 ad,tcheck) scf=(maxcycle=1)\\title\\0,1\B,0,-0.631956,0.027185,0.00006
 5\C,0,0.72798,-0.796267,0.000022\C,0,2.023111,0.031039,-0.000005\H,0,2
 .088933,0.673545,0.884586\H,0,2.088893,0.673553,-0.884594\H,0,2.913716
 ,-0.602468,-0.000028\O,0,-0.684072,1.391777,-0.000017\H,0,0.1847,1.799
 804,-0.000038\O,0,-1.852035,-0.592329,-0.000026\H,0,-1.783427,-1.54953
 7,-0.00005\H,0,0.724618,-1.467518,-0.869838\H,0,0.724656,-1.467521,0.8

 Normal termination of Gaussian 16 at Wed Apr  9 00:40:58 2025.
