 Gaussian 16, Revision C.01,

 ----------------------------------------------------------------------
 #t hf aug-cc-pvdz symm=none int=(grid=ultrafine) guess=(read,tcheck) s
 table=(opt,rrhf)
 ----------------------------------------------------------------------
 -----
 title
 -----
 Symbolic Z-matrix:
 Charge =  0 Multiplicity = 1

 SCF Done:  E(RHF) =  -598.921780316     A.U. after   14 cycles
 Normal termination of Gaussian 16 at Tue Apr  8 23:15:26 2025.
 Gaussian 16:  ES64L-G16RevC.01  3-Jul-2019

 ----------------------------------------------------------------------
 #t hf aug-cc-pvdz iop(5/13=1,5/36=2,99/5=2) pseudo=read geom=check gue
 ss=(read,tcheck) scf=(maxcycle=1)
 ----------------------------------------------------------------------
 -----
 title
 -----
 Structure from the checkpoint file:  "BDE49_expt_812_mol1.chk"
 Charge =  0 Multiplicity = 1

                         Standard orientation:
 ---------------------------------------------------------------------
 Center     Atomic      Atomic             Coordinates (Angstroms)
 Number     Number       Type             X           Y           Z
 ---------------------------------------------------------------------
      1         14           0        1.639442   -0.437272   -0.000021
      2          6           0       -0.225500   -0.169203   -0.000007
      3          6           0       -0.778301    1.122789    0.000048
      4          6           0       -2.156413    1.321584    0.000059
      5          6           0       -3.018457    0.225903    0.000015
      6          6           0       -2.494474   -1.064232   -0.000041
      7          6           0       -1.113494   -1.256114   -0.000052
      8          1           0       -0.721535   -2.268417   -0.000095
      9          1           0       -0.126908    1.992329    0.000084
     10          1           0       -3.159944   -1.920803   -0.000076
     11          6           0        2.421294    0.305728   -1.543000
     12          1           0        2.251611    1.385667   -1.592870
     13          1           0        2.001097   -0.139356   -2.448890
     14          1           0        3.502493    0.137367   -1.553456
     15          1           0       -2.558730    2.328929    0.000103
     16          1           0       -4.092186    0.378248    0.000023
     17          6           0        2.421297    0.305599    1.543018
     18          1           0        1.860989   -1.907692   -0.000083
     19          1           0        2.251613    1.385533    1.592980
     20          1           0        3.502496    0.137237    1.553457
     21          1           0        2.001103   -0.139562    2.448872
 ---------------------------------------------------------------------

 SCF Done:  E(RHF) =  -600.622945620     A.U. after    2 cycles

 The electronic state is 1-A.
 Alpha  occ. eigenvalues --  -76.19393 -11.50870 -11.42593 -11.42015 -11.40350
 Alpha  occ. eigenvalues --  -11.39930 -11.35606 -11.34488 -11.34239  -5.53329
 Alpha  occ. eigenvalues --   -2.18209  -2.16952  -2.16863  -1.33178  -1.09020
 Alpha  occ. eigenvalues --   -1.08615  -1.04780  -1.00636  -0.85723  -0.84966
 Alpha  occ. eigenvalues --   -0.72817  -0.67703  -0.62653  -0.58264  -0.56881
 Alpha  occ. eigenvalues --   -0.56271  -0.55411  -0.54447  -0.54209  -0.51233
 Alpha  occ. eigenvalues --   -0.49898  -0.44510  -0.42776  -0.39875  -0.37212
 Alpha  occ. eigenvalues --   -0.32723  -0.32608
 Alpha virt. eigenvalues --    0.03096   0.04677   0.05248   0.05535   0.05695
 Alpha virt. eigenvalues --    0.06282   0.06346   0.06830   0.06884   0.07507
 Alpha virt. eigenvalues --    0.07993   0.09021   0.09410   0.10643   0.10939

 Mulliken charges:
               1
     1  Si   7.129834
     2  C   -0.710591
     3  C   -1.583882
     4  C   -1.273397
     5  C   -2.053687
     6  C   -0.855154
     7  C   -3.151656
     8  H    1.819196
     9  H    1.794009
    10  H    1.574561
    11  C   -5.463927
    12  H    1.363005
    13  H    1.110422
    14  H    1.200649
    15  H    1.514357
    16  H    1.536708
    17  C   -5.463928
    18  H   -2.160597
    19  H    1.363007
    20  H    1.200648
    21  H    1.110421
 Sum of Mulliken charges =   0.00000

 Dipole moment (field-independent basis, Debye):
    X=             -0.4372    Y=              0.6526    Z=              0.0000  Tot=              0.7856

 Test job not archived.
 1\1\GINC-SE284\SP\RHF\Aug-CC-pVDZ\C8H12Si1\OHZDE\08-Apr-2025\0\\#t hf
 aug-cc-pvdz iop(5/13=1,5/36=2,99/5=2) pseudo=read geom=check guess=(re
 ad,tcheck) scf=(maxcycle=1)\\title\\0,1\Si,0,1.639442,-0.437272,-0.000
 021\C,0,-0.2255,-0.169203,-0.000007\C,0,-0.778301,1.122789,0.000048\C,
 0,-2.156413,1.321584,0.000059\C,0,-3.018457,0.225903,0.000015\C,0,-2.4
 94474,-1.064232,-0.000041\C,0,-1.113494,-1.256114,-0.000052\H,0,-0.721
 535,-2.268417,-0.000095\H,0,-0.126908,1.992329,0.000084\H,0,-3.159944,
 -1.920803,-0.000076\C,0,2.421294,0.305728,-1.543\H,0,2.251611,1.385667

 Normal termination of Gaussian 16 at Tue Apr  8 23:15:38 2025.
