 Gaussian 16, Revision C.01,

 ----------------------------------------------------------------------
 #t hf aug-cc-pvdz symm=none int=(grid=ultrafine) guess=(read,tcheck) s
 table=(opt,rrhf)
 ----------------------------------------------------------------------
 -----
 title
 -----
 Symbolic Z-matrix:
 Charge =  0 Multiplicity = 1

 SCF Done:  E(RHF) =  -1092.53877686     A.U. after   16 cycles
 Normal termination of Gaussian 16 at Tue Apr  8 23:46:32 2025.
 Gaussian 16:  ES64L-G16RevC.01  3-Jul-2019

 ----------------------------------------------------------------------
 #t hf aug-cc-pvdz iop(5/13=1,5/36=2,99/5=2) pseudo=read geom=check gue
 ss=(read,tcheck) scf=(maxcycle=1)
 ----------------------------------------------------------------------
 -----
 title
 -----
 Structure from the checkpoint file:  "BDE49_nonexpt_1747_mol1.chk"
 Charge =  0 Multiplicity = 1

                         Standard orientation:
 ---------------------------------------------------------------------
 Center     Atomic      Atomic             Coordinates (Angstroms)
 Number     Number       Type             X           Y           Z
 ---------------------------------------------------------------------
      1          6           0        3.301726   -1.022059    0.000000
      2          6           0        2.092525   -1.713350    0.000001
      3          6           0        0.890016   -1.011756    0.000000
      4          6           0        3.314128    0.375671   -0.000002
      5          6           0        2.118989    1.078299   -0.000003
      6          6           0        0.895528    0.388548   -0.000002
      7          1           0        4.237293   -1.570142    0.000001
      8          1           0        2.085400   -2.796998    0.000003
      9          1           0       -0.048339   -1.551203    0.000001
     10          1           0        4.257649    0.909246   -0.000003
     11          1           0        2.101278    2.161369   -0.000005
     12          6           0       -0.360273    1.173835   -0.000003
     13         14           0       -2.213299    0.648992    0.000000
     14         17           0       -2.743338   -1.382667    0.000004
     15          8           0       -0.367744    2.398124   -0.000002
     16          1           0       -2.792118    1.233525   -1.220252
     17          1           0       -2.792115    1.233529    1.220253
 ---------------------------------------------------------------------

 SCF Done:  E(RHF) =  -1094.50861894     A.U. after    2 cycles

 The electronic state is 1-A.
 Alpha  occ. eigenvalues --  -99.89185 -76.27467 -21.07342 -11.53287 -11.49401
 Alpha  occ. eigenvalues --  -11.45553 -11.44576 -11.42855 -11.42562 -11.38223
 Alpha  occ. eigenvalues --  -10.46533  -9.66493  -9.66063  -9.65775  -5.60877
 Alpha  occ. eigenvalues --   -2.25007  -2.23139  -2.22673  -1.72518  -1.35813
 Alpha  occ. eigenvalues --   -1.29330  -1.13248  -1.11063  -0.93305  -0.88368
 Alpha  occ. eigenvalues --   -0.83781  -0.76757  -0.71336  -0.64866  -0.61233
 Alpha  occ. eigenvalues --   -0.60153  -0.58668  -0.56536  -0.54911  -0.54191
 Alpha  occ. eigenvalues --   -0.53974  -0.49666  -0.49341  -0.46902  -0.44988
 Alpha  occ. eigenvalues --   -0.44816  -0.34717  -0.33174  -0.28944
 Alpha virt. eigenvalues --    0.02948   0.04518   0.04760   0.05675   0.06074
 Alpha virt. eigenvalues --    0.06204   0.06294   0.06730   0.07604   0.08774
 Alpha virt. eigenvalues --    0.09967   0.10705   0.10749   0.12302   0.12556

 Mulliken charges:
               1
     1  C   -2.759452
     2  C   -3.501189
     3  C    0.990935
     4  C   -1.898128
     5  C   -2.261695
     6  C    5.058009
     7  H    1.539306
     8  H    1.490629
     9  H    1.973009
    10  H    1.478231
    11  H    1.781472
    12  C   -1.514532
    13  Si   5.282995
    14  Cl  -0.917981
    15  O   -2.815756
    16  H   -1.962928
    17  H   -1.962924
 Sum of Mulliken charges =  -0.00000

 Dipole moment (field-independent basis, Debye):
    X=              2.4156    Y=              0.4123    Z=             -0.0000  Tot=              2.4505

 Test job not archived.
 1\1\GINC-SE460\SP\RHF\Aug-CC-pVDZ\C7H7Cl1O1Si1\OHZDE\08-Apr-2025\0\\#t
  hf aug-cc-pvdz iop(5/13=1,5/36=2,99/5=2) pseudo=read geom=check guess
 =(read,tcheck) scf=(maxcycle=1)\\title\\0,1\C,0,3.301726,-1.022059,0.\
 C,0,2.092525,-1.71335,0.000001\C,0,0.890016,-1.011756,0.\C,0,3.314128,
 0.375671,-0.000002\C,0,2.118989,1.078299,-0.000003\C,0,0.895528,0.3885
 48,-0.000002\H,0,4.237293,-1.570142,0.000001\H,0,2.0854,-2.796998,0.00
 0003\H,0,-0.048339,-1.551203,0.000001\H,0,4.257649,0.909246,-0.000003\
 H,0,2.101278,2.161369,-0.000005\C,0,-0.360273,1.173835,-0.000003\Si,0,

 Normal termination of Gaussian 16 at Tue Apr  8 23:46:40 2025.
