 Gaussian 16, Revision C.01,

 ----------------------------------------------------------------------
 #t hf aug-cc-pvdz symm=none int=(grid=ultrafine) guess=(read,tcheck) s
 table=(opt,rrhf)
 ----------------------------------------------------------------------
 -----
 title
 -----
 Symbolic Z-matrix:
 Charge =  0 Multiplicity = 1

 SCF Done:  E(RHF) =  -1880.02208123     A.U. after   12 cycles
 Normal termination of Gaussian 16 at Wed Apr  9 00:51:42 2025.
 Gaussian 16:  ES64L-G16RevC.01  3-Jul-2019

 ----------------------------------------------------------------------
 #t hf aug-cc-pvdz iop(5/13=1,5/36=2,99/5=2) pseudo=read geom=check gue
 ss=(read,tcheck) scf=(maxcycle=1)
 ----------------------------------------------------------------------
 -----
 title
 -----
 Structure from the checkpoint file:  "BDE49_nonexpt_924_mol1.chk"
 Charge =  0 Multiplicity = 1

                         Standard orientation:
 ---------------------------------------------------------------------
 Center     Atomic      Atomic             Coordinates (Angstroms)
 Number     Number       Type             X           Y           Z
 ---------------------------------------------------------------------
      1         17           0       -3.041492   -0.323956    0.000001
      2         17           0        1.801324   -2.471979   -0.000001
      3         17           0        1.240189    2.795953   -0.000002
      4          7           0       -1.339601   -0.142692    0.000005
      5          7           0        0.793350   -1.088774    0.000004
      6          7           0        0.546218    1.231452    0.000004
      7          6           0       -0.861111    1.181739    0.000003
      8          6           0       -0.592877   -1.336620    0.000000
      9          6           0        1.453964    0.154864    0.000002
     10          8           0       -1.563643    2.145896   -0.000004
     11          8           0       -1.076568   -2.427124   -0.000004
     12          8           0        2.640214    0.281215   -0.000004
 ---------------------------------------------------------------------

 SCF Done:  E(RHF) =  -1882.84896993     A.U. after    2 cycles

 The electronic state is 1-A.
 Alpha  occ. eigenvalues --  -99.96800 -99.96788 -99.96788 -21.10033 -21.10033
 Alpha  occ. eigenvalues --  -21.10005 -15.86460 -15.86460 -15.86433 -11.60459
 Alpha  occ. eigenvalues --  -11.60459 -11.58214 -10.53945 -10.53927 -10.53927
 Alpha  occ. eigenvalues --   -9.74099  -9.74099  -9.73839  -9.73064  -9.73064
 Alpha  occ. eigenvalues --   -9.72966  -9.72636  -9.72612  -9.72612  -1.82745
 Alpha  occ. eigenvalues --   -1.79216  -1.79216  -1.58142  -1.52025  -1.52025
 Alpha  occ. eigenvalues --   -1.33658  -1.24474  -1.24473  -0.98909  -0.98908
 Alpha  occ. eigenvalues --   -0.86012  -0.82489  -0.76964  -0.68796  -0.68796
 Alpha  occ. eigenvalues --   -0.67248  -0.67248  -0.62240  -0.59813  -0.59813
 Alpha  occ. eigenvalues --   -0.56510  -0.54825  -0.54825  -0.54815  -0.54724
 Alpha  occ. eigenvalues --   -0.54724  -0.40872  -0.40872  -0.39853  -0.39853
 Alpha  occ. eigenvalues --   -0.37571  -0.32750
 Alpha virt. eigenvalues --   -0.02045   0.04072   0.04072   0.04666   0.08975
 Alpha virt. eigenvalues --    0.09091   0.09091   0.09230   0.10451   0.10452
 Alpha virt. eigenvalues --    0.10487   0.10487   0.13516   0.13516   0.13651

 Mulliken charges:
               1
     1  Cl   0.564846
     2  Cl   0.564837
     3  Cl   0.564839
     4  N   -2.135581
     5  N   -2.135621
     6  N   -2.135617
     7  C    4.480603
     8  C    4.480627
     9  C    4.480626
    10  O   -2.909855
    11  O   -2.909871
    12  O   -2.909833
 Sum of Mulliken charges =  -0.00000

 Dipole moment (field-independent basis, Debye):
    X=             -0.0000    Y=              0.0000    Z=             -0.0000  Tot=              0.0000

 Test job not archived.
 1\1\GINC-SE460\SP\RHF\Aug-CC-pVDZ\C3Cl3N3O3\OHZDE\09-Apr-2025\0\\#t hf
  aug-cc-pvdz iop(5/13=1,5/36=2,99/5=2) pseudo=read geom=check guess=(r
 ead,tcheck) scf=(maxcycle=1)\\title\\0,1\Cl,0,3.043244,-0.307059,-0.00
 0001\Cl,0,-1.787567,-2.481945,0.000001\Cl,0,-1.255698,2.789022,0.00000
 2\N,0,1.340373,-0.13525,-0.000005\N,0,-0.787291,-1.093164,-0.000004\N,
 0,-0.553049,1.228399,-0.000004\C,0,0.854534,1.186503,-0.000003\C,0,0.6
 00291,-1.333307,0.\C,0,-1.454802,0.146786,-0.000002\O,0,1.551701,2.154
 547,0.000004\O,0,1.090031,-2.421107,0.000004\O,0,-2.641735,0.266547,0.

 Normal termination of Gaussian 16 at Wed Apr  9 00:51:53 2025.
