 Gaussian 16, Revision C.01,

 ----------------------------------------------------------------------
 #t hf aug-cc-pvdz symm=none int=(grid=ultrafine) guess=(read,tcheck) s
 table=(opt,rrhf)
 ----------------------------------------------------------------------
 -----
 title
 -----
 Symbolic Z-matrix:
 Charge =  0 Multiplicity = 1

 SCF Done:  E(RHF) =  -1129.71957311     A.U. after   14 cycles
 Normal termination of Gaussian 16 at Wed Apr  9 00:22:34 2025.
 Gaussian 16:  ES64L-G16RevC.01  3-Jul-2019

 ----------------------------------------------------------------------
 #t hf aug-cc-pvdz iop(5/13=1,5/36=2,99/5=2) pseudo=read geom=check gue
 ss=(read,tcheck) scf=(maxcycle=1)
 ----------------------------------------------------------------------
 -----
 title
 -----
 Structure from the checkpoint file:  "BDE49_nonexpt_2609_mol1.chk"
 Charge =  0 Multiplicity = 1

                         Standard orientation:
 ---------------------------------------------------------------------
 Center     Atomic      Atomic             Coordinates (Angstroms)
 Number     Number       Type             X           Y           Z
 ---------------------------------------------------------------------
      1          6           0        1.010713    1.154490   -0.324170
      2          6           0        2.249672    1.370086    0.556557
      3          6           0        3.331977    0.317833    0.279680
      4          6           0        2.774865   -1.105217    0.420422
      5          6           0        1.533335   -1.317535   -0.458356
      6          6           0       -0.772832   -0.521755   -1.071494
      7          6           0        0.442131   -0.266036   -0.173137
      8         16           0       -2.258947    0.489086   -0.758711
      9         17           0       -2.870816   -0.264155    1.087251
     10          1           0        1.283111    1.316815   -1.376866
     11          1           0        0.240808    1.892003   -0.082047
     12          1           0        1.954210    1.317246    1.612120
     13          1           0        2.648704    2.376701    0.396941
     14          1           0        4.181379    0.459546    0.955440
     15          1           0        3.717568    0.455656   -0.738942
     16          1           0        2.507096   -1.286746    1.469035
     17          1           0        3.542511   -1.842175    0.163816
     18          1           0        1.130887   -2.324503   -0.303074
     19          1           0        1.823597   -1.255756   -1.516294
     20          1           0       -1.073761   -1.571559   -1.052551
     21          1           0       -0.547135   -0.266155   -2.116033
     22          1           0        0.118892   -0.397027    0.867565
 ---------------------------------------------------------------------

 SCF Done:  E(RHF) =  -1131.59458452     A.U. after    2 cycles

 The electronic state is 1-A.
 Alpha  occ. eigenvalues --  -99.89932 -75.73355 -13.16784 -13.10817 -13.08693
 Alpha  occ. eigenvalues --  -11.44765 -11.44124 -11.43314 -11.42378 -11.38059
 Alpha  occ. eigenvalues --  -11.37679 -11.34372 -10.47042  -9.66863  -9.66301
 Alpha  occ. eigenvalues --   -9.66107  -8.07041  -1.36272  -1.31106  -1.17906
 Alpha  occ. eigenvalues --   -1.10566  -1.07969  -0.94364  -0.88717  -0.84826
 Alpha  occ. eigenvalues --   -0.78733  -0.66721  -0.64252  -0.61916  -0.61262
 Alpha  occ. eigenvalues --   -0.59665  -0.56433  -0.54799  -0.52859  -0.52705
 Alpha  occ. eigenvalues --   -0.52127  -0.48446  -0.47228  -0.46401  -0.44493
 Alpha  occ. eigenvalues --   -0.42551  -0.39265  -0.35892  -0.24609
 Alpha virt. eigenvalues --    0.03645   0.04156   0.04574   0.05099   0.05214
 Alpha virt. eigenvalues --    0.05377   0.05741   0.06066   0.06700   0.07562
 Alpha virt. eigenvalues --    0.08324   0.08579   0.08899   0.09557   0.09860

 Mulliken charges:
               1
     1  C   -4.048774
     2  C   -2.977102
     3  C   -2.604462
     4  C   -2.984712
     5  C   -3.292386
     6  C   -4.907461
     7  C    1.985294
     8  S    0.573079
     9  Cl  -0.445260
    10  H    1.426788
    11  H    1.566029
    12  H    1.397802
    13  H    1.271177
    14  H    1.347425
    15  H    1.378043
    16  H    1.410991
    17  H    1.276567
    18  H    1.451775
    19  H    1.405215
    20  H    1.313387
    21  H    1.528456
    22  H    1.928130
 Sum of Mulliken charges =  -0.00000

 Dipole moment (field-independent basis, Debye):
    X=              1.8133    Y=              1.1044    Z=             -2.8070  Tot=              3.5195

 Test job not archived.
 1\1\GINC-SE015\SP\RHF\Aug-CC-pVDZ\C7H13Cl1S1\OHZDE\09-Apr-2025\0\\#t h
 f aug-cc-pvdz iop(5/13=1,5/36=2,99/5=2) pseudo=read geom=check guess=(
 read,tcheck) scf=(maxcycle=1)\\title\\0,1\C,0,1.010713,1.15449,-0.3241
 7\C,0,2.249672,1.370086,0.556557\C,0,3.331977,0.317833,0.27968\C,0,2.7
 74865,-1.105217,0.420422\C,0,1.533335,-1.317535,-0.458356\C,0,-0.77283
 2,-0.521755,-1.071494\C,0,0.442131,-0.266036,-0.173137\S,0,-2.258947,0
 .489086,-0.758711\Cl,0,-2.870816,-0.264155,1.087251\H,0,1.283111,1.316
 815,-1.376866\H,0,0.240808,1.892003,-0.082047\H,0,1.95421,1.317246,1.6

 Normal termination of Gaussian 16 at Wed Apr  9 00:22:47 2025.
