 Gaussian 16, Revision C.01,

 ----------------------------------------------------------------------
 #t hf aug-cc-pvdz symm=none int=(grid=ultrafine) guess=(read,tcheck) s
 table=(opt,rrhf)
 ----------------------------------------------------------------------
 -----
 title
 -----
 Symbolic Z-matrix:
 Charge =  0 Multiplicity = 1

 SCF Done:  E(RHF) =  -1024.15461182     A.U. after   14 cycles
 Normal termination of Gaussian 16 at Wed Apr  9 00:19:35 2025.
 Gaussian 16:  ES64L-G16RevC.01  3-Jul-2019

 ----------------------------------------------------------------------
 #t hf aug-cc-pvdz iop(5/13=1,5/36=2,99/5=2) pseudo=read geom=check gue
 ss=(read,tcheck) scf=(maxcycle=1)
 ----------------------------------------------------------------------
 -----
 title
 -----
 Structure from the checkpoint file:  "BDE49_nonexpt_2582_mol1.chk"
 Charge =  0 Multiplicity = 1

                         Standard orientation:
 ---------------------------------------------------------------------
 Center     Atomic      Atomic             Coordinates (Angstroms)
 Number     Number       Type             X           Y           Z
 ---------------------------------------------------------------------
      1         17           0        1.673838   -0.731835    0.062931
      2         16           0        0.514399    0.920607   -0.279703
      3          6           0       -1.809910   -0.174102    0.095332
      4          7           0       -2.649816   -0.839458   -0.338569
      5          8           0       -0.909682    0.579037    0.650425
 ---------------------------------------------------------------------

 SCF Done:  E(RHF) =  -1025.30328043     A.U. after    2 cycles

 The electronic state is 1-A.
 Alpha  occ. eigenvalues --  -99.95732 -75.84299 -21.19630 -15.77507 -13.27116
 Alpha  occ. eigenvalues --  -13.17754 -13.16858 -11.49416 -10.52919  -9.72591
 Alpha  occ. eigenvalues --   -9.71922  -9.71838  -8.17509  -1.87710  -1.38506
 Alpha  occ. eigenvalues --   -1.30432  -1.09932  -0.75929  -0.65102  -0.63998
 Alpha  occ. eigenvalues --   -0.59743  -0.57019  -0.55516  -0.53469  -0.40909
 Alpha  occ. eigenvalues --   -0.39173  -0.30450
 Alpha virt. eigenvalues --    0.01017   0.04495   0.05198   0.09413   0.09852
 Alpha virt. eigenvalues --    0.10938   0.11792   0.12620   0.13600   0.14076
 Alpha virt. eigenvalues --    0.15188   0.16783   0.18232   0.19179   0.19942

 Mulliken charges:
               1
     1  Cl  -0.406071
     2  S    1.264658
     3  C    3.643732
     4  N   -2.326521
     5  O   -2.175798
 Sum of Mulliken charges =  -0.00000

 Dipole moment (field-independent basis, Debye):
    X=              1.8682    Y=              4.2649    Z=             -0.2043  Tot=              4.6606

 Test job not archived.
 1\1\GINC-SE143\SP\RHF\Aug-CC-pVDZ\C1Cl1N1O1S1\OHZDE\09-Apr-2025\0\\#t
 hf aug-cc-pvdz iop(5/13=1,5/36=2,99/5=2) pseudo=read geom=check guess=
 (read,tcheck) scf=(maxcycle=1)\\title\\0,1\Cl,0,1.673838,-0.731835,0.0
 62931\S,0,0.514399,0.920607,-0.279703\C,0,-1.80991,-0.174102,0.095332\
 N,0,-2.649816,-0.839458,-0.338569\O,0,-0.909682,0.579037,0.650425\\Ver
 sion=ES64L-G16RevC.01\State=1-A\HF=-1025.3032804\RMSD=4.289e-02\Dipole
 =0.7350071,1.6779298,-0.0803879\Quadrupole=-4.839037,4.1177338,0.72130
 32,-1.9490363,-2.605618,-2.3813125\PG=C01 [X(C1Cl1N1O1S1)]\\@

 Normal termination of Gaussian 16 at Wed Apr  9 00:19:37 2025.
