 Gaussian 16, Revision C.01,

 ----------------------------------------------------------------------
 #t hf aug-cc-pvdz symm=none int=(grid=ultrafine) guess=(read,tcheck) s
 table=(opt,rrhf)
 ----------------------------------------------------------------------
 -----
 title
 -----
 Symbolic Z-matrix:
 Charge =  0 Multiplicity = 1

 SCF Done:  E(RHF) =  -1163.21084676     A.U. after   14 cycles
 Normal termination of Gaussian 16 at Tue Apr  8 23:58:28 2025.
 Gaussian 16:  ES64L-G16RevC.01  3-Jul-2019

 ----------------------------------------------------------------------
 #t hf aug-cc-pvdz iop(5/13=1,5/36=2,99/5=2) pseudo=read geom=check gue
 ss=(read,tcheck) scf=(maxcycle=1)
 ----------------------------------------------------------------------
 -----
 title
 -----
 Structure from the checkpoint file:  "BDE49_nonexpt_2056_mol1.chk"
 Charge =  0 Multiplicity = 1

                         Standard orientation:
 ---------------------------------------------------------------------
 Center     Atomic      Atomic             Coordinates (Angstroms)
 Number     Number       Type             X           Y           Z
 ---------------------------------------------------------------------
      1         14           0       -2.047423   -0.591827   -0.000008
      2          6           0       -0.278237    0.108166   -0.000089
      3         16           0       -0.087399    1.742111    0.000048
      4         16           0        0.978136   -1.085441   -0.000014
      5          6           0        2.516774   -0.123203    0.000007
      6          1           0        3.327812   -0.851752    0.000060
      7          1           0        2.565583    0.503012    0.890322
      8          1           0        2.565645    0.502953   -0.890347
      9          1           0       -2.731948   -0.105497    1.214051
     10          1           0       -2.014119   -2.074130   -0.000012
     11          1           0       -2.732053   -0.105493   -1.214006
 ---------------------------------------------------------------------

 SCF Done:  E(RHF) =  -1164.21318464     A.U. after    2 cycles

 The electronic state is 1-A.
 Alpha  occ. eigenvalues --  -76.23677 -75.72039 -75.67171 -13.15564 -13.14273
 Alpha  occ. eigenvalues --  -13.12868 -13.05067 -13.04127 -12.98945 -11.45867
 Alpha  occ. eigenvalues --  -11.40978  -8.06315  -8.01228  -5.57128  -2.20928
 Alpha  occ. eigenvalues --   -2.19538  -2.19231  -1.28945  -1.12928  -0.98940
 Alpha  occ. eigenvalues --   -0.83622  -0.70403  -0.61322  -0.60176  -0.51858
 Alpha  occ. eigenvalues --   -0.49524  -0.48885  -0.45891  -0.40895  -0.36732
 Alpha  occ. eigenvalues --   -0.23167  -0.21145
 Alpha virt. eigenvalues --    0.02644   0.03869   0.04591   0.05384   0.06032
 Alpha virt. eigenvalues --    0.06973   0.07117   0.08152   0.08253   0.10159
 Alpha virt. eigenvalues --    0.10539   0.10802   0.12079   0.13318   0.14441

 Mulliken charges:
               1
     1  Si   6.255035
     2  C   -2.809251
     3  S    0.763100
     4  S    1.459651
     5  C   -4.873714
     6  H    1.306833
     7  H    1.468932
     8  H    1.468874
     9  H   -1.679968
    10  H   -1.679536
    11  H   -1.679956
 Sum of Mulliken charges =  -0.00000

 Dipole moment (field-independent basis, Debye):
    X=              1.7587    Y=             -0.2960    Z=              0.0004  Tot=              1.7834

 Test job not archived.
 1\1\GINC-SE340\SP\RHF\Aug-CC-pVDZ\C2H6S2Si1\OHZDE\08-Apr-2025\0\\#t hf
  aug-cc-pvdz iop(5/13=1,5/36=2,99/5=2) pseudo=read geom=check guess=(r
 ead,tcheck) scf=(maxcycle=1)\\title\\0,1\Si,0,-2.047423,-0.591827,-0.0
 00008\C,0,-0.278237,0.108166,-0.000089\S,0,-0.087399,1.742111,0.000048
 \S,0,0.978136,-1.085441,-0.000014\C,0,2.516774,-0.123203,0.000007\H,0,
 3.327812,-0.851752,0.00006\H,0,2.565583,0.503012,0.890322\H,0,2.565645
 ,0.502953,-0.890347\H,0,-2.731948,-0.105497,1.214051\H,0,-2.014119,-2.
 07413,-0.000012\H,0,-2.732053,-0.105493,-1.214006\\Version=ES64L-G16Re

 Normal termination of Gaussian 16 at Tue Apr  8 23:58:31 2025.
