 Gaussian 16, Revision C.01,

 ----------------------------------------------------------------------
 #t hf aug-cc-pvdz symm=none int=(grid=ultrafine) guess=(read,tcheck) s
 table=(opt,rrhf)
 ----------------------------------------------------------------------
 -----
 title
 -----
 Symbolic Z-matrix:
 Charge =  0 Multiplicity = 1

 SCF Done:  E(RHF) =  -748.014779758     A.U. after   12 cycles
 Normal termination of Gaussian 16 at Wed Apr  9 00:12:07 2025.
 Gaussian 16:  ES64L-G16RevC.01  3-Jul-2019

 ----------------------------------------------------------------------
 #t hf aug-cc-pvdz iop(5/13=1,5/36=2,99/5=2) pseudo=read geom=check gue
 ss=(read,tcheck) scf=(maxcycle=1)
 ----------------------------------------------------------------------
 -----
 title
 -----
 Structure from the checkpoint file:  "BDE49_nonexpt_2397_mol1.chk"
 Charge =  0 Multiplicity = 1

                         Standard orientation:
 ---------------------------------------------------------------------
 Center     Atomic      Atomic             Coordinates (Angstroms)
 Number     Number       Type             X           Y           Z
 ---------------------------------------------------------------------
      1         14           0        2.101830   -0.735662   -0.000009
      2         14           0        0.524203    1.018655    0.000159
      3          1           0        3.469151   -0.160615    0.000712
      4          1           0        1.931374   -1.577681   -1.207603
      5          1           0        1.930519   -1.578671    1.206774
      6          7           0       -1.075668    0.389670   -0.000659
      7          1           0        0.681802    1.868262   -1.201834
      8          1           0        0.681044    1.867359    1.202900
      9          6           0       -2.120223   -0.191682   -0.000095
     10          8           0       -3.150917   -0.744768    0.000266
 ---------------------------------------------------------------------

 SCF Done:  E(RHF) =  -749.031756270     A.U. after    2 cycles

 The electronic state is 1-A.
 Alpha  occ. eigenvalues --  -76.26019 -76.22802 -21.11578 -15.76380 -11.59284
 Alpha  occ. eigenvalues --   -5.59551  -5.56247  -2.24962  -2.21258  -2.20324
 Alpha  occ. eigenvalues --   -2.18316  -2.18298  -2.17294  -1.76448  -1.35676
 Alpha  occ. eigenvalues --   -0.87198  -0.77337  -0.64348  -0.60454  -0.60348
 Alpha  occ. eigenvalues --   -0.57995  -0.50174  -0.48438  -0.47686  -0.40325
 Alpha  occ. eigenvalues --   -0.35948  -0.33094
 Alpha virt. eigenvalues --    0.03913   0.04220   0.05105   0.06215   0.07172
 Alpha virt. eigenvalues --    0.07748   0.07759   0.08925   0.09102   0.09364
 Alpha virt. eigenvalues --    0.09591   0.10995   0.12427   0.12808   0.12871

 Mulliken charges:
               1
     1  Si   4.318685
     2  Si   4.108122
     3  H   -1.542750
     4  H   -1.465529
     5  H   -1.465436
     6  N   -1.951749
     7  H   -1.558506
     8  H   -1.558800
     9  C    3.653310
    10  O   -2.537346
 Sum of Mulliken charges =  -0.00000

 Dipole moment (field-independent basis, Debye):
    X=              0.1665    Y=             -0.3131    Z=              0.0007  Tot=              0.3546

 Test job not archived.
 1\1\GINC-SE165\SP\RHF\Aug-CC-pVDZ\C1H5N1O1Si2\OHZDE\09-Apr-2025\0\\#t
 hf aug-cc-pvdz iop(5/13=1,5/36=2,99/5=2) pseudo=read geom=check guess=
 (read,tcheck) scf=(maxcycle=1)\\title\\0,1\Si,0,2.10183,-0.735662,-0.0
 00009\Si,0,0.524203,1.018655,0.000159\H,0,3.469151,-0.160615,0.000712\
 H,0,1.931374,-1.577681,-1.207603\H,0,1.930519,-1.578671,1.206774\N,0,-
 1.075668,0.38967,-0.000659\H,0,0.681802,1.868262,-1.201834\H,0,0.68104
 4,1.867359,1.2029\C,0,-2.120223,-0.191682,-0.000095\O,0,-3.150917,-0.7
 44768,0.000266\\Version=ES64L-G16RevC.01\State=1-A\HF=-749.0317563\RMS

 Normal termination of Gaussian 16 at Wed Apr  9 00:12:10 2025.
