 Gaussian 16, Revision C.01,

 ----------------------------------------------------------------------
 #t hf aug-cc-pvdz symm=none int=(grid=ultrafine) guess=(read,tcheck) s
 table=(opt,rrhf)
 ----------------------------------------------------------------------
 -----
 title
 -----
 Symbolic Z-matrix:
 Charge =  0 Multiplicity = 1

 SCF Done:  E(RHF) =  -444.916570418     A.U. after   15 cycles
 Normal termination of Gaussian 16 at Wed Apr  9 00:31:03 2025.
 Gaussian 16:  ES64L-G16RevC.01  3-Jul-2019

 ----------------------------------------------------------------------
 #t hf aug-cc-pvdz iop(5/13=1,5/36=2,99/5=2) pseudo=read geom=check gue
 ss=(read,tcheck) scf=(maxcycle=1)
 ----------------------------------------------------------------------
 -----
 title
 -----
 Structure from the checkpoint file:  "BDE49_nonexpt_336_mol1.chk"
 Charge =  0 Multiplicity = 1

                         Standard orientation:
 ---------------------------------------------------------------------
 Center     Atomic      Atomic             Coordinates (Angstroms)
 Number     Number       Type             X           Y           Z
 ---------------------------------------------------------------------
      1          6           0       -2.377197    1.039505   -0.539367
      2          6           0       -1.067478    1.294776   -0.139772
      3          6           0       -2.946447   -0.213713   -0.323034
      4          6           0       -2.193596   -1.207607    0.297943
      5          6           0       -0.883245   -0.948402    0.696456
      6          6           0       -0.296155    0.308285    0.487261
      7          1           0       -0.636021    2.275850   -0.311025
      8          5           0        2.216436   -0.053602   -0.110436
      9          8           0        3.526792    0.278241    0.074618
     10          8           0        1.903732   -0.914495   -1.125183
     11          1           0       -2.955006    1.822612   -1.018027
     12          1           0       -2.627242   -2.185052    0.479054
     13          1           0       -3.966555   -0.412176   -0.631268
     14          1           0       -0.311426   -1.726722    1.193244
     15          6           0        1.138614    0.565753    0.879838
     16          1           0        1.338865    0.150053    1.875744
     17          1           0        1.328251    1.639848    0.971700
     18          1           0        0.956652   -1.079034   -1.193401
     19          1           0        4.099134   -0.158915   -0.565271
 ---------------------------------------------------------------------

 SCF Done:  E(RHF) =  -446.948775406     A.U. after    2 cycles

 The electronic state is 1-A.
 Alpha  occ. eigenvalues --  -21.05429 -21.05016 -11.52001 -11.44199 -11.43303
 Alpha  occ. eigenvalues --  -11.40927 -11.40690 -11.37338 -11.35680  -7.63010
 Alpha  occ. eigenvalues --   -1.81434  -1.65046  -1.35244  -1.15192  -1.09186
 Alpha  occ. eigenvalues --   -1.00995  -0.86484  -0.84189  -0.74321  -0.70407
 Alpha  occ. eigenvalues --   -0.65365  -0.62973  -0.61332  -0.59581  -0.57942
 Alpha  occ. eigenvalues --   -0.54348  -0.52752  -0.49661  -0.46390  -0.45529
 Alpha  occ. eigenvalues --   -0.43912  -0.40965  -0.37702  -0.36151  -0.33321
 Alpha  occ. eigenvalues --   -0.31214
 Alpha virt. eigenvalues --    0.02989   0.04530   0.04770   0.05047   0.05661
 Alpha virt. eigenvalues --    0.05862   0.06660   0.07431   0.07701   0.08727
 Alpha virt. eigenvalues --    0.09143   0.09495   0.09875   0.11151   0.11858

 Mulliken charges:
               1
     1  C   -1.639275
     2  C   -2.280583
     3  C   -2.693008
     4  C   -1.975106
     5  C   -1.759044
     6  C    3.583917
     7  H    1.685175
     8  B    8.103591
     9  O   -4.358405
    10  O   -4.090912
    11  H    1.503340
    12  H    1.495603
    13  H    1.525024
    14  H    1.708272
    15  C   -6.291971
    16  H    1.301716
    17  H    1.509544
    18  H    1.581881
    19  H    1.090242
 Sum of Mulliken charges =   0.00000

 Dipole moment (field-independent basis, Debye):
    X=             -0.7531    Y=             -0.2572    Z=             -0.2289  Tot=              0.8281

 Test job not archived.
 1\1\GINC-SE460\SP\RHF\Aug-CC-pVDZ\C7H9B1O2\OHZDE\09-Apr-2025\0\\#t hf
 aug-cc-pvdz iop(5/13=1,5/36=2,99/5=2) pseudo=read geom=check guess=(re
 ad,tcheck) scf=(maxcycle=1)\\title\\0,1\C,0,2.377197,1.039505,0.539367
 \C,0,1.067478,1.294776,0.139772\C,0,2.946447,-0.213713,0.323034\C,0,2.
 193596,-1.207607,-0.297943\C,0,0.883245,-0.948402,-0.696456\C,0,0.2961
 55,0.308285,-0.487261\H,0,0.636021,2.27585,0.311025\B,0,-2.216436,-0.0
 53602,0.110436\O,0,-3.526792,0.278241,-0.074618\O,0,-1.903732,-0.91449
 5,1.125183\H,0,2.955006,1.822612,1.018027\H,0,2.627242,-2.185052,-0.47

 Normal termination of Gaussian 16 at Wed Apr  9 00:31:11 2025.
