 Gaussian 16, Revision C.01,

 ----------------------------------------------------------------------
 #t hf aug-cc-pvdz symm=none int=(grid=ultrafine) guess=(read,tcheck) s
 table=(opt,rrhf)
 ----------------------------------------------------------------------
 -----
 title
 -----
 Symbolic Z-matrix:
 Charge =  0 Multiplicity = 1

 SCF Done:  E(RHF) =  -885.370936011     A.U. after   13 cycles
 Normal termination of Gaussian 16 at Wed Apr  9 00:33:09 2025.
 Gaussian 16:  ES64L-G16RevC.01  3-Jul-2019

 ----------------------------------------------------------------------
 #t hf aug-cc-pvdz iop(5/13=1,5/36=2,99/5=2) pseudo=read geom=check gue
 ss=(read,tcheck) scf=(maxcycle=1)
 ----------------------------------------------------------------------
 -----
 title
 -----
 Structure from the checkpoint file:  "BDE49_nonexpt_403_mol1.chk"
 Charge =  0 Multiplicity = 1

                         Standard orientation:
 ---------------------------------------------------------------------
 Center     Atomic      Atomic             Coordinates (Angstroms)
 Number     Number       Type             X           Y           Z
 ---------------------------------------------------------------------
      1          9           0        2.476122   -0.009014    0.094136
      2          9           0        1.096063    1.793194   -0.125133
      3          5           0        1.278717    0.498249   -0.019769
      4         16           0       -0.217723   -0.660759    0.024218
      5          8           0       -0.559673   -0.820603    1.418967
      6          8           0       -1.366984    0.206072   -0.710781
      7          6           0       -2.136152    1.165235    0.061113
      8          1           0       -3.004113    1.388800   -0.555256
      9          1           0       -1.550597    2.071293    0.225373
     10          1           0       -2.443681    0.727186    1.009080
     11          8           0        0.021110   -1.779895   -0.840129
 ---------------------------------------------------------------------

 SCF Done:  E(RHF) =  -887.527689440     A.U. after    2 cycles

 The electronic state is 1-A.
 Alpha  occ. eigenvalues --  -75.92872 -29.31645 -29.31115 -21.11575 -21.07842
 Alpha  occ. eigenvalues --  -21.07530 -13.56000 -13.46633 -13.39851 -11.44553
 Alpha  occ. eigenvalues --   -8.28027  -7.78095  -1.92515  -1.75071  -1.68143
 Alpha  occ. eigenvalues --   -1.21316  -1.06243  -0.92662  -0.83483  -0.71166
 Alpha  occ. eigenvalues --   -0.66390  -0.63900  -0.61061  -0.57542  -0.52525
 Alpha  occ. eigenvalues --   -0.52274  -0.50285  -0.47181  -0.45846  -0.43348
 Alpha  occ. eigenvalues --   -0.41579  -0.39158  -0.38763  -0.37992  -0.37842
 Alpha  occ. eigenvalues --   -0.25337
 Alpha virt. eigenvalues --    0.02734   0.03315   0.04178   0.06056   0.06199
 Alpha virt. eigenvalues --    0.06742   0.07836   0.09477   0.10837   0.12103
 Alpha virt. eigenvalues --    0.13484   0.14242   0.15165   0.15493   0.15869

 Mulliken charges:
               1
     1  F    0.309979
     2  F   -1.016326
     3  B    1.639818
     4  S    5.917455
     5  O   -2.599118
     6  O   -3.026770
     7  C   -2.793116
     8  H    1.277896
     9  H    1.475712
    10  H    1.369878
    11  O   -2.555409
 Sum of Mulliken charges =  -0.00000

 Dipole moment (field-independent basis, Debye):
    X=              0.9906    Y=              3.6905    Z=             -0.1057  Tot=              3.8226

 Test job not archived.
 1\1\GINC-SE457\SP\RHF\Aug-CC-pVDZ\C1H3B1F2O3S1\OHZDE\09-Apr-2025\0\\#t
  hf aug-cc-pvdz iop(5/13=1,5/36=2,99/5=2) pseudo=read geom=check guess
 =(read,tcheck) scf=(maxcycle=1)\\title\\0,1\F,0,2.476122,-0.009015,0.0
 94136\F,0,1.096063,1.793194,-0.125133\B,0,1.278717,0.498249,-0.019769\
 S,0,-0.217723,-0.660759,0.024218\O,0,-0.559673,-0.820603,1.418967\O,0,
 -1.366984,0.206072,-0.710781\C,0,-2.136152,1.165236,0.061113\H,0,-3.00
 4113,1.388801,-0.555256\H,0,-1.550597,2.071293,0.225373\H,0,-2.443681,
 0.727187,1.00908\O,0,0.021109,-1.779895,-0.840129\\Version=ES64L-G16Re

 Normal termination of Gaussian 16 at Wed Apr  9 00:33:14 2025.
