 Gaussian 16, Revision C.01,

 ----------------------------------------------------------------------
 #t hf aug-cc-pvdz symm=none int=(grid=ultrafine) guess=(read,tcheck) s
 table=opt
 ----------------------------------------------------------------------
 -----
 title
 -----
 Symbolic Z-matrix:
 Charge =  0 Multiplicity = 2

 SCF Done:  E(UHF) =  -964.119206715     A.U. after   21 cycles
 Normal termination of Gaussian 16 at Wed Apr  9 00:17:11 2025.
 Gaussian 16:  ES64L-G16RevC.01  3-Jul-2019

 ----------------------------------------------------------------------
 #t hf aug-cc-pvdz iop(5/13=1,5/36=2,99/5=2) pseudo=read geom=check gue
 ss=(read,tcheck) scf=(maxcycle=1)
 ----------------------------------------------------------------------
 -----
 title
 -----
 Structure from the checkpoint file:  "BDE49_nonexpt_2549_mol2.chk"
 Charge =  0 Multiplicity = 2

                         Standard orientation:
 ---------------------------------------------------------------------
 Center     Atomic      Atomic             Coordinates (Angstroms)
 Number     Number       Type             X           Y           Z
 ---------------------------------------------------------------------
      1         16           0        1.702463    0.114548    0.143073
      2         15           0       -0.320031   -0.092689   -0.108687
      3          8           0       -0.530886   -1.246690   -1.000643
      4          8           0       -1.075488   -0.200978    1.307747
      5          1           0       -1.050765   -1.098078    1.664450
      6          8           0       -0.846431    1.341273   -0.558655
      7          1           0       -1.765746    1.506800   -0.310904
 ---------------------------------------------------------------------

 SCF Done:  E(UHF) =  -965.429409607     A.U. after    2 cycles

 The electronic state is 2-A.
 Alpha  occ. eigenvalues -- -105.33208 -75.74675 -21.13632 -21.13532 -21.03668
 Alpha  occ. eigenvalues --  -13.12224 -13.09193 -13.06897  -8.08530  -2.95785
 Alpha  occ. eigenvalues --   -2.00722  -1.91241  -1.81109  -1.56320  -1.42217
 Alpha  occ. eigenvalues --   -1.27745  -1.07226  -0.70422  -0.64024  -0.53337
 Alpha  occ. eigenvalues --   -0.46174  -0.44851  -0.39996  -0.36731  -0.31160
 Alpha  occ. eigenvalues --   -0.30841  -0.29937  -0.23370  -0.16374
 Alpha virt. eigenvalues --    0.02901   0.05592   0.06944   0.10765   0.12131
 Alpha virt. eigenvalues --    0.12219   0.13202   0.13807   0.14167   0.19245
 Alpha virt. eigenvalues --    0.20278   0.21189   0.21511   0.21807   0.24048

  Beta  occ. eigenvalues -- -105.33245 -75.73691 -21.13632 -21.13512 -21.03383
  Beta  occ. eigenvalues --  -13.11686 -13.06312 -13.03238  -8.07429  -2.95887
  Beta  occ. eigenvalues --   -2.00707  -1.91298  -1.81083  -1.56238  -1.42293
  Beta  occ. eigenvalues --   -1.27234  -0.97724  -0.69806  -0.64007  -0.53067
  Beta  occ. eigenvalues --   -0.45998  -0.44486  -0.36800  -0.35235  -0.30700
  Beta  occ. eigenvalues --   -0.28417  -0.22258  -0.15389
  Beta virt. eigenvalues --    0.01424   0.02995   0.05602   0.07179   0.11176
  Beta virt. eigenvalues --    0.12206   0.12718   0.13446   0.14113   0.15524
  Beta virt. eigenvalues --    0.19441   0.20527   0.21422   0.21738   0.22585

 Mulliken charges and spin densities:
               1          2
     1  S   -1.674095   1.096136
     2  P    7.419786  -0.122289
     3  O   -2.529000   0.013815
     4  O   -2.467225  -0.000818
     5  H    0.855842   0.005130
     6  O   -2.487275   0.013256
     7  H    0.881967  -0.005230
 Sum of Mulliken charges =  -0.00000   1.00000

 Dipole moment (field-independent basis, Debye):
    X=             -1.7466    Y=              1.9472    Z=              2.0448  Tot=              3.3202
                          Isotropic Fermi Contact Couplings
        Atom                 a.u.       MegaHertz       Gauss      10(-4) cm-1
     1  S(33)              0.20244      69.53355      24.81130      23.19390
     2  P(31)             -0.03875     -70.17867     -25.04149     -23.40908
     3  O(17)              0.02343     -14.20586      -5.06900      -4.73857
     4  O(17)             -0.00195       1.17982       0.42099       0.39354
     5  H(1)               0.00001       0.02860       0.01021       0.00954
     6  O(17)             -0.00052       0.31333       0.11180       0.10452
     7  H(1)              -0.00002      -0.10190      -0.03636      -0.03399
 --------------------------------------------------------

 Normal termination of Gaussian 16 at Wed Apr  9 00:17:15 2025.
