 Gaussian 16, Revision C.01,

 ----------------------------------------------------------------------
 #t hf aug-cc-pvdz symm=none int=(grid=ultrafine) guess=(read,tcheck) s
 table=(opt,rrhf)
 ----------------------------------------------------------------------
 -----
 title
 -----
 Symbolic Z-matrix:
 Charge =  0 Multiplicity = 1

 SCF Done:  E(RHF) =  -879.597350799     A.U. after   14 cycles
 Normal termination of Gaussian 16 at Tue Apr  8 23:54:41 2025.
 Gaussian 16:  ES64L-G16RevC.01  3-Jul-2019

 ----------------------------------------------------------------------
 #t hf aug-cc-pvdz iop(5/13=1,5/36=2,99/5=2) pseudo=read geom=check gue
 ss=(read,tcheck) scf=(maxcycle=1)
 ----------------------------------------------------------------------
 -----
 title
 -----
 Structure from the checkpoint file:  "BDE49_nonexpt_1947_mol1.chk"
 Charge =  0 Multiplicity = 1

                         Standard orientation:
 ---------------------------------------------------------------------
 Center     Atomic      Atomic             Coordinates (Angstroms)
 Number     Number       Type             X           Y           Z
 ---------------------------------------------------------------------
      1         14           0       -2.332447   -0.213220   -0.364727
      2          6           0       -0.976802    0.093516    0.940327
      3          6           0        0.397555    0.117245    0.350715
      4         16           0        1.172037    1.471949   -0.173478
      5          8           0        0.886097   -1.124616    0.276306
      6          6           0        2.185071   -1.343500   -0.299731
      7          1           0        2.341827   -2.418220   -0.237081
      8          1           0        2.945470   -0.803561    0.266066
      9          1           0        2.202101   -1.005436   -1.336695
     10          1           0       -3.634702   -0.286126    0.337486
     11          1           0       -2.081164   -1.492172   -1.064914
     12          1           0       -2.357886    0.894479   -1.342557
     13          1           0       -1.047848   -0.710016    1.679874
     14          1           0       -1.189853    1.048307    1.421339
 ---------------------------------------------------------------------

 SCF Done:  E(RHF) =  -880.875346184     A.U. after    2 cycles

 The electronic state is 1-A.
 Alpha  occ. eigenvalues --  -76.22786 -75.65015 -21.11196 -13.14077 -13.01946
 Alpha  occ. eigenvalues --  -12.97309 -11.51873 -11.42321 -11.38787  -7.99261
 Alpha  occ. eigenvalues --   -5.56213  -2.19816  -2.18528  -2.18447  -1.82489
 Alpha  occ. eigenvalues --   -1.20063  -1.05906  -1.01097  -0.78508  -0.74116
 Alpha  occ. eigenvalues --   -0.65873  -0.63413  -0.62798  -0.54582  -0.52495
 Alpha  occ. eigenvalues --   -0.50666  -0.47419  -0.47395  -0.40350  -0.38097
 Alpha  occ. eigenvalues --   -0.26591  -0.22420
 Alpha virt. eigenvalues --    0.03185   0.04540   0.05024   0.05595   0.05919
 Alpha virt. eigenvalues --    0.06284   0.07354   0.07770   0.08410   0.09163
 Alpha virt. eigenvalues --    0.09966   0.10401   0.11229   0.11579   0.13617

 Mulliken charges:
               1
     1  Si   6.087708
     2  C   -4.845589
     3  C    2.586196
     4  S    0.589930
     5  O   -3.442618
     6  C   -2.916008
     7  H    1.400027
     8  H    1.392823
     9  H    1.372611
    10  H   -1.692639
    11  H   -1.677022
    12  H   -1.789111
    13  H    1.516377
    14  H    1.417315
 Sum of Mulliken charges =  -0.00000

 Dipole moment (field-independent basis, Debye):
    X=              0.7989    Y=             -0.5891    Z=              0.1582  Tot=              1.0051

 Test job not archived.
 1\1\GINC-SE249\SP\RHF\Aug-CC-pVDZ\C3H8O1S1Si1\OHZDE\08-Apr-2025\0\\#t
 hf aug-cc-pvdz iop(5/13=1,5/36=2,99/5=2) pseudo=read geom=check guess=
 (read,tcheck) scf=(maxcycle=1)\\title\\0,1\Si,0,-2.332447,-0.21322,-0.
 364727\C,0,-0.976802,0.093516,0.940327\C,0,0.397555,0.117245,0.350715\
 S,0,1.172037,1.471949,-0.173478\O,0,0.886097,-1.124616,0.276306\C,0,2.
 185071,-1.3435,-0.299731\H,0,2.341827,-2.41822,-0.237081\H,0,2.94547,-
 0.803561,0.266066\H,0,2.202101,-1.005436,-1.336695\H,0,-3.634702,-0.28
 6126,0.337486\H,0,-2.081164,-1.492172,-1.064914\H,0,-2.357886,0.894479

 Normal termination of Gaussian 16 at Tue Apr  8 23:54:46 2025.
