 Gaussian 16, Revision C.01,

 ----------------------------------------------------------------------
 #t hf aug-cc-pvdz symm=none int=(grid=ultrafine) guess=(read,tcheck) s
 table=(opt,rrhf)
 ----------------------------------------------------------------------
 -----
 title
 -----
 Symbolic Z-matrix:
 Charge =  0 Multiplicity = 1

 SCF Done:  E(RHF) =  -507.322727006     A.U. after   15 cycles
 Normal termination of Gaussian 16 at Wed Apr  9 00:47:19 2025.
 Gaussian 16:  ES64L-G16RevC.01  3-Jul-2019

 ----------------------------------------------------------------------
 #t hf aug-cc-pvdz iop(5/13=1,5/36=2,99/5=2) pseudo=read geom=check gue
 ss=(read,tcheck) scf=(maxcycle=1)
 ----------------------------------------------------------------------
 -----
 title
 -----
 Structure from the checkpoint file:  "BDE49_nonexpt_824_mol1.chk"
 Charge =  0 Multiplicity = 1

                         Standard orientation:
 ---------------------------------------------------------------------
 Center     Atomic      Atomic             Coordinates (Angstroms)
 Number     Number       Type             X           Y           Z
 ---------------------------------------------------------------------
      1          6           0       -2.009710   -0.189210   -0.400935
      2          5           0        1.220718    0.132594    0.044375
      3          6           0        1.112916    1.668711    0.316413
      4          1           0        0.123001    2.088737    0.118208
      5          1           0        1.884173    2.266519   -0.180565
      6          1           0        1.270905    1.796167    1.401008
      7          6           0        2.539740   -0.524303   -0.486188
      8          1           0        3.439852    0.070176   -0.299162
      9          1           0        2.423510   -0.570016   -1.583100
     10          1           0        2.710154   -1.556987   -0.169524
     11          8           0       -2.233501    0.995760   -0.286020
     12         14           0       -0.435930   -1.011080    0.387476
     13          1           0       -0.742025   -1.057839    1.843945
     14          1           0       -0.366339   -2.416205   -0.096220
     15          1           0       -2.733470   -0.825672   -0.968715
 ---------------------------------------------------------------------

 SCF Done:  E(RHF) =  -508.486419578     A.U. after    2 cycles

 The electronic state is 1-A.
 Alpha  occ. eigenvalues --  -76.20653 -21.07024 -11.44835 -11.34374 -11.33334
 Alpha  occ. eigenvalues --   -7.60728  -5.54429  -2.17936  -2.17169  -2.16422
 Alpha  occ. eigenvalues --   -1.70289  -1.13631  -1.01242  -0.89113  -0.76298
 Alpha  occ. eigenvalues --   -0.65055  -0.58753  -0.57714  -0.56152  -0.54718
 Alpha  occ. eigenvalues --   -0.53414  -0.49281  -0.47968  -0.44280  -0.41888
 Alpha  occ. eigenvalues --   -0.34659  -0.26580
 Alpha virt. eigenvalues --    0.03100   0.03633   0.04282   0.04546   0.06119
 Alpha virt. eigenvalues --    0.06803   0.07074   0.07696   0.08089   0.08418
 Alpha virt. eigenvalues --    0.08975   0.09061   0.09495   0.09822   0.10951

 Mulliken charges:
               1
     1  C   -0.496173
     2  B    3.132287
     3  C   -5.719419
     4  H    1.261432
     5  H    1.190594
     6  H    1.024824
     7  C   -5.598790
     8  H    1.343701
     9  H    0.913788
    10  H    1.152242
    11  O   -2.153809
    12  Si   6.207685
    13  H   -1.888602
    14  H   -1.816883
    15  H    1.447123
 Sum of Mulliken charges =  -0.00000

 Dipole moment (field-independent basis, Debye):
    X=              1.4085    Y=              0.1513    Z=             -0.4223  Tot=              1.4782

 Test job not archived.
 1\1\GINC-SE458\SP\RHF\Aug-CC-pVDZ\C3H9B1O1Si1\OHZDE\09-Apr-2025\0\\#t
 hf aug-cc-pvdz iop(5/13=1,5/36=2,99/5=2) pseudo=read geom=check guess=
 (read,tcheck) scf=(maxcycle=1)\\title\\0,1\C,0,-2.00971,-0.18921,-0.40
 0935\B,0,1.220718,0.132594,0.044375\C,0,1.112916,1.668711,0.316413\H,0
 ,0.123001,2.088737,0.118208\H,0,1.884173,2.266519,-0.180565\H,0,1.2709
 05,1.796167,1.401008\C,0,2.53974,-0.524303,-0.486188\H,0,3.439852,0.07
 0176,-0.299162\H,0,2.42351,-0.570016,-1.5831\H,0,2.710154,-1.556987,-0
 .169524\O,0,-2.233501,0.99576,-0.28602\Si,0,-0.43593,-1.01108,0.387476

 Normal termination of Gaussian 16 at Wed Apr  9 00:47:24 2025.
