 Gaussian 16, Revision C.01,

 ----------------------------------------------------------------------
 #t hf aug-cc-pvdz symm=none int=(grid=ultrafine) guess=(read,tcheck) s
 table=(opt,rrhf)
 ----------------------------------------------------------------------
 -----
 title
 -----
 Symbolic Z-matrix:
 Charge =  0 Multiplicity = 1

 SCF Done:  E(RHF) =  -1190.22704421     A.U. after   14 cycles
 Normal termination of Gaussian 16 at Tue Apr  8 23:57:35 2025.
 Gaussian 16:  ES64L-G16RevC.01  3-Jul-2019

 ----------------------------------------------------------------------
 #t hf aug-cc-pvdz iop(5/13=1,5/36=2,99/5=2) pseudo=read geom=check gue
 ss=(read,tcheck) scf=(maxcycle=1)
 ----------------------------------------------------------------------
 -----
 title
 -----
 Structure from the checkpoint file:  "BDE49_nonexpt_200_mol1.chk"
 Charge =  0 Multiplicity = 1

                         Standard orientation:
 ---------------------------------------------------------------------
 Center     Atomic      Atomic             Coordinates (Angstroms)
 Number     Number       Type             X           Y           Z
 ---------------------------------------------------------------------
      1         17           0        1.744603   -1.520425    0.117147
      2         17           0        1.744565    1.520508    0.116418
      3          5           0        0.879882   -0.000014   -0.073130
      4          6           0       -0.615550   -0.000147   -0.560284
      5          8           0       -0.636117   -0.000595   -1.794471
      6          7           0       -1.713305    0.000079    0.231401
      7          6           0       -1.627581    0.000537    1.680447
      8          1           0       -0.582955    0.000661    1.995223
      9          1           0       -2.110985   -0.888374    2.099064
     10          1           0       -2.111026    0.889690    2.098501
     11          6           0       -3.040949   -0.000143   -0.368368
     12          1           0       -2.925037   -0.000480   -1.450425
     13          1           0       -3.599378    0.889842   -0.061341
     14          1           0       -3.599334   -0.889962   -0.060781
 ---------------------------------------------------------------------

 SCF Done:  E(RHF) =  -1191.94880939     A.U. after    2 cycles

 The electronic state is 1-A.
 Alpha  occ. eigenvalues --  -99.90974 -99.90955 -21.03498 -15.76798 -11.47377
 Alpha  occ. eigenvalues --  -11.42605 -11.40544 -10.48354 -10.48123  -9.68299
 Alpha  occ. eigenvalues --   -9.68186  -9.67796  -9.67722  -9.67650  -9.67603
 Alpha  occ. eigenvalues --   -7.73733  -1.71762  -1.44769  -1.40200  -1.30721
 Alpha  occ. eigenvalues --   -1.07593  -1.01702  -0.88837  -0.74534  -0.69088
 Alpha  occ. eigenvalues --   -0.67873  -0.63938  -0.63722  -0.59036  -0.58177
 Alpha  occ. eigenvalues --   -0.57414  -0.53955  -0.53402  -0.51882  -0.51509
 Alpha  occ. eigenvalues --   -0.48278  -0.46307  -0.30409  -0.29339
 Alpha virt. eigenvalues --    0.02603   0.04200   0.04630   0.04646   0.05708
 Alpha virt. eigenvalues --    0.06126   0.06880   0.07048   0.07261   0.08103
 Alpha virt. eigenvalues --    0.09702   0.10943   0.12517   0.12870   0.13351

 Mulliken charges:
               1
     1  Cl  -1.405910
     2  Cl  -1.405902
     3  B    3.298621
     4  C    3.392796
     5  O   -2.829359
     6  N   -3.129604
     7  C   -3.670376
     8  H    1.661014
     9  H    1.443873
    10  H    1.443883
    11  C   -3.202625
    12  H    1.510134
    13  H    1.446726
    14  H    1.446728
 Sum of Mulliken charges =  -0.00000

 Dipole moment (field-independent basis, Debye):
    X=             -2.7529    Y=              0.0005    Z=              1.6347  Tot=              3.2017

 Test job not archived.
 1\1\GINC-SE099\SP\RHF\Aug-CC-pVDZ\C3H6B1Cl2N1O1\OHZDE\08-Apr-2025\0\\#
 t hf aug-cc-pvdz iop(5/13=1,5/36=2,99/5=2) pseudo=read geom=check gues
 s=(read,tcheck) scf=(maxcycle=1)\\title\\0,1\Cl,0,-1.744603,1.520425,0
 .117147\Cl,0,-1.744565,-1.520508,0.116418\B,0,-0.879882,0.000014,-0.07
 313\C,0,0.61555,0.000147,-0.560284\O,0,0.636117,0.000595,-1.794471\N,0
 ,1.713305,-0.000079,0.231401\C,0,1.627581,-0.000537,1.680447\H,0,0.582
 955,-0.000661,1.995223\H,0,2.110985,0.888374,2.099064\H,0,2.111026,-0.
 88969,2.098501\C,0,3.040949,0.000143,-0.368368\H,0,2.925037,0.00048,-1

 Normal termination of Gaussian 16 at Tue Apr  8 23:57:41 2025.
