 Gaussian 16, Revision C.01,

 ----------------------------------------------------------------------
 #t hf aug-cc-pvdz symm=none int=(grid=ultrafine) guess=(read,tcheck) s
 table=(opt,rrhf)
 ----------------------------------------------------------------------
 -----
 title
 -----
 Symbolic Z-matrix:
 Charge =  0 Multiplicity = 1

 SCF Done:  E(RHF) =  -1216.92364749     A.U. after   15 cycles
 Normal termination of Gaussian 16 at Wed Apr  9 00:28:33 2025.
 Gaussian 16:  ES64L-G16RevC.01  3-Jul-2019

 ----------------------------------------------------------------------
 #t hf aug-cc-pvdz iop(5/13=1,5/36=2,99/5=2) pseudo=read geom=check gue
 ss=(read,tcheck) scf=(maxcycle=1)
 ----------------------------------------------------------------------
 -----
 title
 -----
 Structure from the checkpoint file:  "BDE49_nonexpt_2716_mol1.chk"
 Charge =  0 Multiplicity = 1

                         Standard orientation:
 ---------------------------------------------------------------------
 Center     Atomic      Atomic             Coordinates (Angstroms)
 Number     Number       Type             X           Y           Z
 ---------------------------------------------------------------------
      1          6           0        2.226024    1.099100   -0.127861
      2          8           0        1.268144    1.630585   -0.603880
      3         16           0        2.420052   -0.727260   -0.007154
      4         16           0        0.649658   -1.394760   -0.837942
      5          6           0       -0.553426   -1.060355    0.510301
      6          8           0       -0.251678   -0.542064    1.544163
      7          6           0        3.401395    1.817456    0.495846
      8          1           0        3.149144    2.039018    1.536926
      9          1           0        3.559620    2.759248   -0.030860
     10          1           0        4.312971    1.218117    0.481854
     11          6           0       -1.957064   -1.499742    0.130566
     12          6           0       -2.996710   -0.404656    0.422578
     13          1           0       -2.167227   -2.390825    0.733266
     14          1           0       -1.991287   -1.805505   -0.919707
     15          6           0       -2.868565    0.820081   -0.491217
     16          1           0       -2.890434   -0.100470    1.468195
     17          1           0       -3.996006   -0.841108    0.317911
     18          6           0       -3.899369    1.905553   -0.171020
     19          1           0       -2.981366    0.503981   -1.535403
     20          1           0       -1.859761    1.237972   -0.406363
     21          1           0       -4.921473    1.528731   -0.279529
     22          1           0       -3.789090    2.764305   -0.838020
     23          1           0       -3.785895    2.266070    0.855828
 ---------------------------------------------------------------------

 SCF Done:  E(RHF) =  -1219.33851715     A.U. after    2 cycles

 The electronic state is 1-A.
 Alpha  occ. eigenvalues --  -75.72516 -75.72254 -21.07629 -21.07329 -13.19414
 Alpha  occ. eigenvalues --  -13.14863 -13.13414 -13.11575 -13.06620 -13.05934
 Alpha  occ. eigenvalues --  -11.51905 -11.51841 -11.43783 -11.41418 -11.40683
 Alpha  occ. eigenvalues --  -11.38240 -11.35024  -8.06516  -8.06338  -1.73612
 Alpha  occ. eigenvalues --   -1.73111  -1.27188  -1.23608  -1.14263  -1.10241
 Alpha  occ. eigenvalues --   -1.02709  -0.94675  -0.84415  -0.76875  -0.72939
 Alpha  occ. eigenvalues --   -0.65958  -0.63185  -0.62333  -0.61381  -0.59934
 Alpha  occ. eigenvalues --   -0.58476  -0.57512  -0.53970  -0.52406  -0.50231
 Alpha  occ. eigenvalues --   -0.49337  -0.47570  -0.46211  -0.45780  -0.45092
 Alpha  occ. eigenvalues --   -0.41946  -0.36473  -0.29761  -0.28677  -0.25966
 Alpha  occ. eigenvalues --   -0.24734
 Alpha virt. eigenvalues --    0.02889   0.03965   0.04985   0.05440   0.05940
 Alpha virt. eigenvalues --    0.06128   0.06340   0.06556   0.07009   0.07428
 Alpha virt. eigenvalues --    0.08305   0.08799   0.09465   0.10080   0.10728

 Mulliken charges:
               1
     1  C    3.131496
     2  O   -3.048504
     3  S    0.080730
     4  S   -0.081746
     5  C    3.950318
     6  O   -3.176671
     7  C   -4.221856
     8  H    1.304602
     9  H    1.249127
    10  H    1.473584
    11  C   -3.678866
    12  C   -2.778413
    13  H    1.305450
    14  H    1.776138
    15  C   -3.282493
    16  H    1.589224
    17  H    1.391358
    18  C   -4.100731
    19  H    1.455890
    20  H    1.912632
    21  H    1.325362
    22  H    1.117037
    23  H    1.306331
 Sum of Mulliken charges =   0.00000

 Dipole moment (field-independent basis, Debye):
    X=              0.2955    Y=             -0.5543    Z=             -0.4145  Tot=              0.7526

 Test job not archived.
 1\1\GINC-SE177\SP\RHF\Aug-CC-pVDZ\C7H12O2S2\OHZDE\09-Apr-2025\0\\#t hf
  aug-cc-pvdz iop(5/13=1,5/36=2,99/5=2) pseudo=read geom=check guess=(r
 ead,tcheck) scf=(maxcycle=1)\\title\\0,1\C,0,2.226024,1.0991,-0.127861
 \O,0,1.268144,1.630585,-0.60388\S,0,2.420052,-0.72726,-0.007154\S,0,0.
 649658,-1.39476,-0.837942\C,0,-0.553426,-1.060355,0.510301\O,0,-0.2516
 78,-0.542064,1.544163\C,0,3.401395,1.817456,0.495846\H,0,3.149144,2.03
 9018,1.536926\H,0,3.55962,2.759248,-0.03086\H,0,4.312971,1.218117,0.48
 1854\C,0,-1.957064,-1.499742,0.130566\C,0,-2.99671,-0.404656,0.422578\

 Normal termination of Gaussian 16 at Wed Apr  9 00:28:49 2025.
