 Gaussian 16, Revision C.01,

 ----------------------------------------------------------------------
 #t hf aug-cc-pvdz symm=none int=(grid=ultrafine) guess=(read,tcheck) s
 table=opt
 ----------------------------------------------------------------------
 -----
 title
 -----
 Symbolic Z-matrix:
 Charge =  0 Multiplicity = 2

 SCF Done:  E(UHF) =  -739.423902751     A.U. after   19 cycles
 Normal termination of Gaussian 16 at Wed Apr  9 00:16:33 2025.
 Gaussian 16:  ES64L-G16RevC.01  3-Jul-2019

 ----------------------------------------------------------------------
 #t hf aug-cc-pvdz iop(5/13=1,5/36=2,99/5=2) pseudo=read geom=check gue
 ss=(read,tcheck) scf=(maxcycle=1)
 ----------------------------------------------------------------------
 -----
 title
 -----
 Structure from the checkpoint file:  "BDE49_nonexpt_2535_mol2.chk"
 Charge =  0 Multiplicity = 2

                         Standard orientation:
 ---------------------------------------------------------------------
 Center     Atomic      Atomic             Coordinates (Angstroms)
 Number     Number       Type             X           Y           Z
 ---------------------------------------------------------------------
      1         16           0       -1.061294   -0.000000    0.020763
      2         15           0        0.937876   -0.000001   -0.107554
      3          1           0        1.456289   -1.082499    0.640560
      4          1           0        1.456276    1.082512    0.640551
 ---------------------------------------------------------------------

 SCF Done:  E(UHF) =  -739.813564067     A.U. after    2 cycles

 The electronic state is 2-A.
 Alpha  occ. eigenvalues -- -105.21904 -75.71103 -13.07818 -13.04193 -13.02802
 Alpha  occ. eigenvalues --   -8.04944  -2.79856  -1.53113  -1.48711  -1.45698
 Alpha  occ. eigenvalues --   -1.05517  -0.71926  -0.32084  -0.28488  -0.28274
 Alpha  occ. eigenvalues --   -0.18392  -0.01699
 Alpha virt. eigenvalues --    0.04261   0.05616   0.07699   0.11666   0.12170
 Alpha virt. eigenvalues --    0.14261   0.15493   0.15930   0.17297   0.19934
 Alpha virt. eigenvalues --    0.22089   0.26403   0.26937   0.28217   0.28843

  Beta  occ. eigenvalues -- -105.21763 -75.70255 -13.07244 -13.02270 -12.99232
  Beta  occ. eigenvalues --   -8.03996  -2.79511  -1.52880  -1.48749  -1.41392
  Beta  occ. eigenvalues --   -0.98060  -0.68872  -0.27277  -0.26807  -0.16464
  Beta  occ. eigenvalues --   -0.11483
  Beta virt. eigenvalues --    0.04105   0.05420   0.07494   0.07747   0.11818
  Beta virt. eigenvalues --    0.12580   0.14649   0.15590   0.16483   0.20215
  Beta virt. eigenvalues --    0.20682   0.22479   0.26791   0.28369   0.28810

 Mulliken charges and spin densities:
               1          2
     1  S   -1.863483   0.572032
     2  P    2.572402   0.286914
     3  H   -0.354460   0.070526
     4  H   -0.354459   0.070527
 Sum of Mulliken charges =   0.00000   1.00000

 Dipole moment (field-independent basis, Debye):
    X=              5.1961    Y=             -0.0000    Z=             -2.4836  Tot=              5.7592
                          Isotropic Fermi Contact Couplings
        Atom                 a.u.       MegaHertz       Gauss      10(-4) cm-1
     1  S(33)              0.38387     131.84767      47.04653      43.97965
     2  P(31)              0.24138     437.15625     155.98822     145.81963
     3  H(1)               0.01423      63.62759      22.70391      21.22388
     4  H(1)               0.01423      63.62750      22.70387      21.22385
 --------------------------------------------------------
       Center         ----  Spin Dipole Couplings  ----
                      3XX-RR        3YY-RR        3ZZ-RR
 --------------------------------------------------------

 Normal termination of Gaussian 16 at Wed Apr  9 00:16:34 2025.
