 Gaussian 16, Revision C.01,

 ----------------------------------------------------------------------
 #t hf aug-cc-pvdz symm=none int=(grid=ultrafine) guess=(read,tcheck) s
 table=opt
 ----------------------------------------------------------------------
 -----
 title
 -----
 Symbolic Z-matrix:
 Charge =  0 Multiplicity = 2

 SCF Done:  E(UHF) =  -217.850391721     A.U. after   15 cycles
 Normal termination of Gaussian 16 at Tue Apr  8 23:55:35 2025.
 Gaussian 16:  ES64L-G16RevC.01  3-Jul-2019

 ----------------------------------------------------------------------
 #t hf aug-cc-pvdz iop(5/13=1,5/36=2,99/5=2) pseudo=read geom=check gue
 ss=(read,tcheck) scf=(maxcycle=1)
 ----------------------------------------------------------------------
 -----
 title
 -----
 Structure from the checkpoint file:  "BDE49_nonexpt_1962_mol2.chk"
 Charge =  0 Multiplicity = 2

                         Standard orientation:
 ---------------------------------------------------------------------
 Center     Atomic      Atomic             Coordinates (Angstroms)
 Number     Number       Type             X           Y           Z
 ---------------------------------------------------------------------
      1          6           0        1.832308   -0.876663    0.000001
      2          5           0        0.543614   -0.038896   -0.000006
      3          8           0       -0.617306   -0.769744   -0.000001
      4          6           0        0.537507    1.543191    0.000000
      5          1           0        1.543002    1.969385    0.000006
      6          1           0        0.010188    1.944305    0.874958
      7          1           0        0.010196    1.944311   -0.874960
      8          6           0       -1.906363   -0.170832    0.000002
      9          1           0       -2.642743   -0.975132    0.000002
     10          1           0       -2.058802    0.449005   -0.889487
     11          1           0       -2.058799    0.449002    0.889494
     12          1           0        2.826679   -0.439243    0.000005
     13          1           0        1.809939   -1.963373    0.000002
 ---------------------------------------------------------------------

 SCF Done:  E(UHF) =  -218.859872169     A.U. after    2 cycles

 The electronic state is 2-A.
 Alpha  occ. eigenvalues --  -21.02032 -11.40346 -11.34897 -11.32958  -7.59853
 Alpha  occ. eigenvalues --   -1.76264  -1.10769  -1.01069  -0.96319  -0.68624
 Alpha  occ. eigenvalues --   -0.61655  -0.61183  -0.59418  -0.54156  -0.53507
 Alpha  occ. eigenvalues --   -0.50207  -0.43572  -0.41419  -0.34584  -0.32282
 Alpha virt. eigenvalues --    0.03115   0.04156   0.04910   0.05197   0.06867
 Alpha virt. eigenvalues --    0.07395   0.07409   0.08456   0.08747   0.08920
 Alpha virt. eigenvalues --    0.09578   0.10025   0.14466   0.15613   0.16565

  Beta  occ. eigenvalues --  -21.01801 -11.40367 -11.33297 -11.32764  -7.59945
  Beta  occ. eigenvalues --   -1.75752  -1.08376  -0.99931  -0.91440  -0.67938
  Beta  occ. eigenvalues --   -0.61226  -0.60880  -0.58610  -0.53845  -0.53232
  Beta  occ. eigenvalues --   -0.49905  -0.42428  -0.36858  -0.34296
  Beta virt. eigenvalues --    0.03182   0.04251   0.04534   0.04975   0.06599
  Beta virt. eigenvalues --    0.06878   0.07401   0.07898   0.08761   0.09055
  Beta virt. eigenvalues --    0.09260   0.09587   0.10087   0.14537   0.15808

 Mulliken charges and spin densities:
               1          2
     1  C   -5.290564   1.280200
     2  B    7.959536  -0.277367
     3  O   -3.791840   0.105947
     4  C   -6.030388   0.010849
     5  H    1.341269  -0.004883
     6  H    0.896199   0.001854
     7  H    0.896204   0.001854
     8  C   -2.681831  -0.009728
     9  H    1.291627  -0.000188
    10  H    1.362485   0.003869
    11  H    1.362485   0.003869
    12  H    1.263166  -0.056953
    13  H    1.421651  -0.059322
 Sum of Mulliken charges =  -0.00000   1.00000

 Dipole moment (field-independent basis, Debye):
    X=             -0.5630    Y=              0.3888    Z=             -0.0000  Tot=              0.6842
                          Isotropic Fermi Contact Couplings
        Atom                 a.u.       MegaHertz       Gauss      10(-4) cm-1
     1  C(13)              0.08708      97.89261      34.93052      32.65346
     2  B(11)             -0.01726     -24.75682      -8.83385      -8.25799
     3  O(17)              0.01165      -7.06117      -2.51960      -2.35535
     4  C(13)             -0.00357      -4.01785      -1.43367      -1.34021
     5  H(1)              -0.00023      -1.03069      -0.36777      -0.34380
     6  H(1)               0.00118       5.26500       1.87868       1.75621
     7  H(1)               0.00118       5.26513       1.87873       1.75626
     8  C(13)             -0.00371      -4.17196      -1.48866      -1.39162

 Normal termination of Gaussian 16 at Tue Apr  8 23:55:38 2025.
