 Gaussian 16, Revision C.01,

 ----------------------------------------------------------------------
 #t hf aug-cc-pvdz symm=none int=(grid=ultrafine) guess=(read,tcheck) s
 table=(opt,rrhf)
 ----------------------------------------------------------------------
 -----
 title
 -----
 Symbolic Z-matrix:
 Charge =  0 Multiplicity = 1

 SCF Done:  E(RHF) =  -1303.35062925     A.U. after   17 cycles
 Normal termination of Gaussian 16 at Tue Apr  8 23:43:20 2025.
 Gaussian 16:  ES64L-G16RevC.01  3-Jul-2019

 ----------------------------------------------------------------------
 #t hf aug-cc-pvdz iop(5/13=1,5/36=2,99/5=2) pseudo=read geom=check gue
 ss=(read,tcheck) scf=(maxcycle=1)
 ----------------------------------------------------------------------
 -----
 title
 -----
 Structure from the checkpoint file:  "BDE49_nonexpt_1649_mol1.chk"
 Charge =  0 Multiplicity = 1

                         Standard orientation:
 ---------------------------------------------------------------------
 Center     Atomic      Atomic             Coordinates (Angstroms)
 Number     Number       Type             X           Y           Z
 ---------------------------------------------------------------------
      1         14           0       -0.486112    0.022040    0.550773
      2          7           0       -1.074722    1.554021   -0.368808
      3         15           0        1.718495   -0.246009    0.099660
      4          7           0       -1.368964   -1.338814   -0.405920
      5          6           0       -1.145780    0.088340    2.267559
      6          8           0       -0.797145   -1.757988   -1.419065
      7          8           0        2.251427   -1.317876    0.941691
      8          8           0       -0.204827    2.369653   -0.686832
      9          8           0        2.385901    1.180374    0.321582
     10          8           0       -2.270390    1.695177   -0.565561
     11          8           0       -2.441685   -1.744980    0.003023
     12          1           0       -0.728581    0.944280    2.803951
     13          1           0       -0.865870   -0.824565    2.799053
     14          1           0       -2.234216    0.169199    2.240404
     15          8           0        1.781064   -0.388722   -1.490273
     16          1           0        1.196095   -1.094439   -1.815783
     17          1           0        2.006431    1.865488   -0.252128
 ---------------------------------------------------------------------

 SCF Done:  E(RHF) =  -1306.51352086     A.U. after    2 cycles

 The electronic state is 1-A.
 Alpha  occ. eigenvalues -- -105.34401 -76.35298 -21.14724 -21.14511 -21.14479
 Alpha  occ. eigenvalues --  -21.14120 -21.13700 -21.13383 -21.05611 -16.01091
 Alpha  occ. eigenvalues --  -16.01024 -11.42711  -5.69306  -2.96491  -2.33300
 Alpha  occ. eigenvalues --   -2.33136  -2.31654  -2.02660  -2.01908  -2.01798
 Alpha  occ. eigenvalues --   -1.93802  -1.80890  -1.72829  -1.72715  -1.54811
 Alpha  occ. eigenvalues --   -1.42703  -1.27914  -1.13757  -1.05489  -1.00297
 Alpha  occ. eigenvalues --   -0.78458  -0.74479  -0.73596  -0.70716  -0.68125
 Alpha  occ. eigenvalues --   -0.64905  -0.64702  -0.63380  -0.63054  -0.62284
 Alpha  occ. eigenvalues --   -0.57550  -0.55498  -0.47415  -0.45160  -0.40190
 Alpha  occ. eigenvalues --   -0.38916  -0.37611  -0.36876  -0.36143  -0.35401
 Alpha  occ. eigenvalues --   -0.35241  -0.34486  -0.30134  -0.26378  -0.18240
 Alpha virt. eigenvalues --    0.02472   0.05324   0.05532   0.05976   0.06212
 Alpha virt. eigenvalues --    0.06923   0.07245   0.08374   0.08559   0.08897
 Alpha virt. eigenvalues --    0.10179   0.10814   0.11036   0.12361   0.13134

 Mulliken charges:
               1
     1  Si   4.685268
     2  N    2.682780
     3  P    7.303822
     4  N    3.442655
     5  C   -5.531313
     6  O   -2.371073
     7  O   -3.201913
     8  O   -2.054651
     9  O   -3.272164
    10  O   -2.215341
    11  O   -2.346791
    12  H    1.157411
    13  H    1.283747
    14  H    1.269184
    15  O   -3.212556
    16  H    1.257302
    17  H    1.123631
 Sum of Mulliken charges =  -0.00000

 Dipole moment (field-independent basis, Debye):
    X=              0.7603    Y=              1.7715    Z=              0.2055  Tot=              1.9386

 Test job not archived.
 1\1\GINC-SE458\SP\RHF\Aug-CC-pVDZ\C1H5N2O7P1Si1\OHZDE\08-Apr-2025\0\\#
 t hf aug-cc-pvdz iop(5/13=1,5/36=2,99/5=2) pseudo=read geom=check gues
 s=(read,tcheck) scf=(maxcycle=1)\\title\\0,1\Si,0,-0.486112,0.02204,0.
 550773\N,0,-1.074723,1.55402,-0.368808\P,0,1.718495,-0.246008,0.09966\
 N,0,-1.368963,-1.338815,-0.40592\C,0,-1.14578,0.088339,2.267559\O,0,-0
 .797144,-1.757988,-1.419065\O,0,2.251428,-1.317875,0.941691\O,0,-0.204
 828,2.369653,-0.686832\O,0,2.385901,1.180375,0.321582\O,0,-2.270391,1.
 695176,-0.565561\O,0,-2.441684,-1.744981,0.003023\H,0,-0.728581,0.9442

 Normal termination of Gaussian 16 at Tue Apr  8 23:43:31 2025.
