 Gaussian 16, Revision C.01,

 ----------------------------------------------------------------------
 #t hf aug-cc-pvdz symm=none int=(grid=ultrafine) guess=(read,tcheck) s
 table=(opt,rrhf)
 ----------------------------------------------------------------------
 -----
 title
 -----
 Symbolic Z-matrix:
 Charge =  0 Multiplicity = 1

 SCF Done:  E(RHF) =  -2127.16225511     A.U. after   10 cycles
 Normal termination of Gaussian 16 at Tue Apr  8 22:59:39 2025.
 Gaussian 16:  ES64L-G16RevC.01  3-Jul-2019

 ----------------------------------------------------------------------
 #t hf aug-cc-pvdz iop(5/13=1,5/36=2,99/5=2) pseudo=read geom=check gue
 ss=(read,tcheck) scf=(maxcycle=1)
 ----------------------------------------------------------------------
 -----
 title
 -----
 Structure from the checkpoint file:  "BDE49_expt_1945_mol1.chk"
 Charge =  0 Multiplicity = 1

                         Standard orientation:
 ---------------------------------------------------------------------
 Center     Atomic      Atomic             Coordinates (Angstroms)
 Number     Number       Type             X           Y           Z
 ---------------------------------------------------------------------
      1         14           0        0.000006    0.000001   -0.000011
      2         17           0       -0.613466    1.941743   -0.155905
      3         17           0       -1.117979   -1.169319   -1.246516
      4         17           0        1.969404   -0.135858   -0.523472
      5         17           0       -0.237963   -0.636566    1.925903
 ---------------------------------------------------------------------

 SCF Done:  E(RHF) =  -2128.27561049     A.U. after    2 cycles

 The electronic state is 1-A.
 Alpha  occ. eigenvalues --  -99.92119 -99.92119 -99.92119 -99.92116 -76.38929
 Alpha  occ. eigenvalues --  -10.49680 -10.49680 -10.49680 -10.49537  -9.69457
 Alpha  occ. eigenvalues --   -9.69457  -9.69457  -9.69404  -9.68938  -9.68938
 Alpha  occ. eigenvalues --   -9.68788  -9.68788  -9.68788  -9.68675  -9.68675
 Alpha  occ. eigenvalues --   -9.68675  -5.72693  -2.34093  -2.34093  -2.34093
 Alpha  occ. eigenvalues --   -1.37187  -1.31592  -1.31592  -1.31592  -0.82589
 Alpha  occ. eigenvalues --   -0.64887  -0.64887  -0.64887  -0.59636  -0.59636
 Alpha  occ. eigenvalues --   -0.56071  -0.56071  -0.56071  -0.53199  -0.53199
 Alpha  occ. eigenvalues --   -0.53199
 Alpha virt. eigenvalues --    0.01740   0.05158   0.05674   0.05674   0.05674
 Alpha virt. eigenvalues --    0.09000   0.09000   0.09000   0.12974   0.12974
 Alpha virt. eigenvalues --    0.13571   0.13571   0.13571   0.14729   0.17128

 Mulliken charges:
               1
     1  Si   2.514108
     2  Cl  -0.628527
     3  Cl  -0.628527
     4  Cl  -0.628527
     5  Cl  -0.628527
 Sum of Mulliken charges =  -0.00000

 Dipole moment (field-independent basis, Debye):
    X=              0.0000    Y=             -0.0000    Z=             -0.0001  Tot=              0.0001

 Test job not archived.
 1\1\GINC-SE457\SP\RHF\Aug-CC-pVDZ\Cl4Si1\OHZDE\08-Apr-2025\0\\#t hf au
 g-cc-pvdz iop(5/13=1,5/36=2,99/5=2) pseudo=read geom=check guess=(read
 ,tcheck) scf=(maxcycle=1)\\title\\0,1\Si,0,0.000006,0.000001,-0.000011
 \Cl,0,-0.639293,1.935848,-0.121695\Cl,0,-1.105025,-1.162601,-1.264225\
 Cl,0,1.969951,-0.100931,-0.529279\Cl,0,-0.225639,-0.672316,1.915208\\V
 ersion=ES64L-G16RevC.01\State=1-A\HF=-2128.2756105\RMSD=1.995e-02\Dipo
 le=0.0000128,-0.0000095,-0.0000292\Quadrupole=0.0000714,-0.000024,-0.0
 000474,0.0000282,0.0000131,0.0000402\PG=C01 [X(Cl4Si1)]\\@

 Normal termination of Gaussian 16 at Tue Apr  8 22:59:42 2025.
