 Gaussian 16, Revision C.01,

 ----------------------------------------------------------------------
 #t hf aug-cc-pvdz symm=none int=(grid=ultrafine) guess=(read,tcheck) s
 table=(opt,rrhf)
 ----------------------------------------------------------------------
 -----
 title
 -----
 Symbolic Z-matrix:
 Charge =  0 Multiplicity = 1

 SCF Done:  E(RHF) =  -2360.14842890     A.U. after   13 cycles

 1\1\GINC-SE247\Stability\RHF\Aug-CC-pVDZ\C1B1Cl5\OHZDE\09-Apr-2025\0\\
 #t hf aug-cc-pvdz symm=none int=(grid=ultrafine) guess=(read,tcheck) s
 table=(opt,rrhf)\\title\\0,1\Cl,0,1.837003,1.508188,-0.114021\Cl,0,1.8
 37003,-1.508187,-0.114021\B,0,0.960956,0.,-0.106412\C,0,-0.647029,0.,-
 0.025786\Cl,0,-1.39685,1.454099,-0.750615\Cl,0,-1.396849,-1.454098,-0.
 750618\Cl,0,-0.934578,-0.000002,1.769673\\Version=ES64L-G16RevC.01\HF=
 -2360.1484289\RMSD=3.785e-09\Dipole=0.1688381,-0.0000014,-0.0663713\Qu
 adrupole=-1.1367867,0.233513,0.9032737,-0.0000065,-0.0281062,0.\PG=Unk

 Normal termination of Gaussian 16 at Wed Apr  9 00:21:45 2025.
 Gaussian 16:  ES64L-G16RevC.01  3-Jul-2019

 ----------------------------------------------------------------------
 #t hf aug-cc-pvdz iop(5/13=1,5/36=2,99/5=2) pseudo=read geom=check gue
 ss=(read,tcheck) scf=(maxcycle=1)
 ----------------------------------------------------------------------
 -----
 title
 -----
 Structure from the checkpoint file:  "BDE49_nonexpt_262_mol1.chk"
 Charge =  0 Multiplicity = 1

                         Standard orientation:
 ---------------------------------------------------------------------
 Center     Atomic      Atomic             Coordinates (Angstroms)
 Number     Number       Type             X           Y           Z
 ---------------------------------------------------------------------
      1         17           0        1.837003    1.508188   -0.114021
      2         17           0        1.837003   -1.508187   -0.114021
      3          5           0        0.960956   -0.000000   -0.106412
      4          6           0       -0.647029    0.000000   -0.025786
      5         17           0       -1.396850    1.454099   -0.750615
      6         17           0       -1.396849   -1.454098   -0.750618
      7         17           0       -0.934578   -0.000002    1.769673
 ---------------------------------------------------------------------

 SCF Done:  E(RHF) =  -2361.65959640     A.U. after    2 cycles

 The electronic state is 1-A.
 Alpha  occ. eigenvalues --  -99.92967 -99.92508 -99.92493 -99.92250 -99.92234
 Alpha  occ. eigenvalues --  -11.54241 -10.50258 -10.49937 -10.49711 -10.49684
 Alpha  occ. eigenvalues --  -10.49457  -9.70149  -9.69770  -9.69642  -9.69630
 Alpha  occ. eigenvalues --   -9.69450  -9.69381  -9.69363  -9.69028  -9.69025
 Alpha  occ. eigenvalues --   -9.68982  -9.68965  -9.68883  -9.68809  -9.68785
 Alpha  occ. eigenvalues --   -9.68779  -7.75088  -1.48792  -1.40134  -1.32376
 Alpha  occ. eigenvalues --   -1.31660  -1.31267  -1.02858  -0.83694  -0.73101
 Alpha  occ. eigenvalues --   -0.71793  -0.71063  -0.63355  -0.61070  -0.57261
 Alpha  occ. eigenvalues --   -0.57195  -0.55866  -0.54007  -0.53616  -0.52099
 Alpha  occ. eigenvalues --   -0.51287  -0.49958  -0.47192
 Alpha virt. eigenvalues --   -0.01292   0.00979   0.03534   0.04213   0.04544
 Alpha virt. eigenvalues --    0.05041   0.06263   0.08314   0.10157   0.11189
 Alpha virt. eigenvalues --    0.11924   0.12593   0.14297   0.14842   0.14916

 Mulliken charges:
               1
     1  Cl  -1.151785
     2  Cl  -1.151785
     3  B    4.347001
     4  C   -2.745948
     5  Cl   0.162350
     6  Cl   0.162350
     7  Cl   0.377817
 Sum of Mulliken charges =  -0.00000

 Dipole moment (field-independent basis, Debye):
    X=              0.6480    Y=             -0.0000    Z=             -0.1217  Tot=              0.6593

 Test job not archived.
 1\1\GINC-SE247\SP\RHF\Aug-CC-pVDZ\C1B1Cl5\OHZDE\09-Apr-2025\0\\#t hf a
 ug-cc-pvdz iop(5/13=1,5/36=2,99/5=2) pseudo=read geom=check guess=(rea
 d,tcheck) scf=(maxcycle=1)\\title\\0,1\Cl,0,1.837003,1.508188,-0.11402
 1\Cl,0,1.837003,-1.508187,-0.114021\B,0,0.960956,0.,-0.106412\C,0,-0.6
 47029,0.,-0.025786\Cl,0,-1.39685,1.454099,-0.750615\Cl,0,-1.396849,-1.
 454098,-0.750618\Cl,0,-0.934578,-0.000002,1.769673\\Version=ES64L-G16R
 evC.01\State=1-A\HF=-2361.6595964\RMSD=4.789e-02\Dipole=0.254927,-0.00
 00013,-0.0478725\Quadrupole=-1.6357043,1.2609587,0.3747456,-0.0000065,

 Normal termination of Gaussian 16 at Wed Apr  9 00:21:49 2025.
