 Gaussian 16, Revision C.01,

 ----------------------------------------------------------------------
 #t hf aug-cc-pvdz symm=none int=(grid=ultrafine) guess=(read,tcheck) s
 table=(opt,rrhf)
 ----------------------------------------------------------------------
 -----
 title
 -----
 Symbolic Z-matrix:
 Charge =  0 Multiplicity = 1

 SCF Done:  E(RHF) =  -454.184068974     A.U. after   13 cycles
 Normal termination of Gaussian 16 at Wed Apr  9 00:42:29 2025.
 Gaussian 16:  ES64L-G16RevC.01  3-Jul-2019

 ----------------------------------------------------------------------
 #t hf aug-cc-pvdz iop(5/13=1,5/36=2,99/5=2) pseudo=read geom=check gue
 ss=(read,tcheck) scf=(maxcycle=1)
 ----------------------------------------------------------------------
 -----
 title
 -----
 Structure from the checkpoint file:  "BDE49_nonexpt_679_mol1.chk"
 Charge =  0 Multiplicity = 1

                         Standard orientation:
 ---------------------------------------------------------------------
 Center     Atomic      Atomic             Coordinates (Angstroms)
 Number     Number       Type             X           Y           Z
 ---------------------------------------------------------------------
      1          5           0       -1.645134   -0.049959   -0.037392
      2          8           0       -0.575648   -0.639047    0.514466
      3          9           0       -1.782113    1.275480   -0.120115
      4          9           0       -2.628875   -0.801562   -0.515680
      5          6           0        0.543799    0.131986    1.009461
      6          6           0        1.681090    0.115838    0.019961
      7          6           0        2.157843    1.257798   -0.474471
      8          6           0        2.226469   -1.239363   -0.342141
      9          1           0        2.991148    1.272146   -1.168687
     10          1           0        1.732839    2.217398   -0.200445
     11          1           0        3.026463   -1.164298   -1.080074
     12          1           0        2.620647   -1.749736    0.544245
     13          1           0        1.435816   -1.877280   -0.746880
     14          1           0        0.838585   -0.353037    1.944154
     15          1           0        0.229039    1.154160    1.224213
 ---------------------------------------------------------------------

 SCF Done:  E(RHF) =  -456.040598224     A.U. after    2 cycles

 The electronic state is 1-A.
 Alpha  occ. eigenvalues --  -29.25697 -29.24918 -21.04708 -11.46535 -11.42234
 Alpha  occ. eigenvalues --  -11.39488 -11.37152  -7.71658  -1.82477  -1.25140
 Alpha  occ. eigenvalues --   -1.10193  -1.01163  -0.96272  -0.79058  -0.75991
 Alpha  occ. eigenvalues --   -0.67512  -0.64811  -0.62539  -0.57545  -0.56412
 Alpha  occ. eigenvalues --   -0.54926  -0.52345  -0.50193  -0.47557  -0.44849
 Alpha  occ. eigenvalues --   -0.42039  -0.36237  -0.34379  -0.33724  -0.28658
 Alpha  occ. eigenvalues --   -0.26069
 Alpha virt. eigenvalues --    0.00264   0.03217   0.04317   0.05448   0.05675
 Alpha virt. eigenvalues --    0.05784   0.06273   0.06517   0.06919   0.09082
 Alpha virt. eigenvalues --    0.09519   0.11713   0.12149   0.13755   0.14230

 Mulliken charges:
               1
     1  B    2.598979
     2  O   -3.392296
     3  F   -1.051004
     4  F   -0.235241
     5  C   -1.638499
     6  C    2.037331
     7  C   -4.402364
     8  C   -4.253748
     9  H    1.613141
    10  H    1.531230
    11  H    1.327909
    12  H    1.184902
    13  H    1.306320
    14  H    1.295887
    15  H    2.077454
 Sum of Mulliken charges =   0.00000

 Dipole moment (field-independent basis, Debye):
    X=             -0.9305    Y=              1.5114    Z=             -0.6924  Tot=              1.9052

 Test job not archived.
 1\1\GINC-SE039\SP\RHF\Aug-CC-pVDZ\C4H7B1F2O1\OHZDE\09-Apr-2025\0\\#t h
 f aug-cc-pvdz iop(5/13=1,5/36=2,99/5=2) pseudo=read geom=check guess=(
 read,tcheck) scf=(maxcycle=1)\\title\\0,1\B,0,-1.645134,-0.049959,-0.0
 37392\O,0,-0.575648,-0.639047,0.514466\F,0,-1.782113,1.27548,-0.120115
 \F,0,-2.628875,-0.801562,-0.51568\C,0,0.543799,0.131986,1.009461\C,0,1
 .68109,0.115838,0.019961\C,0,2.157843,1.257798,-0.474471\C,0,2.226469,
 -1.239363,-0.342141\H,0,2.991148,1.272146,-1.168687\H,0,1.732839,2.217
 398,-0.200445\H,0,3.026463,-1.164298,-1.080074\H,0,2.620647,-1.749736,

 Normal termination of Gaussian 16 at Wed Apr  9 00:42:36 2025.
