 Gaussian 16, Revision C.01,

 ----------------------------------------------------------------------
 #t hf aug-cc-pvdz symm=none int=(grid=ultrafine) guess=(read,tcheck) s
 table=opt
 ----------------------------------------------------------------------
 -----
 title
 -----
 Symbolic Z-matrix:
 Charge =  0 Multiplicity = 2

 SCF Done:  E(UHF) =  -192.521240887     A.U. after   24 cycles
 Normal termination of Gaussian 16 at Tue Apr  8 22:42:33 2025.
 Gaussian 16:  ES64L-G16RevC.01  3-Jul-2019

 ----------------------------------------------------------------------
 #t hf aug-cc-pvdz iop(5/13=1,5/36=2,99/5=2) pseudo=read geom=check gue
 ss=(read,tcheck) scf=(maxcycle=1)
 ----------------------------------------------------------------------
 -----
 title
 -----
 Structure from the checkpoint file:  "BDE49_expt_1382_mol2.chk"
 Charge =  0 Multiplicity = 2

                         Standard orientation:
 ---------------------------------------------------------------------
 Center     Atomic      Atomic             Coordinates (Angstroms)
 Number     Number       Type             X           Y           Z
 ---------------------------------------------------------------------
      1          8           0       -1.470194   -0.688541   -0.191119
      2          6           0       -0.854841    0.445313    0.258301
      3          6           0        0.573179    0.667724   -0.251980
      4          1           0       -0.857204    0.346972    1.366202
      5          1           0       -1.505492    1.320766    0.074949
      6          6           0        1.514019   -0.483713    0.106092
      7          1           0        0.945910    1.613802    0.157833
      8          1           0        0.530604    0.792652   -1.339367
      9          1           0        1.641418   -0.569321    1.190145
     10          1           0        2.503152   -0.342560   -0.335842
     11          1           0        1.109022   -1.429927   -0.259439
 ---------------------------------------------------------------------

 SCF Done:  E(UHF) =  -193.387339069     A.U. after    2 cycles

 The electronic state is 2-A.
 Alpha  occ. eigenvalues --  -21.10731 -11.43117 -11.39301 -11.35440  -1.71787
 Alpha  occ. eigenvalues --   -1.17935  -0.97059  -0.83574  -0.65920  -0.63608
 Alpha  occ. eigenvalues --   -0.58563  -0.52643  -0.49047  -0.48214  -0.45792
 Alpha  occ. eigenvalues --   -0.39226  -0.33253
 Alpha virt. eigenvalues --    0.03925   0.05394   0.05780   0.06060   0.06187
 Alpha virt. eigenvalues --    0.06794   0.07442   0.11139   0.11732   0.14159
 Alpha virt. eigenvalues --    0.14540   0.15430   0.15696   0.17593   0.18013

  Beta  occ. eigenvalues --  -21.07011 -11.43335 -11.39349 -11.35457  -1.60243
  Beta  occ. eigenvalues --   -1.17149  -0.95988  -0.82528  -0.63537  -0.63094
  Beta  occ. eigenvalues --   -0.56507  -0.51676  -0.48687  -0.47147  -0.44247
  Beta  occ. eigenvalues --   -0.30278
  Beta virt. eigenvalues --    0.03910   0.05398   0.05775   0.05971   0.06168
  Beta virt. eigenvalues --    0.06791   0.07452   0.10129   0.11486   0.14105
  Beta virt. eigenvalues --    0.14347   0.14687   0.15439   0.16274   0.17635

 Mulliken charges and spin densities:
               1          2
     1  O   -1.816145   1.132121
     2  C   -0.771785  -0.314922
     3  C   -3.119425   0.035454
     4  H    1.459079   0.097378
     5  H    1.272319   0.051241
     6  C   -3.549279   0.002493
     7  H    1.384817   0.000820
     8  H    1.383007  -0.000972
     9  H    1.249169   0.000982
    10  H    1.166326  -0.000797
    11  H    1.341918  -0.003798
 Sum of Mulliken charges =   0.00000   1.00000

 Dipole moment (field-independent basis, Debye):
    X=              0.4607    Y=              0.7505    Z=              0.2817  Tot=              0.9246
                          Isotropic Fermi Contact Couplings
        Atom                 a.u.       MegaHertz       Gauss      10(-4) cm-1
     1  O(17)              0.19075    -115.63419     -41.26115     -38.57141
     2  C(13)             -0.03105     -34.90797     -12.45603     -11.64404
     3  C(13)              0.00013       0.15100       0.05388       0.05037
     4  H(1)               0.02665     119.11795      42.50425      39.73347
     5  H(1)               0.01379      61.61737      21.98661      20.55334
     6  C(13)             -0.00129      -1.45349      -0.51864      -0.48483
     7  H(1)              -0.00053      -2.37378      -0.84702      -0.79181
     8  H(1)              -0.00053      -2.34956      -0.83838      -0.78373

 Normal termination of Gaussian 16 at Tue Apr  8 22:42:36 2025.
