 Gaussian 16, Revision C.01,

 ----------------------------------------------------------------------
 #t hf aug-cc-pvdz symm=none int=(grid=ultrafine) guess=(read,tcheck) s
 table=(opt,rrhf)
 ----------------------------------------------------------------------
 -----
 title
 -----
 Symbolic Z-matrix:
 Charge =  0 Multiplicity = 1

 SCF Done:  E(RHF) =  -879.308283447     A.U. after   15 cycles
 Normal termination of Gaussian 16 at Wed Apr  9 00:15:03 2025.
 Gaussian 16:  ES64L-G16RevC.01  3-Jul-2019

 ----------------------------------------------------------------------
 #t hf aug-cc-pvdz iop(5/13=1,5/36=2,99/5=2) pseudo=read geom=check gue
 ss=(read,tcheck) scf=(maxcycle=1)
 ----------------------------------------------------------------------
 -----
 title
 -----
 Structure from the checkpoint file:  "BDE49_nonexpt_2478_mol1.chk"
 Charge =  0 Multiplicity = 1

                         Standard orientation:
 ---------------------------------------------------------------------
 Center     Atomic      Atomic             Coordinates (Angstroms)
 Number     Number       Type             X           Y           Z
 ---------------------------------------------------------------------
      1          6           0       -2.518235    0.009565   -0.000000
      2          6           0       -1.877113   -1.235344   -0.000000
      3          6           0       -0.495851   -1.454264   -0.000000
      4          6           0       -1.864454    1.246725   -0.000000
      5          6           0       -0.480059    1.451437   -0.000000
      6         14           0        0.510839   -0.007238   -0.000000
      7          1           0       -3.602208    0.015352   -0.000000
      8          1           0       -2.520365   -2.113206   -0.000000
      9          1           0       -0.127196   -2.473174   -0.000000
     10          1           0       -2.497724    2.131864   -0.000000
     11          1           0       -0.101398    2.466841   -0.000000
     12         16           0        2.645844   -0.080843   -0.000000
     13          1           0        2.777927    1.258425    0.000004
 ---------------------------------------------------------------------

 SCF Done:  E(RHF) =  -880.605695867     A.U. after    2 cycles

 The electronic state is 1-A.
 Alpha  occ. eigenvalues --  -76.23316 -75.71319 -13.16699 -13.10202 -13.04291
 Alpha  occ. eigenvalues --  -11.46809 -11.42990 -11.39167 -11.38919 -11.36063
 Alpha  occ. eigenvalues --   -8.05256  -5.57999  -2.23857  -2.22502  -2.16284
 Alpha  occ. eigenvalues --   -1.27031  -1.12862  -1.09710  -0.98289  -0.82858
 Alpha  occ. eigenvalues --   -0.75874  -0.69138  -0.60468  -0.59269  -0.53712
 Alpha  occ. eigenvalues --   -0.51145  -0.49003  -0.47131  -0.39397  -0.36172
 Alpha  occ. eigenvalues --   -0.35131  -0.32506  -0.24366
 Alpha virt. eigenvalues --    0.02439   0.04052   0.04614   0.05864   0.05953
 Alpha virt. eigenvalues --    0.07338   0.07405   0.07765   0.08290   0.09250
 Alpha virt. eigenvalues --    0.09645   0.11506   0.11512   0.13243   0.13323

 Mulliken charges:
               1
     1  C    0.256460
     2  C   -1.323012
     3  C   -3.514097
     4  C   -1.298707
     5  C   -3.592071
     6  Si   4.297615
     7  H    1.459643
     8  H    1.439912
     9  H    1.245477
    10  H    1.443635
    11  H    1.278664
    12  S   -2.546892
    13  H    0.853372
 Sum of Mulliken charges =   0.00000

 Dipole moment (field-independent basis, Debye):
    X=              2.6023    Y=             -0.9737    Z=             -0.0000  Tot=              2.7785

 Test job not archived.
 1\1\GINC-SE080\SP\RHF\Aug-CC-pVDZ\C5H6S1Si1\OHZDE\09-Apr-2025\0\\#t hf
  aug-cc-pvdz iop(5/13=1,5/36=2,99/5=2) pseudo=read geom=check guess=(r
 ead,tcheck) scf=(maxcycle=1)\\title\\0,1\C,0,-2.518235,0.009565,0.\C,0
 ,-1.877113,-1.235344,0.\C,0,-0.495851,-1.454264,0.\C,0,-1.864454,1.246
 725,0.\C,0,-0.480059,1.451437,0.\Si,0,0.510839,-0.007238,0.\H,0,-3.602
 208,0.015352,0.\H,0,-2.520365,-2.113206,0.\H,0,-0.127196,-2.473174,0.\
 H,0,-2.497724,2.131864,0.\H,0,-0.101398,2.466841,0.\S,0,2.645844,-0.08
 0843,0.\H,0,2.777927,1.258425,0.000004\\Version=ES64L-G16RevC.01\State

 Normal termination of Gaussian 16 at Wed Apr  9 00:15:08 2025.
