 Gaussian 16, Revision C.01,

 ----------------------------------------------------------------------
 #t hf aug-cc-pvdz symm=none int=(grid=ultrafine) guess=(read,tcheck) s
 table=opt
 ----------------------------------------------------------------------
 -----
 title
 -----
 Symbolic Z-matrix:
 Charge =  0 Multiplicity = 2

 SCF Done:  E(UHF) =  -192.525107026     A.U. after   16 cycles
 Normal termination of Gaussian 16 at Tue Apr  8 22:42:32 2025.
 Gaussian 16:  ES64L-G16RevC.01  3-Jul-2019

 ----------------------------------------------------------------------
 #t hf aug-cc-pvdz iop(5/13=1,5/36=2,99/5=2) pseudo=read geom=check gue
 ss=(read,tcheck) scf=(maxcycle=1)
 ----------------------------------------------------------------------
 -----
 title
 -----
 Structure from the checkpoint file:  "BDE49_expt_1383_mol2.chk"
 Charge =  0 Multiplicity = 2

                         Standard orientation:
 ---------------------------------------------------------------------
 Center     Atomic      Atomic             Coordinates (Angstroms)
 Number     Number       Type             X           Y           Z
 ---------------------------------------------------------------------
      1          6           0       -0.000000    0.123971   -0.294869
      2          8           0       -0.000001    1.422078    0.145834
      3          6           0       -1.288603   -0.627064    0.078050
      4          1           0       -1.334427   -0.770428    1.161079
      5          1           0       -1.325982   -1.610108   -0.398691
      6          1           0       -2.161885   -0.049418   -0.229337
      7          6           0        1.288605   -0.627063    0.078050
      8          1           0       -0.000000    0.264218   -1.400151
      9          1           0        1.325984   -1.610106   -0.398691
     10          1           0        1.334429   -0.770426    1.161079
     11          1           0        2.161885   -0.049414   -0.229337
 ---------------------------------------------------------------------

 SCF Done:  E(UHF) =  -193.394021052     A.U. after    2 cycles

 The electronic state is 2-A.
 Alpha  occ. eigenvalues --  -21.10307 -11.43800 -11.39072 -11.36100  -1.71970
 Alpha  occ. eigenvalues --   -1.15553  -1.01534  -0.82406  -0.66160  -0.59589
 Alpha  occ. eigenvalues --   -0.59109  -0.54382  -0.51817  -0.48902  -0.45416
 Alpha  occ. eigenvalues --   -0.38646  -0.32914
 Alpha virt. eigenvalues --    0.03744   0.05817   0.05840   0.05991   0.06282
 Alpha virt. eigenvalues --    0.06688   0.07227   0.10858   0.12592   0.14276
 Alpha virt. eigenvalues --    0.14637   0.15475   0.15508   0.17253   0.18264

  Beta  occ. eigenvalues --  -21.06596 -11.44032 -11.39009 -11.36087  -1.60624
  Beta  occ. eigenvalues --   -1.13820  -1.01425  -0.80640  -0.63848  -0.59118
  Beta  occ. eigenvalues --   -0.58826  -0.54382  -0.48585  -0.48400  -0.43381
  Beta  occ. eigenvalues --   -0.29969
  Beta virt. eigenvalues --    0.03375   0.05839   0.05850   0.06001   0.06213
  Beta virt. eigenvalues --    0.06689   0.07229   0.09629   0.12218   0.13973
  Beta virt. eigenvalues --    0.14492   0.14674   0.15483   0.17282   0.17570

 Mulliken charges and spin densities:
               1          2
     1  C    0.270521  -0.350846
     2  O   -2.182193   1.157251
     3  C   -3.520900   0.034915
     4  H    1.206845   0.010961
     5  H    1.269869   0.000316
     6  H    1.209645  -0.002100
     7  C   -3.520903   0.034915
     8  H    1.580757   0.105411
     9  H    1.269870   0.000316
    10  H    1.206844   0.010961
    11  H    1.209645  -0.002100
 Sum of Mulliken charges =   0.00000   1.00000

 Dipole moment (field-independent basis, Debye):
    X=              0.0000    Y=             -0.8643    Z=             -0.4148  Tot=              0.9586
                          Isotropic Fermi Contact Couplings
        Atom                 a.u.       MegaHertz       Gauss      10(-4) cm-1
     1  C(13)             -0.03117     -35.03899     -12.50278     -11.68775
     2  O(17)              0.19250    -116.69086     -41.63820     -38.92388
     3  C(13)              0.01059      11.90278       4.24721       3.97034
     4  H(1)              -0.00066      -2.94473      -1.05075      -0.98225
     5  H(1)              -0.00067      -3.01554      -1.07602      -1.00588
     6  H(1)              -0.00049      -2.20590      -0.78712      -0.73581
     7  C(13)              0.01059      11.90275       4.24720       3.97033
     8  H(1)               0.02731     122.05116      43.55089      40.71188

 Normal termination of Gaussian 16 at Tue Apr  8 22:42:35 2025.
