 Gaussian 16, Revision C.01,

 ----------------------------------------------------------------------
 #t hf aug-cc-pvdz symm=none int=(grid=ultrafine) guess=(read,tcheck) s
 table=(opt,rrhf)
 ----------------------------------------------------------------------
 -----
 title
 -----
 Symbolic Z-matrix:
 Charge =  0 Multiplicity = 1

 SCF Done:  E(RHF) =  -1221.81061305     A.U. after   17 cycles
 Normal termination of Gaussian 16 at Tue Apr  8 23:29:24 2025.
 Gaussian 16:  ES64L-G16RevC.01  3-Jul-2019

 ----------------------------------------------------------------------
 #t hf aug-cc-pvdz iop(5/13=1,5/36=2,99/5=2) pseudo=read geom=check gue
 ss=(read,tcheck) scf=(maxcycle=1)
 ----------------------------------------------------------------------
 -----
 title
 -----
 Structure from the checkpoint file:  "BDE49_nonexpt_1234_mol1.chk"
 Charge =  0 Multiplicity = 1

                         Standard orientation:
 ---------------------------------------------------------------------
 Center     Atomic      Atomic             Coordinates (Angstroms)
 Number     Number       Type             X           Y           Z
 ---------------------------------------------------------------------
      1          6           0       -1.508339    2.025055   -1.165005
      2          1           0       -2.466259    2.505607   -1.370929
      3          1           0       -0.989820    1.881907   -2.118103
      4          1           0       -0.902595    2.710094   -0.567125
      5         17           0        2.015741   -1.624258   -0.850044
      6          8           0        1.147896    2.144416    0.954735
      7         15           0        1.008264    0.238144   -0.864087
      8          6           0        2.772116    0.482705    1.547707
      9          1           0        3.015163    1.167133    2.360973
     10          1           0        3.653289    0.303655    0.925796
     11          1           0        2.467602   -0.488376    1.946960
     12          6           0       -0.666864   -0.202591   -0.209361
     13          6           0        1.662497    1.077166    0.721265
     14          6           0       -1.717069    0.713401   -0.443747
     15          6           0       -0.919812   -1.397840    0.472700
     16          1           0       -0.116628   -2.105392    0.634301
     17          6           0       -3.236924   -0.802439    0.711177
     18          1           0       -4.238139   -1.027482    1.061119
     19          6           0       -2.991022    0.386062    0.031448
     20          1           0       -3.805732    1.080725   -0.143874
     21          6           0       -2.197239   -1.700021    0.931985
     22          1           0       -2.375658   -2.631972    1.456032
 ---------------------------------------------------------------------

 SCF Done:  E(RHF) =  -1224.23379580     A.U. after    2 cycles

 The electronic state is 1-A.
 Alpha  occ. eigenvalues -- -105.23597 -99.89383 -21.07495 -11.52628 -11.50262
 Alpha  occ. eigenvalues --  -11.45679 -11.44426 -11.42310 -11.41755 -11.40059
 Alpha  occ. eigenvalues --  -11.38987 -11.37010 -10.46639  -9.66585  -9.66055
 Alpha  occ. eigenvalues --   -9.65985  -2.81453  -1.73344  -1.56920  -1.51759
 Alpha  occ. eigenvalues --   -1.50914  -1.34805  -1.23501  -1.15247  -1.11633
 Alpha  occ. eigenvalues --   -1.08811  -0.99842  -0.87293  -0.84454  -0.79169
 Alpha  occ. eigenvalues --   -0.70870  -0.68117  -0.62956  -0.61262  -0.60399
 Alpha  occ. eigenvalues --   -0.60085  -0.57988  -0.57148  -0.54530  -0.53747
 Alpha  occ. eigenvalues --   -0.52628  -0.51589  -0.50012  -0.49056  -0.44760
 Alpha  occ. eigenvalues --   -0.44639  -0.44250  -0.35595  -0.34406  -0.32733
 Alpha  occ. eigenvalues --   -0.18733  -0.04020
 Alpha virt. eigenvalues --    0.03495   0.04748   0.05110   0.05524   0.06263
 Alpha virt. eigenvalues --    0.06695   0.06979   0.07133   0.07554   0.08420
 Alpha virt. eigenvalues --    0.09219   0.09673   0.09825   0.10508   0.10813

 Mulliken charges:
               1
     1  C   -5.640803
     2  H    1.154673
     3  H    1.593418
     4  H    1.218207
     5  Cl  -1.257805
     6  O   -3.188819
     7  P    3.991885
     8  C   -4.279395
     9  H    1.269867
    10  H    1.293075
    11  H    1.247515
    12  C    2.558420
    13  C    1.271133
    14  C    0.379875
    15  C   -3.291999
    16  H    2.038166
    17  C   -2.377449
    18  H    1.504726
    19  C   -1.079996
    20  H    1.769983
    21  C   -1.716121
    22  H    1.541446
 Sum of Mulliken charges =   0.00000

 Dipole moment (field-independent basis, Debye):
    X=             -1.7597    Y=              1.7406    Z=             -1.6099  Tot=              2.9526

 Test job not archived.
 1\1\GINC-SE106\SP\RHF\Aug-CC-pVDZ\C9H10Cl1O1P1\OHZDE\08-Apr-2025\0\\#t
  hf aug-cc-pvdz iop(5/13=1,5/36=2,99/5=2) pseudo=read geom=check guess
 =(read,tcheck) scf=(maxcycle=1)\\title\\0,1\C,0,-1.508339,2.025055,-1.
 165005\H,0,-2.466259,2.505607,-1.370929\H,0,-0.98982,1.881907,-2.11810
 3\H,0,-0.902595,2.710094,-0.567125\Cl,0,2.015741,-1.624258,-0.850044\O
 ,0,1.147896,2.144416,0.954735\P,0,1.008264,0.238144,-0.864087\C,0,2.77
 2116,0.482705,1.547707\H,0,3.015163,1.167132,2.360973\H,0,3.653289,0.3
 03654,0.925796\H,0,2.467602,-0.488376,1.94696\C,0,-0.666864,-0.202591,

 Normal termination of Gaussian 16 at Tue Apr  8 23:29:43 2025.
