 Gaussian 16, Revision C.01,

 ----------------------------------------------------------------------
 #t hf aug-cc-pvdz symm=none int=(grid=ultrafine) guess=(read,tcheck) s
 table=(opt,rrhf)
 ----------------------------------------------------------------------
 -----
 title
 -----
 Symbolic Z-matrix:
 Charge =  0 Multiplicity = 1

 SCF Done:  E(RHF) =  -554.843094139     A.U. after   12 cycles

 1\1\GINC-SE073\Stability\RHF\Aug-CC-pVDZ\C4H10S1\OHZDE\08-Apr-2025\0\\
 #t hf aug-cc-pvdz symm=none int=(grid=ultrafine) guess=(read,tcheck) s
 table=(opt,rrhf)\\title\\0,1\S,0,-0.770179,-0.708065,-0.321855\C,0,0.7
 28142,0.125445,0.366015\C,0,1.911757,-0.823505,0.161263\H,0,2.821656,-
 0.382517,0.578762\H,0,2.08703,-1.006447,-0.902988\H,0,1.741893,-1.7854
 26,0.649236\C,0,0.982685,1.496998,-0.260207\H,0,0.547641,0.239725,1.43
 9895\H,0,0.14261,2.178517,-0.110567\H,0,1.155994,1.403563,-1.335412\H,
 0,1.86666,1.960107,0.19195\C,0,-2.101034,0.370205,0.297929\H,0,-2.0634

 Normal termination of Gaussian 16 at Tue Apr  8 22:46:45 2025.
 Gaussian 16:  ES64L-G16RevC.01  3-Jul-2019

 ----------------------------------------------------------------------
 #t hf aug-cc-pvdz iop(5/13=1,5/36=2,99/5=2) pseudo=read geom=check gue
 ss=(read,tcheck) scf=(maxcycle=1)
 ----------------------------------------------------------------------
 -----
 title
 -----
 Structure from the checkpoint file:  "BDE49_expt_1566_mol1.chk"
 Charge =  0 Multiplicity = 1

                         Standard orientation:
 ---------------------------------------------------------------------
 Center     Atomic      Atomic             Coordinates (Angstroms)
 Number     Number       Type             X           Y           Z
 ---------------------------------------------------------------------
      1         16           0       -0.770179   -0.708065   -0.321855
      2          6           0        0.728142    0.125445    0.366015
      3          6           0        1.911757   -0.823505    0.161263
      4          1           0        2.821656   -0.382517    0.578762
      5          1           0        2.087030   -1.006447   -0.902988
      6          1           0        1.741893   -1.785426    0.649236
      7          6           0        0.982685    1.496998   -0.260207
      8          1           0        0.547641    0.239725    1.439895
      9          1           0        0.142610    2.178517   -0.110567
     10          1           0        1.155994    1.403563   -1.335412
     11          1           0        1.866660    1.960107    0.191950
     12          6           0       -2.101034    0.370205    0.297929
     13          1           0       -2.063487    1.364452   -0.148768
     14          1           0       -2.066448    0.447236    1.386493
     15          1           0       -3.039989   -0.105020    0.011081
 ---------------------------------------------------------------------

 SCF Done:  E(RHF) =  -555.908179803     A.U. after    2 cycles

 The electronic state is 1-A.
 Alpha  occ. eigenvalues --  -75.66359 -13.10673 -13.07342 -13.01086 -11.42477
 Alpha  occ. eigenvalues --  -11.38873 -11.38589 -11.35928  -8.00395  -1.27225
 Alpha  occ. eigenvalues --   -1.11829  -1.00652  -0.93696  -0.80628  -0.63394
 Alpha  occ. eigenvalues --   -0.60890  -0.58443  -0.57438  -0.55379  -0.53757
 Alpha  occ. eigenvalues --   -0.48031  -0.47084  -0.40786  -0.34274  -0.21670
 Alpha virt. eigenvalues --    0.03575   0.03954   0.05384   0.05707   0.06322
 Alpha virt. eigenvalues --    0.06548   0.07025   0.07296   0.08061   0.09423
 Alpha virt. eigenvalues --    0.10246   0.12698   0.13228   0.13932   0.15201

 Mulliken charges:
               1
     1  S    0.964671
     2  C   -2.499084
     3  C   -3.557467
     4  H    1.188786
     5  H    1.345843
     6  H    1.299803
     7  C   -3.790538
     8  H    1.726647
     9  H    1.305364
    10  H    1.385825
    11  H    1.202004
    12  C   -4.884760
    13  H    1.614437
    14  H    1.377957
    15  H    1.320513
 Sum of Mulliken charges =  -0.00000

 Dipole moment (field-independent basis, Debye):
    X=              0.0655    Y=             -0.1689    Z=              0.1312  Tot=              0.2237

 Test job not archived.
 1\1\GINC-SE073\SP\RHF\Aug-CC-pVDZ\C4H10S1\OHZDE\08-Apr-2025\0\\#t hf a
 ug-cc-pvdz iop(5/13=1,5/36=2,99/5=2) pseudo=read geom=check guess=(rea
 d,tcheck) scf=(maxcycle=1)\\title\\0,1\S,0,-0.770179,-0.708065,-0.3218
 55\C,0,0.728142,0.125445,0.366015\C,0,1.911757,-0.823505,0.161263\H,0,
 2.821656,-0.382517,0.578762\H,0,2.08703,-1.006447,-0.902988\H,0,1.7418
 93,-1.785426,0.649236\C,0,0.982685,1.496998,-0.260207\H,0,0.547641,0.2
 39725,1.439895\H,0,0.14261,2.178517,-0.110567\H,0,1.155994,1.403563,-1
 .335412\H,0,1.86666,1.960107,0.19195\C,0,-2.101034,0.370205,0.297929\H

 Normal termination of Gaussian 16 at Tue Apr  8 22:46:50 2025.
