 Gaussian 16, Revision C.01,

 ----------------------------------------------------------------------
 #t hf aug-cc-pvdz symm=none int=(grid=ultrafine) guess=(read,tcheck) s
 table=(opt,rrhf)
 ----------------------------------------------------------------------
 -----
 title
 -----
 Symbolic Z-matrix:
 Charge =  0 Multiplicity = 1

 SCF Done:  E(RHF) =  -522.343279577     A.U. after   11 cycles
 Normal termination of Gaussian 16 at Tue Apr  8 22:44:55 2025.
 Gaussian 16:  ES64L-G16RevC.01  3-Jul-2019

 ----------------------------------------------------------------------
 #t hf aug-cc-pvdz iop(5/13=1,5/36=2,99/5=2) pseudo=read geom=check gue
 ss=(read,tcheck) scf=(maxcycle=1)
 ----------------------------------------------------------------------
 -----
 title
 -----
 Structure from the checkpoint file:  "BDE49_expt_1490_mol1.chk"
 Charge =  0 Multiplicity = 1

                         Standard orientation:
 ---------------------------------------------------------------------
 Center     Atomic      Atomic             Coordinates (Angstroms)
 Number     Number       Type             X           Y           Z
 ---------------------------------------------------------------------
      1          6           0       -2.366899    0.000000    0.210673
      2          8           0       -1.078178   -0.000001    0.797505
      3          1           0       -2.532496   -0.890548   -0.408700
      4          1           0       -2.532495    0.890549   -0.408699
      5          1           0       -3.106915   -0.000001    1.013774
      6         14           0        0.378127   -0.000000   -0.002362
      7          6           0        1.669302   -0.000002    1.349501
      8          1           0        1.568110    0.883696    1.985638
      9          1           0        2.680636   -0.000001    0.930914
     10          1           0        1.568110   -0.883701    1.985636
     11          6           0        0.535242   -1.532906   -1.079695
     12          1           0        0.440027   -2.446817   -0.485847
     13          1           0        1.511672   -1.557830   -1.574623
     14          1           0       -0.227012   -1.562008   -1.864659
     15          6           0        0.535243    1.532909   -1.079692
     16          1           0        0.440028    2.446818   -0.485842
     17          1           0       -0.227012    1.562012   -1.864655
     18          1           0        1.511672    1.557833   -1.574620
 ---------------------------------------------------------------------

 SCF Done:  E(RHF) =  -523.653010004     A.U. after    2 cycles

 The electronic state is 1-A.
 Alpha  occ. eigenvalues --  -76.19680 -21.02447 -11.40157 -11.33921 -11.33774
 Alpha  occ. eigenvalues --  -11.33599  -5.54068  -2.20958  -2.17428  -2.17133
 Alpha  occ. eigenvalues --   -1.68089  -1.06913  -1.00638  -1.00621  -0.96606
 Alpha  occ. eigenvalues --   -0.65488  -0.60165  -0.59522  -0.56647  -0.55895
 Alpha  occ. eigenvalues --   -0.55861  -0.53916  -0.53814  -0.52756  -0.49019
 Alpha  occ. eigenvalues --   -0.40934  -0.39935  -0.33671  -0.32284
 Alpha virt. eigenvalues --    0.02971   0.05053   0.05587   0.05735   0.05998
 Alpha virt. eigenvalues --    0.06274   0.06330   0.06772   0.06800   0.08585
 Alpha virt. eigenvalues --    0.08842   0.09100   0.10140   0.11137   0.11445

 Mulliken charges:
               1
     1  C   -3.012400
     2  O   -4.061258
     3  H    1.381224
     4  H    1.381225
     5  H    1.267733
     6  Si  10.594411
     7  C   -5.837396
     8  H    1.179671
     9  H    1.191746
    10  H    1.179672
    11  C   -5.934355
    12  H    1.131444
    13  H    1.115600
    14  H    1.054996
    15  C   -5.934354
    16  H    1.131444
    17  H    1.054996
    18  H    1.115601
 Sum of Mulliken charges =  -0.00000

 Dipole moment (field-independent basis, Debye):
    X=             -0.1607    Y=             -0.0000    Z=             -0.1831  Tot=              0.2436

 Test job not archived.
 1\1\GINC-SE365\SP\RHF\Aug-CC-pVDZ\C4H12O1Si1\OHZDE\08-Apr-2025\0\\#t h
 f aug-cc-pvdz iop(5/13=1,5/36=2,99/5=2) pseudo=read geom=check guess=(
 read,tcheck) scf=(maxcycle=1)\\title\\0,1\C,0,2.366899,0.,-0.210673\O,
 0,1.078178,-0.000001,-0.797505\H,0,2.532496,-0.890548,0.4087\H,0,2.532
 495,0.890549,0.408699\H,0,3.106915,-0.000001,-1.013774\Si,0,-0.378127,
 0.,0.002362\C,0,-1.669302,-0.000002,-1.349501\H,0,-1.56811,0.883696,-1
 .985638\H,0,-2.680636,-0.000001,-0.930914\H,0,-1.56811,-0.883701,-1.98
 5636\C,0,-0.535242,-1.532906,1.079695\H,0,-0.440027,-2.446817,0.485847

 Normal termination of Gaussian 16 at Tue Apr  8 22:45:01 2025.
