 Gaussian 16, Revision C.01,

 ----------------------------------------------------------------------
 #t hf aug-cc-pvdz symm=none int=(grid=ultrafine) guess=(read,tcheck) s
 table=(opt,rrhf)
 ----------------------------------------------------------------------
 -----
 title
 -----
 Symbolic Z-matrix:
 Charge =  0 Multiplicity = 1

 SCF Done:  E(RHF) =  -480.645842529     A.U. after   15 cycles
 Normal termination of Gaussian 16 at Tue Apr  8 23:22:43 2025.
 Gaussian 16:  ES64L-G16RevC.01  3-Jul-2019

 ----------------------------------------------------------------------
 #t hf aug-cc-pvdz iop(5/13=1,5/36=2,99/5=2) pseudo=read geom=check gue
 ss=(read,tcheck) scf=(maxcycle=1)
 ----------------------------------------------------------------------
 -----
 title
 -----
 Structure from the checkpoint file:  "BDE49_nonexpt_1163_mol1.chk"
 Charge =  0 Multiplicity = 1

                         Standard orientation:
 ---------------------------------------------------------------------
 Center     Atomic      Atomic             Coordinates (Angstroms)
 Number     Number       Type             X           Y           Z
 ---------------------------------------------------------------------
      1          9           0        1.123605    1.826194   -0.600418
      2          8           0        0.219731    0.744763   -0.936197
      3          6           0       -0.057932    0.006198    0.296052
      4          8           0        1.042639   -0.682136    0.730917
      5          8           0       -1.006567   -0.894710   -0.188918
      6          6           0        1.613807   -1.631470   -0.181892
      7          1           0        2.531387   -1.972366    0.294065
      8          1           0        1.846469   -1.157887   -1.137400
      9          1           0        0.939165   -2.474626   -0.338946
     10          6           0       -2.323072   -0.410165   -0.474742
     11          1           0       -2.826083   -1.220845   -0.999717
     12          1           0       -2.294058    0.473048   -1.115635
     13          1           0       -2.870366   -0.186741    0.445668
     14          6           0       -0.509312    0.924215    1.416052
     15          1           0        0.334309    1.531429    1.736035
     16          1           0       -0.848349    0.313836    2.254018
     17          1           0       -1.312290    1.582407    1.086447
 ---------------------------------------------------------------------

 SCF Done:  E(RHF) =  -482.678067568     A.U. after    2 cycles

 The electronic state is 1-A.
 Alpha  occ. eigenvalues --  -29.27988 -21.14059 -21.07131 -21.06334 -11.53928
 Alpha  occ. eigenvalues --  -11.42336 -11.40997 -11.38664  -1.90278  -1.72833
 Alpha  occ. eigenvalues --   -1.71173  -1.12988  -1.02730  -0.98626  -0.83205
 Alpha  occ. eigenvalues --   -0.70556  -0.68377  -0.67063  -0.62398  -0.60956
 Alpha  occ. eigenvalues --   -0.60566  -0.57211  -0.55808  -0.52499  -0.51370
 Alpha  occ. eigenvalues --   -0.44713  -0.42031  -0.40383  -0.36011  -0.32586
 Alpha  occ. eigenvalues --   -0.31512  -0.23919  -0.21150
 Alpha virt. eigenvalues --    0.03803   0.04867   0.05044   0.05331   0.05948
 Alpha virt. eigenvalues --    0.06108   0.06971   0.07457   0.09050   0.11095
 Alpha virt. eigenvalues --    0.12643   0.13664   0.14428   0.14867   0.15287

 Mulliken charges:
               1
     1  F   -0.473951
     2  O   -1.918405
     3  C    9.038723
     4  O   -3.811918
     5  O   -3.952700
     6  C   -3.515991
     7  H    1.286693
     8  H    1.249986
     9  H    1.391073
    10  C   -3.200704
    11  H    1.354297
    12  H    1.294945
    13  H    1.508312
    14  C   -3.921618
    15  H    1.197994
    16  H    1.255893
    17  H    1.217372
 Sum of Mulliken charges =   0.00000

 Dipole moment (field-independent basis, Debye):
    X=             -0.0749    Y=              0.3134    Z=              0.3495  Tot=              0.4753

 Test job not archived.
 1\1\GINC-SE044\SP\RHF\Aug-CC-pVDZ\C4H9F1O3\OHZDE\08-Apr-2025\0\\#t hf
 aug-cc-pvdz iop(5/13=1,5/36=2,99/5=2) pseudo=read geom=check guess=(re
 ad,tcheck) scf=(maxcycle=1)\\title\\0,1\F,0,1.123605,1.826194,-0.60041
 8\O,0,0.219731,0.744763,-0.936197\C,0,-0.057932,0.006198,0.296052\O,0,
 1.042639,-0.682136,0.730917\O,0,-1.006567,-0.89471,-0.188918\C,0,1.613
 807,-1.63147,-0.181892\H,0,2.531387,-1.972366,0.294065\H,0,1.846469,-1
 .157887,-1.1374\H,0,0.939165,-2.474626,-0.338946\C,0,-2.323072,-0.4101
 65,-0.474742\H,0,-2.826083,-1.220845,-0.999717\H,0,-2.294058,0.473048,

 Normal termination of Gaussian 16 at Tue Apr  8 23:22:49 2025.
