 Gaussian 16, Revision C.01,

 ----------------------------------------------------------------------
 #t hf aug-cc-pvdz symm=none int=(grid=ultrafine) guess=(read,tcheck) s
 table=(opt,rrhf)
 ----------------------------------------------------------------------
 -----
 title
 -----
 Symbolic Z-matrix:
 Charge =  0 Multiplicity = 1

 SCF Done:  E(RHF) =  -781.896011808     A.U. after   15 cycles
 Normal termination of Gaussian 16 at Tue Apr  8 23:19:27 2025.
 Gaussian 16:  ES64L-G16RevC.01  3-Jul-2019

 ----------------------------------------------------------------------
 #t hf aug-cc-pvdz iop(5/13=1,5/36=2,99/5=2) pseudo=read geom=check gue
 ss=(read,tcheck) scf=(maxcycle=1)
 ----------------------------------------------------------------------
 -----
 title
 -----
 Structure from the checkpoint file:  "BDE49_nonexpt_1054_mol1.chk"
 Charge =  0 Multiplicity = 1

                         Standard orientation:
 ---------------------------------------------------------------------
 Center     Atomic      Atomic             Coordinates (Angstroms)
 Number     Number       Type             X           Y           Z
 ---------------------------------------------------------------------
      1         17           0       -2.018919   -0.310656   -0.484844
      2          8           0       -1.020294   -0.036682    0.926079
      3          6           0        0.234857    0.570323    0.609418
      4          8           0        0.103764    1.840380    0.080430
      5          7           0        1.031353   -0.278022   -0.237356
      6          6           0        1.138856   -1.657054    0.241741
      7          1           0        0.150937   -2.081192    0.403621
      8          1           0        1.713270   -1.732207    1.180964
      9          1           0        1.650189   -2.252267   -0.517060
     10          6           0        2.351418    0.281571   -0.538996
     11          1           0        2.259344    1.307386   -0.888638
     12          1           0        2.815787   -0.314533   -1.326930
     13          1           0        3.022199    0.273809    0.337298
     14          1           0        0.625450    0.693373    1.635365
     15          1           0       -0.153561    1.734310   -0.845821
 ---------------------------------------------------------------------

 SCF Done:  E(RHF) =  -783.608026049     A.U. after    2 cycles

 The electronic state is 1-A.
 Alpha  occ. eigenvalues --  -99.93401 -21.11520 -21.09211 -15.72359 -11.48606
 Alpha  occ. eigenvalues --  -11.39676 -11.38842 -10.50138  -9.70034  -9.69325
 Alpha  occ. eigenvalues --   -9.69199  -1.83277  -1.70429  -1.41390  -1.25203
 Alpha  occ. eigenvalues --   -1.04088  -0.99471  -0.85367  -0.70635  -0.67558
 Alpha  occ. eigenvalues --   -0.65820  -0.62251  -0.59207  -0.56723  -0.55059
 Alpha  occ. eigenvalues --   -0.54849  -0.54110  -0.50628  -0.47173  -0.43211
 Alpha  occ. eigenvalues --   -0.36278  -0.33902  -0.32961
 Alpha virt. eigenvalues --    0.03645   0.04574   0.05453   0.05826   0.05872
 Alpha virt. eigenvalues --    0.06308   0.06486   0.07441   0.08135   0.11151
 Alpha virt. eigenvalues --    0.11576   0.13260   0.14063   0.14829   0.15296

 Mulliken charges:
               1
     1  Cl   0.234054
     2  O   -2.179027
     3  C    3.271578
     4  O   -2.923816
     5  N   -2.581462
     6  C   -3.447080
     7  H    1.402431
     8  H    1.368081
     9  H    1.350246
    10  C   -3.288117
    11  H    1.497363
    12  H    1.363681
    13  H    1.372821
    14  H    1.932802
    15  H    0.626445
 Sum of Mulliken charges =   0.00000

 Dipole moment (field-independent basis, Debye):
    X=              2.7813    Y=              0.0891    Z=              1.0651  Tot=              2.9796

 Test job not archived.
 1\1\GINC-SE099\SP\RHF\Aug-CC-pVDZ\C3H8Cl1N1O2\OHZDE\08-Apr-2025\0\\#t
 hf aug-cc-pvdz iop(5/13=1,5/36=2,99/5=2) pseudo=read geom=check guess=
 (read,tcheck) scf=(maxcycle=1)\\title\\0,1\Cl,0,-2.018919,-0.310656,-0
 .484844\O,0,-1.020294,-0.036682,0.926079\C,0,0.234857,0.570323,0.60941
 8\O,0,0.103764,1.84038,0.08043\N,0,1.031353,-0.278022,-0.237356\C,0,1.
 138856,-1.657054,0.241741\H,0,0.150937,-2.081192,0.403621\H,0,1.71327,
 -1.732207,1.180964\H,0,1.650189,-2.252267,-0.51706\C,0,2.351418,0.2815
 71,-0.538996\H,0,2.259344,1.307386,-0.888638\H,0,2.815787,-0.314533,-1

 Normal termination of Gaussian 16 at Tue Apr  8 23:19:33 2025.
