 Gaussian 16, Revision C.01,

 ----------------------------------------------------------------------
 #t hf aug-cc-pvdz symm=none int=(grid=ultrafine) guess=(read,tcheck) s
 table=opt
 ----------------------------------------------------------------------
 -----
 title
 -----
 Symbolic Z-matrix:
 Charge =  0 Multiplicity = 2

 SCF Done:  E(UHF) =  -793.804274154     A.U. after   22 cycles
 Normal termination of Gaussian 16 at Wed Apr  9 00:52:10 2025.
 Gaussian 16:  ES64L-G16RevC.01  3-Jul-2019

 ----------------------------------------------------------------------
 #t hf aug-cc-pvdz iop(5/13=1,5/36=2,99/5=2) pseudo=read geom=check gue
 ss=(read,tcheck) scf=(maxcycle=1)
 ----------------------------------------------------------------------
 -----
 title
 -----
 Structure from the checkpoint file:  "BDE49_nonexpt_929_mol2.chk"
 Charge =  0 Multiplicity = 2

                         Standard orientation:
 ---------------------------------------------------------------------
 Center     Atomic      Atomic             Coordinates (Angstroms)
 Number     Number       Type             X           Y           Z
 ---------------------------------------------------------------------
      1          7           0        1.792641    0.000002   -0.000054
      2          6           0        0.793610   -1.020278    0.000041
      3          8           0        0.773945   -2.199849    0.000004
      4          6           0        0.793608    1.020280    0.000056
      5          7           0       -0.234509   -0.000000    0.000008
      6          8           0        0.773938    2.199851   -0.000002
      7         17           0       -1.930194   -0.000003   -0.000017
 ---------------------------------------------------------------------

 SCF Done:  E(UHF) =  -795.402229441     A.U. after    2 cycles

 The electronic state is 2-A.
 Alpha  occ. eigenvalues --  -99.98335 -21.12355 -21.12340 -15.86747 -15.85508
 Alpha  occ. eigenvalues --  -11.59363 -11.57261 -10.55412  -9.75610  -9.74308
 Alpha  occ. eigenvalues --   -9.74201  -1.81790  -1.77893  -1.61612  -1.43850
 Alpha  occ. eigenvalues --   -1.20921  -0.92016  -0.81975  -0.76637  -0.75472
 Alpha  occ. eigenvalues --   -0.62999  -0.62346  -0.59207  -0.54354  -0.54161
 Alpha  occ. eigenvalues --   -0.52156  -0.46791  -0.40793  -0.39858  -0.34193
 Alpha virt. eigenvalues --    0.01634   0.05351   0.08938   0.08972   0.09360
 Alpha virt. eigenvalues --    0.10555   0.11181   0.12292   0.13077   0.13137
 Alpha virt. eigenvalues --    0.14565   0.14577   0.16319   0.18281   0.18793

  Beta  occ. eigenvalues --  -99.98338 -21.12162 -21.12147 -15.85763 -15.82708
  Beta  occ. eigenvalues --  -11.59753 -11.57649 -10.55413  -9.75771  -9.74304
  Beta  occ. eigenvalues --   -9.74074  -1.80939  -1.77554  -1.59056  -1.40725
  Beta  occ. eigenvalues --   -1.15972  -0.91947  -0.80087  -0.75837  -0.69998
  Beta  occ. eigenvalues --   -0.62962  -0.59095  -0.58558  -0.54120  -0.52093
  Beta  occ. eigenvalues --   -0.51685  -0.39864  -0.35487  -0.33528
  Beta virt. eigenvalues --   -0.02011   0.02130   0.05377   0.09046   0.09077
  Beta virt. eigenvalues --    0.09362   0.10547   0.11205   0.12323   0.13096
  Beta virt. eigenvalues --    0.13138   0.14550   0.14719   0.16255   0.18460

 Mulliken charges and spin densities:
               1          2
     1  N   -2.176006   1.067363
     2  C    4.229412  -0.212124
     3  O   -2.752197   0.072340
     4  C    4.229412  -0.212124
     5  N   -1.767741   0.241768
     6  O   -2.752197   0.072340
     7  Cl   0.989317  -0.029563
 Sum of Mulliken charges =  -0.00000   1.00000

 Dipole moment (field-independent basis, Debye):
    X=             -0.3093    Y=              0.0000    Z=              0.0001  Tot=              0.3093
                          Isotropic Fermi Contact Couplings
        Atom                 a.u.       MegaHertz       Gauss      10(-4) cm-1
     1  N(14)              0.18957      61.24951      21.85535      20.43064
     2  C(13)             -0.03814     -42.87971     -15.30055     -14.30313
     3  O(17)              0.00881      -5.34131      -1.90591      -1.78167
     4  C(13)             -0.03814     -42.87972     -15.30055     -14.30313
     5  N(14)              0.07209      23.29125       8.31090       7.76912
     6  O(17)              0.00881      -5.34131      -1.90591      -1.78167
     7  Cl(35)             0.01879       8.24069       2.94048       2.74880
 --------------------------------------------------------

 Normal termination of Gaussian 16 at Wed Apr  9 00:52:14 2025.
