 Gaussian 16, Revision C.01,

 ----------------------------------------------------------------------
 #t hf aug-cc-pvdz symm=none int=(grid=ultrafine) guess=(read,tcheck) s
 table=(opt,rrhf)
 ----------------------------------------------------------------------
 -----
 title
 -----
 Symbolic Z-matrix:
 Charge =  0 Multiplicity = 1

 SCF Done:  E(RHF) =  -1060.65670702     A.U. after   14 cycles
 Normal termination of Gaussian 16 at Tue Apr  8 22:36:06 2025.
 Gaussian 16:  ES64L-G16RevC.01  3-Jul-2019

 ----------------------------------------------------------------------
 #t hf aug-cc-pvdz iop(5/13=1,5/36=2,99/5=2) pseudo=read geom=check gue
 ss=(read,tcheck) scf=(maxcycle=1)
 ----------------------------------------------------------------------
 -----
 title
 -----
 Structure from the checkpoint file:  "BDE49_expt_1043_mol1.chk"
 Charge =  0 Multiplicity = 1

                         Standard orientation:
 ---------------------------------------------------------------------
 Center     Atomic      Atomic             Coordinates (Angstroms)
 Number     Number       Type             X           Y           Z
 ---------------------------------------------------------------------
      1          6           0        0.670787    0.059334    0.000000
      2          6           0       -0.007286   -1.163608    0.000001
      3          6           0       -1.392400   -1.229729    0.000001
      4          6           0       -2.133266   -0.052397    0.000000
      5          6           0       -1.483816    1.174173   -0.000001
      6          6           0       -0.092354    1.227906   -0.000001
      7          9           0        0.465402    2.438094   -0.000002
      8          9           0       -3.461651   -0.103397    0.000000
      9          9           0       -2.194805    2.302046   -0.000002
     10          9           0        0.677438   -2.308702    0.000002
     11          9           0       -2.014222   -2.408487    0.000002
     12          6           0        2.185730    0.037694    0.000000
     13          9           0        2.722750    1.263715   -0.000003
     14          9           0        2.653412   -0.609429   -1.085343
     15          9           0        2.653412   -0.609423    1.085346
 ---------------------------------------------------------------------

 SCF Done:  E(RHF) =  -1064.52793169     A.U. after    2 cycles

 The electronic state is 1-A.
 Alpha  occ. eigenvalues --  -29.34855 -29.34131 -29.34033 -29.34001 -29.33924
 Alpha  occ. eigenvalues --  -29.33013 -29.32703 -29.32671 -11.65382 -11.63280
 Alpha  occ. eigenvalues --  -11.57528 -11.56242 -11.54032 -11.52910 -11.48163
 Alpha  occ. eigenvalues --   -1.52910  -1.43132  -1.31136  -1.26840  -1.11653
 Alpha  occ. eigenvalues --   -1.08483  -0.94151  -0.91505  -0.91200  -0.91130
 Alpha  occ. eigenvalues --   -0.78631  -0.78393  -0.77081  -0.69118  -0.67974
 Alpha  occ. eigenvalues --   -0.65557  -0.58457  -0.55142  -0.50753  -0.47104
 Alpha  occ. eigenvalues --   -0.45975  -0.45935  -0.45122  -0.44566  -0.43460
 Alpha  occ. eigenvalues --   -0.42950  -0.41864  -0.40298  -0.39505  -0.37991
 Alpha  occ. eigenvalues --   -0.36698  -0.33370  -0.32778  -0.32306  -0.32259
 Alpha  occ. eigenvalues --   -0.30464  -0.27884  -0.27360  -0.24055  -0.23693
 Alpha  occ. eigenvalues --   -0.22735  -0.20563
 Alpha virt. eigenvalues --    0.06752   0.09963   0.10404   0.10624   0.10803
 Alpha virt. eigenvalues --    0.11211   0.11429   0.11525   0.11547   0.11692
 Alpha virt. eigenvalues --    0.12750   0.12850   0.13357   0.14247   0.14453

 Mulliken charges:
               1
     1  C   -5.905146
     2  C    0.885058
     3  C   -1.822043
     4  C   -0.184560
     5  C   -1.918649
     6  C    2.451025
     7  F    1.244322
     8  F    1.170578
     9  F    1.159702
    10  F    1.185538
    11  F    1.222399
    12  C   -0.807764
    13  F    0.752020
    14  F    0.283760
    15  F    0.283760
 Sum of Mulliken charges =   0.00000

 Dipole moment (field-independent basis, Debye):
    X=             -0.9418    Y=             -0.2526    Z=              0.0000  Tot=              0.9751

 Test job not archived.
 1\1\GINC-SE455\SP\RHF\Aug-CC-pVDZ\C7F8\OHZDE\08-Apr-2025\0\\#t hf aug-
 cc-pvdz iop(5/13=1,5/36=2,99/5=2) pseudo=read geom=check guess=(read,t
 check) scf=(maxcycle=1)\\title\\0,1\C,0,0.670787,0.059334,0.\C,0,-0.00
 7286,-1.163608,0.000001\C,0,-1.3924,-1.229729,0.000001\C,0,-2.133266,-
 0.052397,0.\C,0,-1.483816,1.174173,-0.000001\C,0,-0.092354,1.227906,-0
 .000001\F,0,0.465401,2.438094,-0.000002\F,0,-3.461651,-0.103398,0.\F,0
 ,-2.194806,2.302046,-0.000002\F,0,0.677438,-2.308702,0.000002\F,0,-2.0
 14222,-2.408487,0.000002\C,0,2.18573,0.037694,0.\F,0,2.72275,1.263715,

 Normal termination of Gaussian 16 at Tue Apr  8 22:36:17 2025.
