 Gaussian 16, Revision C.01,

 ----------------------------------------------------------------------
 #t hf aug-cc-pvdz symm=none int=(grid=ultrafine) guess=(read,tcheck) s
 table=(opt,rrhf)
 ----------------------------------------------------------------------
 -----
 title
 -----
 Symbolic Z-matrix:
 Charge =  0 Multiplicity = 1

 SCF Done:  E(RHF) =  -194.259165177     A.U. after   13 cycles
 Normal termination of Gaussian 16 at Wed Apr  9 00:38:49 2025.
 Gaussian 16:  ES64L-G16RevC.01  3-Jul-2019

 ----------------------------------------------------------------------
 #t hf aug-cc-pvdz iop(5/13=1,5/36=2,99/5=2) pseudo=read geom=check gue
 ss=(read,tcheck) scf=(maxcycle=1)
 ----------------------------------------------------------------------
 -----
 title
 -----
 Structure from the checkpoint file:  "BDE49_nonexpt_585_mol1.chk"
 Charge =  0 Multiplicity = 1

                         Standard orientation:
 ---------------------------------------------------------------------
 Center     Atomic      Atomic             Coordinates (Angstroms)
 Number     Number       Type             X           Y           Z
 ---------------------------------------------------------------------
      1          6           0       -0.637175    0.361743   -0.000012
      2          5           0        1.848517    0.144816    0.000002
      3          8           0       -1.737660   -0.122875    0.000009
      4          7           0        0.543611   -0.385667   -0.000003
      5          1           0        2.772207   -0.601186    0.000006
      6          1           0        1.976718    1.327103   -0.000003
      7          1           0       -0.442313    1.447691    0.000010
      8          1           0        0.369855   -1.385483   -0.000001
 ---------------------------------------------------------------------

 SCF Done:  E(RHF) =  -195.111599394     A.U. after    2 cycles

 The electronic state is 1-A.
 Alpha  occ. eigenvalues --  -21.06055 -15.75975 -11.49978  -7.63688  -1.72564
 Alpha  occ. eigenvalues --   -1.39706  -0.91844  -0.85554  -0.65470  -0.59719
 Alpha  occ. eigenvalues --   -0.55069  -0.51543  -0.48474  -0.37286  -0.31454
 Alpha virt. eigenvalues --    0.02910   0.03543   0.03973   0.04271   0.08448
 Alpha virt. eigenvalues --    0.09747   0.10250   0.11368   0.12147   0.13090
 Alpha virt. eigenvalues --    0.14188   0.14764   0.17026   0.17058   0.18116

 Mulliken charges:
               1
     1  C    2.239351
     2  B    7.147667
     3  O   -2.542152
     4  N   -2.786805
     5  H   -3.461644
     6  H   -3.017812
     7  H    1.567099
     8  H    0.854296
 Sum of Mulliken charges =  -0.00000

 Dipole moment (field-independent basis, Debye):
    X=              0.7825    Y=             -0.3863    Z=              0.0000  Tot=              0.8727

 Test job not archived.
 1\1\GINC-SE174\SP\RHF\Aug-CC-pVDZ\C1H4B1N1O1\OHZDE\09-Apr-2025\0\\#t h
 f aug-cc-pvdz iop(5/13=1,5/36=2,99/5=2) pseudo=read geom=check guess=(
 read,tcheck) scf=(maxcycle=1)\\title\\0,1\C,0,-0.637175,0.361743,-0.00
 0012\B,0,1.848517,0.144816,0.000002\O,0,-1.73766,-0.122875,0.000009\N,
 0,0.543611,-0.385667,-0.000003\H,0,2.772207,-0.601186,0.000006\H,0,1.9
 76718,1.327103,-0.000003\H,0,-0.442313,1.447691,0.00001\H,0,0.369855,-
 1.385483,-0.000001\\Version=ES64L-G16RevC.01\State=1-A\HF=-195.1115994
 \RMSD=1.561e-01\Dipole=0.307869,-0.1519998,0.0000027\Quadrupole=-3.356

 Normal termination of Gaussian 16 at Wed Apr  9 00:38:51 2025.
