 Gaussian 16, Revision C.01,

 ----------------------------------------------------------------------
 #t hf aug-cc-pvdz symm=none int=(grid=ultrafine) guess=(read,tcheck) s
 table=(opt,rrhf)
 ----------------------------------------------------------------------
 -----
 title
 -----
 Symbolic Z-matrix:
 Charge =  0 Multiplicity = 1

 SCF Done:  E(RHF) =  -1117.63265545     A.U. after   14 cycles
 Normal termination of Gaussian 16 at Tue Apr  8 23:44:55 2025.
 Gaussian 16:  ES64L-G16RevC.01  3-Jul-2019

 ----------------------------------------------------------------------
 #t hf aug-cc-pvdz iop(5/13=1,5/36=2,99/5=2) pseudo=read geom=check gue
 ss=(read,tcheck) scf=(maxcycle=1)
 ----------------------------------------------------------------------
 -----
 title
 -----
 Structure from the checkpoint file:  "BDE49_nonexpt_1704_mol1.chk"
 Charge =  0 Multiplicity = 1

                         Standard orientation:
 ---------------------------------------------------------------------
 Center     Atomic      Atomic             Coordinates (Angstroms)
 Number     Number       Type             X           Y           Z
 ---------------------------------------------------------------------
      1         16           0        0.001660    1.402681   -0.109640
      2         15           0       -1.395619   -0.191114    0.035857
      3          8           0       -2.769536    0.299650   -0.046092
      4          8           0       -0.996828   -1.285071   -1.077409
      5          8           0        1.354713    0.530304    0.462659
      6          6           0        2.231426   -0.005485   -0.566406
      7          6           0        3.385796   -0.682061    0.145395
      8          1           0        2.577996    0.819388   -1.195652
      9          1           0        1.668130   -0.708877   -1.185604
     10          1           0        3.919629    0.028049    0.779969
     11          1           0        4.086829   -1.083773   -0.591154
     12          1           0        3.033902   -1.509142    0.766177
     13          8           0       -0.918854   -0.938042    1.352260
     14          1           0        0.011177   -0.736228    1.550950
     15          1           0       -1.449229   -1.115063   -1.913566
 ---------------------------------------------------------------------

 SCF Done:  E(RHF) =  -1119.70278600     A.U. after    2 cycles

 The electronic state is 1-A.
 Alpha  occ. eigenvalues -- -105.32938 -75.75272 -21.12872 -21.12400 -21.09868
 Alpha  occ. eigenvalues --  -21.03838 -13.22491 -13.15353 -13.10870 -11.45994
 Alpha  occ. eigenvalues --  -11.38652  -8.09032  -2.95280  -2.01108  -1.91358
 Alpha  occ. eigenvalues --   -1.79780  -1.78008  -1.54119  -1.41305  -1.26566
 Alpha  occ. eigenvalues --   -1.15657  -1.02087  -0.89354  -0.70272  -0.67503
 Alpha  occ. eigenvalues --   -0.62559  -0.60506  -0.57847  -0.55797  -0.53238
 Alpha  occ. eigenvalues --   -0.50587  -0.45351  -0.43706  -0.42413  -0.40319
 Alpha  occ. eigenvalues --   -0.36205  -0.34490  -0.29274  -0.27596  -0.21513
 Alpha  occ. eigenvalues --   -0.14967
 Alpha virt. eigenvalues --    0.03073   0.04433   0.05150   0.05392   0.06320
 Alpha virt. eigenvalues --    0.07214   0.07585   0.08267   0.10142   0.10904
 Alpha virt. eigenvalues --    0.12608   0.12798   0.13242   0.13796   0.14620

 Mulliken charges:
               1
     1  S   -0.803089
     2  P    8.115064
     3  O   -2.716048
     4  O   -2.703167
     5  O   -2.141203
     6  C   -2.047099
     7  C   -3.583843
     8  H    1.513290
     9  H    1.714348
    10  H    1.243930
    11  H    1.154492
    12  H    1.285483
    13  O   -3.179580
    14  H    1.282688
    15  H    0.864735
 Sum of Mulliken charges =   0.00000

 Dipole moment (field-independent basis, Debye):
    X=              3.0052    Y=             -1.7997    Z=             -0.6422  Tot=              3.5613

 Test job not archived.
 1\1\GINC-SE212\SP\RHF\Aug-CC-pVDZ\C2H7O4P1S1\OHZDE\08-Apr-2025\0\\#t h
 f aug-cc-pvdz iop(5/13=1,5/36=2,99/5=2) pseudo=read geom=check guess=(
 read,tcheck) scf=(maxcycle=1)\\title\\0,1\S,0,0.00166,1.402681,-0.1096
 4\P,0,-1.395619,-0.191114,0.035857\O,0,-2.769536,0.29965,-0.046092\O,0
 ,-0.996828,-1.285071,-1.077409\O,0,1.354713,0.530304,0.462659\C,0,2.23
 1426,-0.005485,-0.566406\C,0,3.385796,-0.682061,0.145395\H,0,2.577996,
 0.819388,-1.195652\H,0,1.66813,-0.708877,-1.185604\H,0,3.919629,0.0280
 49,0.779969\H,0,4.086829,-1.083773,-0.591154\H,0,3.033902,-1.509142,0.

 Normal termination of Gaussian 16 at Tue Apr  8 23:45:01 2025.
