 Gaussian 16, Revision C.01,

 ----------------------------------------------------------------------
 #t hf aug-cc-pvdz symm=none int=(grid=ultrafine) guess=(read,tcheck) s
 table=opt
 ----------------------------------------------------------------------
 -----
 title
 -----
 Symbolic Z-matrix:
 Charge =  0 Multiplicity = 2

 SCF Done:  E(UHF) =  -152.321017240     A.U. after   18 cycles
 Normal termination of Gaussian 16 at Tue Apr  8 22:36:22 2025.
 Gaussian 16:  ES64L-G16RevC.01  3-Jul-2019

 ----------------------------------------------------------------------
 #t hf aug-cc-pvdz iop(5/13=1,5/36=2,99/5=2) pseudo=read geom=check gue
 ss=(read,tcheck) scf=(maxcycle=1)
 ----------------------------------------------------------------------
 -----
 title
 -----
 Structure from the checkpoint file:  "BDE49_expt_1088_mol3.chk"
 Charge =  0 Multiplicity = 2

                         Standard orientation:
 ---------------------------------------------------------------------
 Center     Atomic      Atomic             Coordinates (Angstroms)
 Number     Number       Type             X           Y           Z
 ---------------------------------------------------------------------
      1          6           0       -0.248525   -0.433907    0.000009
      2          8           0       -1.259397    0.175196   -0.000015
      3          6           0        1.168594    0.098243    0.000006
      4          1           0        1.180760    1.192849   -0.000041
      5          1           0        1.687013   -0.290255   -0.879442
      6          1           0        1.686984   -0.290178    0.879506
 ---------------------------------------------------------------------

 SCF Done:  E(UHF) =  -152.980772879     A.U. after    2 cycles

 The electronic state is 2-A.
 Alpha  occ. eigenvalues --  -21.10463 -11.48506 -11.41154  -1.74263  -1.12768
 Alpha  occ. eigenvalues --   -0.76044  -0.63430  -0.60851  -0.56713  -0.49127
 Alpha  occ. eigenvalues --   -0.45070  -0.26603
 Alpha virt. eigenvalues --    0.03490   0.05926   0.06311   0.08529   0.11436
 Alpha virt. eigenvalues --    0.12125   0.12234   0.14761   0.15377   0.15961
 Alpha virt. eigenvalues --    0.17061   0.21353   0.24762   0.25970   0.27183

  Beta  occ. eigenvalues --  -21.09465 -11.46688 -11.40573  -1.71957  -1.10375
  Beta  occ. eigenvalues --   -0.70351  -0.60230  -0.60188  -0.52540  -0.44483
  Beta  occ. eigenvalues --   -0.40023
  Beta virt. eigenvalues --    0.02103   0.05948   0.06222   0.08458   0.10673
  Beta virt. eigenvalues --    0.11616   0.12277   0.12484   0.15117   0.15974
  Beta virt. eigenvalues --    0.18223   0.18474   0.23508   0.25682   0.26110

 Mulliken charges and spin densities:
               1          2
     1  C    1.357772   0.919036
     2  O   -2.006106   0.188049
     3  C   -3.216523  -0.102141
     4  H    1.201591   0.040850
     5  H    1.331634  -0.022897
     6  H    1.331632  -0.022897
 Sum of Mulliken charges =  -0.00000   1.00000

 Dipole moment (field-independent basis, Debye):
    X=              1.1887    Y=              0.7608    Z=             -0.0000  Tot=              1.4113
                          Isotropic Fermi Contact Couplings
        Atom                 a.u.       MegaHertz       Gauss      10(-4) cm-1
     1  C(13)              0.17306     194.55068      69.42052      64.89512
     2  O(17)              0.08150     -49.40285     -17.62817     -16.47902
     3  C(13)              0.12078     135.78312      48.45079      45.29237
     4  H(1)               0.00621      27.77054       9.90922       9.26325
     5  H(1)              -0.00162      -7.25564      -2.58899      -2.42022
     6  H(1)              -0.00162      -7.25577      -2.58904      -2.42026
 --------------------------------------------------------
       Center         ----  Spin Dipole Couplings  ----

 Normal termination of Gaussian 16 at Tue Apr  8 22:36:24 2025.
