 Gaussian 16, Revision C.01,

 ----------------------------------------------------------------------
 #t hf aug-cc-pvdz symm=none int=(grid=ultrafine) guess=(read,tcheck) s
 table=(opt,rrhf)
 ----------------------------------------------------------------------
 -----
 title
 -----
 Symbolic Z-matrix:
 Charge =  0 Multiplicity = 1

 SCF Done:  E(RHF) =  -922.673337939     A.U. after   11 cycles

 1\1\GINC-SE341\Stability\RHF\Aug-CC-pVDZ\H7P1Si2\OHZDE\09-Apr-2025\0\\
 #t hf aug-cc-pvdz symm=none int=(grid=ultrafine) guess=(read,tcheck) s
 table=(opt,rrhf)\\title\\0,1\Si,0,-1.922865,-0.3872,-0.005206\Si,0,0.0
 70401,0.872384,0.014173\H,0,-1.997169,-1.214533,-1.233057\H,0,-3.09852
 8,0.515915,0.035473\H,0,-1.973661,-1.284089,1.175008\P,0,1.882461,-0.5
 18207,-0.107629\H,0,0.099733,1.747073,1.213658\H,0,0.115839,1.741336,-
 1.188388\H,0,1.733483,-1.0068,1.217239\H,0,2.817878,0.481627,0.268963\
 \Version=ES64L-G16RevC.01\HF=-922.6733379\RMSD=5.237e-09\Dipole=-0.060

 Normal termination of Gaussian 16 at Wed Apr  9 00:13:33 2025.
 Gaussian 16:  ES64L-G16RevC.01  3-Jul-2019

 ----------------------------------------------------------------------
 #t hf aug-cc-pvdz iop(5/13=1,5/36=2,99/5=2) pseudo=read geom=check gue
 ss=(read,tcheck) scf=(maxcycle=1)
 ----------------------------------------------------------------------
 -----
 title
 -----
 Structure from the checkpoint file:  "BDE49_nonexpt_2443_mol1.chk"
 Charge =  0 Multiplicity = 1

                         Standard orientation:
 ---------------------------------------------------------------------
 Center     Atomic      Atomic             Coordinates (Angstroms)
 Number     Number       Type             X           Y           Z
 ---------------------------------------------------------------------
      1         14           0       -1.922865   -0.387200   -0.005206
      2         14           0        0.070401    0.872384    0.014173
      3          1           0       -1.997169   -1.214533   -1.233057
      4          1           0       -3.098528    0.515915    0.035473
      5          1           0       -1.973661   -1.284089    1.175008
      6         15           0        1.882461   -0.518207   -0.107629
      7          1           0        0.099733    1.747073    1.213658
      8          1           0        0.115839    1.741336   -1.188388
      9          1           0        1.733483   -1.006800    1.217239
     10          1           0        2.817878    0.481627    0.268963
 ---------------------------------------------------------------------

 SCF Done:  E(RHF) =  -923.202578303     A.U. after    2 cycles

 The electronic state is 1-A.
 Alpha  occ. eigenvalues -- -105.17726 -76.22781 -76.22036  -5.56266  -5.55459
 Alpha  occ. eigenvalues --   -2.74554  -2.18127  -2.17882  -2.17483  -2.17473
 Alpha  occ. eigenvalues --   -2.17457  -2.16285  -1.43818  -1.43507  -1.41596
 Alpha  occ. eigenvalues --   -0.82133  -0.74699  -0.66101  -0.49115  -0.47668
 Alpha  occ. eigenvalues --   -0.46613  -0.36928  -0.26017  -0.16217  -0.04517
 Alpha virt. eigenvalues --    0.04359   0.04883   0.05580   0.06927   0.07498
 Alpha virt. eigenvalues --    0.07855   0.08412   0.09000   0.09357   0.09685
 Alpha virt. eigenvalues --    0.10129   0.10374   0.10571   0.11642   0.12203

 Mulliken charges:
               1
     1  Si   4.696712
     2  Si   3.241173
     3  H   -1.482350
     4  H   -1.543312
     5  H   -1.501569
     6  P    1.237340
     7  H   -1.655687
     8  H   -1.636362
     9  H   -0.648489
    10  H   -0.707458
 Sum of Mulliken charges =  -0.00000

 Dipole moment (field-independent basis, Debye):
    X=              4.1328    Y=             -4.5654    Z=             -3.6235  Tot=              7.1451

 Test job not archived.
 1\1\GINC-SE341\SP\RHF\Aug-CC-pVDZ\H7P1Si2\OHZDE\09-Apr-2025\0\\#t hf a
 ug-cc-pvdz iop(5/13=1,5/36=2,99/5=2) pseudo=read geom=check guess=(rea
 d,tcheck) scf=(maxcycle=1)\\title\\0,1\Si,0,-1.922865,-0.3872,-0.00520
 6\Si,0,0.070401,0.872384,0.014173\H,0,-1.997169,-1.214533,-1.233057\H,
 0,-3.098528,0.515915,0.035473\H,0,-1.973661,-1.284089,1.175008\P,0,1.8
 82461,-0.518207,-0.107629\H,0,0.099733,1.747073,1.213658\H,0,0.115839,
 1.741336,-1.188388\H,0,1.733483,-1.0068,1.217239\H,0,2.817878,0.481627
 ,0.268963\\Version=ES64L-G16RevC.01\State=1-A\HF=-923.2025783\RMSD=2.2

 Normal termination of Gaussian 16 at Wed Apr  9 00:13:36 2025.
