 Gaussian 16, Revision C.01,

 ----------------------------------------------------------------------
 #t hf aug-cc-pvdz symm=none int=(grid=ultrafine) guess=(read,tcheck) s
 table=(opt,rrhf)
 ----------------------------------------------------------------------
 -----
 title
 -----
 Symbolic Z-matrix:
 Charge =  0 Multiplicity = 1

 SCF Done:  E(RHF) =  -372.206655261     A.U. after   14 cycles
 Normal termination of Gaussian 16 at Wed Apr  9 00:33:50 2025.
 Gaussian 16:  ES64L-G16RevC.01  3-Jul-2019

 ----------------------------------------------------------------------
 #t hf aug-cc-pvdz iop(5/13=1,5/36=2,99/5=2) pseudo=read geom=check gue
 ss=(read,tcheck) scf=(maxcycle=1)
 ----------------------------------------------------------------------
 -----
 title
 -----
 Structure from the checkpoint file:  "BDE49_nonexpt_425_mol1.chk"
 Charge =  0 Multiplicity = 1

                         Standard orientation:
 ---------------------------------------------------------------------
 Center     Atomic      Atomic             Coordinates (Angstroms)
 Number     Number       Type             X           Y           Z
 ---------------------------------------------------------------------
      1          9           0       -1.709086   -1.139334   -0.030677
      2          5           0       -1.041528    0.000005    0.041273
      3          9           0       -1.709040    1.139373   -0.030703
      4          7           0        0.364913   -0.000020    0.371064
      5          7           0        1.264277   -0.000090   -0.480003
      6          6           0        2.615649    0.000036    0.088551
      7          1           0        3.134822   -0.879915   -0.302097
      8          1           0        2.602957    0.000176    1.181734
      9          1           0        3.134765    0.879923   -0.302322
 ---------------------------------------------------------------------

 SCF Done:  E(RHF) =  -373.653644964     A.U. after    2 cycles

 The electronic state is 1-A.
 Alpha  occ. eigenvalues --  -29.26712 -29.26635 -15.82633 -15.76933 -11.40202
 Alpha  occ. eigenvalues --   -7.72901  -1.57138  -1.24268  -1.05122  -0.85770
 Alpha  occ. eigenvalues --   -0.77976  -0.69043  -0.63085  -0.62144  -0.54923
 Alpha  occ. eigenvalues --   -0.50646  -0.49359  -0.46269  -0.46099  -0.36924
 Alpha  occ. eigenvalues --   -0.34888  -0.32774  -0.25944
 Alpha virt. eigenvalues --    0.03369   0.03828   0.04088   0.05377   0.06970
 Alpha virt. eigenvalues --    0.07202   0.07364   0.09841   0.10154   0.13257
 Alpha virt. eigenvalues --    0.14635   0.15968   0.16095   0.17475   0.19891

 Mulliken charges:
               1
     1  F   -0.836898
     2  B    1.998826
     3  F   -0.836895
     4  N   -0.210459
     5  N   -1.110736
     6  C   -3.024844
     7  H    1.333174
     8  H    1.354652
     9  H    1.333179
 Sum of Mulliken charges =   0.00000

 Dipole moment (field-independent basis, Debye):
    X=             -1.4092    Y=              0.0000    Z=             -0.4326  Tot=              1.4741

 Test job not archived.
 1\1\GINC-SE073\SP\RHF\Aug-CC-pVDZ\C1H3B1F2N2\OHZDE\09-Apr-2025\0\\#t h
 f aug-cc-pvdz iop(5/13=1,5/36=2,99/5=2) pseudo=read geom=check guess=(
 read,tcheck) scf=(maxcycle=1)\\title\\0,1\F,0,-1.709086,-1.139334,-0.0
 30677\B,0,-1.041528,0.000005,0.041273\F,0,-1.70904,1.139373,-0.030703\
 N,0,0.364913,-0.00002,0.371064\N,0,1.264277,-0.00009,-0.480003\C,0,2.6
 15649,0.000036,0.088551\H,0,3.134822,-0.879915,-0.302097\H,0,2.602957,
 0.000176,1.181734\H,0,3.134765,0.879923,-0.302322\\Version=ES64L-G16Re
 vC.01\State=1-A\HF=-373.653645\RMSD=2.607e-01\Dipole=-0.5544139,0.0000

 Normal termination of Gaussian 16 at Wed Apr  9 00:33:52 2025.
