 Gaussian 16, Revision C.01,

 ----------------------------------------------------------------------
 #t hf aug-cc-pvdz symm=none int=(grid=ultrafine) guess=(read,tcheck) s
 table=(opt,rrhf)
 ----------------------------------------------------------------------
 -----
 title
 -----
 Symbolic Z-matrix:
 Charge =  0 Multiplicity = 1

 SCF Done:  E(RHF) =  -572.331336689     A.U. after   15 cycles
 Normal termination of Gaussian 16 at Tue Apr  8 23:30:27 2025.
 Gaussian 16:  ES64L-G16RevC.01  3-Jul-2019

 ----------------------------------------------------------------------
 #t hf aug-cc-pvdz iop(5/13=1,5/36=2,99/5=2) pseudo=read geom=check gue
 ss=(read,tcheck) scf=(maxcycle=1)
 ----------------------------------------------------------------------
 -----
 title
 -----
 Structure from the checkpoint file:  "BDE49_nonexpt_1344_mol1.chk"
 Charge =  0 Multiplicity = 1

                         Standard orientation:
 ---------------------------------------------------------------------
 Center     Atomic      Atomic             Coordinates (Angstroms)
 Number     Number       Type             X           Y           Z
 ---------------------------------------------------------------------
      1          6           0        2.541693    0.176106    0.808054
      2          6           0        1.973963   -0.366473   -0.507015
      3          1           0        1.978576    1.046864    1.149976
      4          1           0        3.583727    0.482244    0.685472
      5          1           0        2.510083   -0.582795    1.596586
      6          6           0        0.523750   -0.848295   -0.394938
      7          1           0        2.588132   -1.202711   -0.856275
      8          1           0        2.026330    0.408431   -1.276398
      9          6           0       -0.498677    0.269825   -0.235836
     10          1           0        0.399968   -1.555192    0.435577
     11          1           0        0.228168   -1.402841   -1.295390
     12          8           0       -0.242502    1.434531   -0.417097
     13         15           0       -2.222497   -0.215199    0.384817
     14          1           0       -2.360562   -1.418041   -0.352555
     15          1           0       -2.921327    0.588801   -0.544058
 ---------------------------------------------------------------------

 SCF Done:  E(RHF) =  -573.612533388     A.U. after    2 cycles

 The electronic state is 1-A.
 Alpha  occ. eigenvalues -- -105.19218 -21.06346 -11.49183 -11.42672 -11.39353
 Alpha  occ. eigenvalues --  -11.35622  -2.76366  -1.72119  -1.47525  -1.46299
 Alpha  occ. eigenvalues --   -1.43927  -1.22364  -1.04483  -0.88347  -0.79099
 Alpha  occ. eigenvalues --   -0.70119  -0.63360  -0.60813  -0.56947  -0.52553
 Alpha  occ. eigenvalues --   -0.48076  -0.48008  -0.47011  -0.43057  -0.40393
 Alpha  occ. eigenvalues --   -0.26507  -0.17874  -0.03660
 Alpha virt. eigenvalues --    0.03860   0.05400   0.05497   0.05866   0.06157
 Alpha virt. eigenvalues --    0.06849   0.07035   0.08279   0.08714   0.10009
 Alpha virt. eigenvalues --    0.11100   0.11274   0.12807   0.13657   0.14194

 Mulliken charges:
               1
     1  C   -3.606041
     2  C   -3.088838
     3  H    1.347878
     4  H    1.165384
     5  H    1.285077
     6  C   -3.374622
     7  H    1.273360
     8  H    1.494058
     9  C    2.025603
    10  H    1.681607
    11  H    1.481932
    12  O   -2.880022
    13  P    2.329358
    14  H   -0.571121
    15  H   -0.563614
 Sum of Mulliken charges =   0.00000

 Dipole moment (field-independent basis, Debye):
    X=             -0.3282    Y=             -0.2496    Z=              3.0573  Tot=              3.0850

 Test job not archived.
 1\1\GINC-SE220\SP\RHF\Aug-CC-pVDZ\C4H9O1P1\OHZDE\08-Apr-2025\0\\#t hf
 aug-cc-pvdz iop(5/13=1,5/36=2,99/5=2) pseudo=read geom=check guess=(re
 ad,tcheck) scf=(maxcycle=1)\\title\\0,1\C,0,2.541693,0.176106,0.808054
 \C,0,1.973963,-0.366473,-0.507015\H,0,1.978576,1.046864,1.149976\H,0,3
 .583727,0.482244,0.685472\H,0,2.510083,-0.582795,1.596586\C,0,0.52375,
 -0.848295,-0.394938\H,0,2.588132,-1.202711,-0.856275\H,0,2.02633,0.408
 431,-1.276398\C,0,-0.498677,0.269825,-0.235836\H,0,0.399968,-1.555192,
 0.435577\H,0,0.228168,-1.402841,-1.29539\O,0,-0.242502,1.434531,-0.417

 Normal termination of Gaussian 16 at Tue Apr  8 23:30:33 2025.
