 Gaussian 16, Revision C.01,

 ----------------------------------------------------------------------
 #t hf aug-cc-pvdz symm=none int=(grid=ultrafine) guess=(read,tcheck) s
 table=(opt,rrhf)
 ----------------------------------------------------------------------
 -----
 title
 -----
 Symbolic Z-matrix:
 Charge =  0 Multiplicity = 1

 SCF Done:  E(RHF) =  -634.730997022     A.U. after   13 cycles
 Normal termination of Gaussian 16 at Wed Apr  9 00:42:42 2025.
 Gaussian 16:  ES64L-G16RevC.01  3-Jul-2019

 ----------------------------------------------------------------------
 #t hf aug-cc-pvdz iop(5/13=1,5/36=2,99/5=2) pseudo=read geom=check gue
 ss=(read,tcheck) scf=(maxcycle=1)
 ----------------------------------------------------------------------
 -----
 title
 -----
 Structure from the checkpoint file:  "BDE49_nonexpt_693_mol1.chk"
 Charge =  0 Multiplicity = 1

                         Standard orientation:
 ---------------------------------------------------------------------
 Center     Atomic      Atomic             Coordinates (Angstroms)
 Number     Number       Type             X           Y           Z
 ---------------------------------------------------------------------
      1         15           0        0.289350    0.621720   -0.821904
      2          5           0       -1.267988   -0.257116   -0.068233
      3          8           0       -1.544007   -1.592149   -0.233513
      4          8           0       -2.191548    0.507343    0.579648
      5          6           0        1.653862   -0.614539   -0.452112
      6          6           0        1.800286   -1.140758    0.980044
      7          1           0        2.585443   -0.139860   -0.777408
      8          1           0        1.504874   -1.447331   -1.150201
      9          1           0        0.899187   -1.667496    1.305498
     10          1           0        1.983942   -0.330274    1.688942
     11          6           0        0.582792    1.976510    0.421141
     12          1           0        1.472627    2.543483    0.138536
     13          1           0        0.691955    1.621933    1.447447
     14          1           0       -0.275439    2.649695    0.384590
     15          1           0        2.640603   -1.838410    1.057762
     16          1           0       -0.869578   -2.075847   -0.716683
     17          1           0       -2.971119   -0.004933    0.827721
 ---------------------------------------------------------------------

 SCF Done:  E(RHF) =  -636.273704940     A.U. after    2 cycles

 The electronic state is 1-A.
 Alpha  occ. eigenvalues -- -105.14390 -21.06685 -21.05650 -11.40525 -11.36600
 Alpha  occ. eigenvalues --  -11.36305  -7.64129  -2.72798  -1.81742  -1.65768
 Alpha  occ. eigenvalues --   -1.46345  -1.46069  -1.42041  -1.13584  -0.99515
 Alpha  occ. eigenvalues --   -0.87790  -0.75005  -0.66685  -0.62009  -0.61542
 Alpha  occ. eigenvalues --   -0.56805  -0.55114  -0.54708  -0.50311  -0.49687
 Alpha  occ. eigenvalues --   -0.49232  -0.47973  -0.42410  -0.36806  -0.19101
 Alpha  occ. eigenvalues --   -0.14758  -0.00342
 Alpha virt. eigenvalues --    0.03541   0.04721   0.04966   0.06071   0.06337
 Alpha virt. eigenvalues --    0.06735   0.06998   0.07475   0.08120   0.08532
 Alpha virt. eigenvalues --    0.08854   0.09420   0.10569   0.11515   0.11963

 Mulliken charges:
               1
     1  P    4.662245
     2  B    5.635153
     3  O   -3.997679
     4  O   -3.839716
     5  C   -4.910670
     6  C   -3.946817
     7  H    1.206141
     8  H    1.222686
     9  H    1.346085
    10  H    1.441606
    11  C   -6.325024
    12  H    1.154283
    13  H    1.333686
    14  H    1.284889
    15  H    1.068022
    16  H    1.466042
    17  H    1.199067
 Sum of Mulliken charges =  -0.00000

 Dipole moment (field-independent basis, Debye):
    X=              1.9541    Y=             -0.7879    Z=              0.3127  Tot=              2.1301

 Test job not archived.
 1\1\GINC-SE143\SP\RHF\Aug-CC-pVDZ\C3H10B1O2P1\OHZDE\09-Apr-2025\0\\#t
 hf aug-cc-pvdz iop(5/13=1,5/36=2,99/5=2) pseudo=read geom=check guess=
 (read,tcheck) scf=(maxcycle=1)\\title\\0,1\P,0,0.28935,0.62172,-0.8219
 04\B,0,-1.267988,-0.257116,-0.068233\O,0,-1.544007,-1.59215,-0.233513\
 O,0,-2.191548,0.507342,0.579648\C,0,1.653862,-0.614539,-0.452112\C,0,1
 .800286,-1.140758,0.980044\H,0,2.585443,-0.139859,-0.777408\H,0,1.5048
 74,-1.447331,-1.150201\H,0,0.899187,-1.667496,1.305498\H,0,1.983942,-0
 .330274,1.688942\C,0,0.582791,1.97651,0.421141\H,0,1.472626,2.543483,0

 Normal termination of Gaussian 16 at Wed Apr  9 00:42:49 2025.
