 Gaussian 16, Revision C.01,

 ----------------------------------------------------------------------
 #t hf aug-cc-pvdz symm=none int=(grid=ultrafine) guess=(read,tcheck) s
 table=(opt,rrhf)
 ----------------------------------------------------------------------
 -----
 title
 -----
 Symbolic Z-matrix:
 Charge =  0 Multiplicity = 1

 SCF Done:  E(RHF) =  -1429.27070296     A.U. after   14 cycles
 Normal termination of Gaussian 16 at Wed Apr  9 00:17:56 2025.
 Gaussian 16:  ES64L-G16RevC.01  3-Jul-2019

 ----------------------------------------------------------------------
 #t hf aug-cc-pvdz iop(5/13=1,5/36=2,99/5=2) pseudo=read geom=check gue
 ss=(read,tcheck) scf=(maxcycle=1)
 ----------------------------------------------------------------------
 -----
 title
 -----
 Structure from the checkpoint file:  "BDE49_nonexpt_2557_mol1.chk"
 Charge =  0 Multiplicity = 1

                         Standard orientation:
 ---------------------------------------------------------------------
 Center     Atomic      Atomic             Coordinates (Angstroms)
 Number     Number       Type             X           Y           Z
 ---------------------------------------------------------------------
      1         17           0       -2.293843    0.110496   -0.000119
      2         16           0       -0.475293   -0.857118    0.000182
      3          6           0        0.649459    0.505076    0.000070
      4          8           0        0.463882    1.665032    0.000072
      5         17           0        2.293659   -0.265603   -0.000111
 ---------------------------------------------------------------------

 SCF Done:  E(RHF) =  -1430.43723151     A.U. after    2 cycles

 The electronic state is 1-A.
 Alpha  occ. eigenvalues --  -99.94028 -99.93416 -75.79552 -21.13180 -13.20707
 Alpha  occ. eigenvalues --  -13.15381 -13.10569 -11.58347 -10.51185 -10.50688
 Alpha  occ. eigenvalues --   -9.70912  -9.70476  -9.70244  -9.70121  -9.69801
 Alpha  occ. eigenvalues --   -9.69686  -8.13519  -1.78982  -1.39258  -1.34558
 Alpha  occ. eigenvalues --   -1.15643  -0.85273  -0.68745  -0.63781  -0.62620
 Alpha  occ. eigenvalues --   -0.57997  -0.57764  -0.54546  -0.50462  -0.49501
 Alpha  occ. eigenvalues --   -0.35320  -0.30397
 Alpha virt. eigenvalues --    0.01673   0.04908   0.05295   0.07438   0.09021
 Alpha virt. eigenvalues --    0.09680   0.11824   0.11948   0.12410   0.12990
 Alpha virt. eigenvalues --    0.13863   0.15013   0.16556   0.18645   0.19070

 Mulliken charges:
               1
     1  Cl  -0.408278
     2  S    1.586177
     3  C    0.654966
     4  O   -1.932989
     5  Cl   0.100124
 Sum of Mulliken charges =  -0.00000

 Dipole moment (field-independent basis, Debye):
    X=             -0.5959    Y=             -1.8878    Z=              0.0006  Tot=              1.9797

 Test job not archived.
 1\1\GINC-SE090\SP\RHF\Aug-CC-pVDZ\C1Cl2O1S1\OHZDE\09-Apr-2025\0\\#t hf
  aug-cc-pvdz iop(5/13=1,5/36=2,99/5=2) pseudo=read geom=check guess=(r
 ead,tcheck) scf=(maxcycle=1)\\title\\0,1\Cl,0,2.293843,0.110496,0.0001
 19\S,0,0.475293,-0.857118,-0.000182\C,0,-0.649459,0.505076,-0.00007\O,
 0,-0.463882,1.665032,-0.000072\Cl,0,-2.293659,-0.265603,0.000111\\Vers
 ion=ES64L-G16RevC.01\State=1-A\HF=-1430.4372315\RMSD=5.742e-02\Dipole=
 0.2344584,-0.7427345,-0.000239\Quadrupole=-2.2026866,3.353102,-1.15041
 54,-0.3324657,0.0000358,0.0007951\PG=C01 [X(C1Cl2O1S1)]\\@

 Normal termination of Gaussian 16 at Wed Apr  9 00:17:58 2025.
