 Gaussian 16, Revision C.01,

 ----------------------------------------------------------------------
 #t hf aug-cc-pvdz symm=none int=(grid=ultrafine) guess=(read,tcheck) s
 table=(opt,rrhf)
 ----------------------------------------------------------------------
 -----
 title
 -----
 Symbolic Z-matrix:
 Charge =  0 Multiplicity = 1

 SCF Done:  E(RHF) =  -275.760872080     A.U. after   11 cycles
 Normal termination of Gaussian 16 at Tue Apr  8 22:42:25 2025.
 Gaussian 16:  ES64L-G16RevC.01  3-Jul-2019

 ----------------------------------------------------------------------
 #t hf aug-cc-pvdz iop(5/13=1,5/36=2,99/5=2) pseudo=read geom=check gue
 ss=(read,tcheck) scf=(maxcycle=1)
 ----------------------------------------------------------------------
 -----
 title
 -----
 Structure from the checkpoint file:  "BDE49_expt_138_mol1.chk"
 Charge =  0 Multiplicity = 1

                         Standard orientation:
 ---------------------------------------------------------------------
 Center     Atomic      Atomic             Coordinates (Angstroms)
 Number     Number       Type             X           Y           Z
 ---------------------------------------------------------------------
      1          6           0       -0.331667    0.572146    0.000000
      2          6           0        0.331667   -0.572146    0.000000
      3          9           0       -0.331667   -1.743991    0.000000
      4          9           0        0.331667    1.743991    0.000000
      5          1           0       -1.409742    0.663505    0.000000
      6          1           0        1.409742   -0.663505    0.000000
 ---------------------------------------------------------------------

 SCF Done:  E(RHF) =  -276.799541108     A.U. after    2 cycles

 The electronic state is 1-AG.
 Alpha  occ. eigenvalues --  -29.29959 -29.29951 -11.49551 -11.44825  -1.28113
 Alpha  occ. eigenvalues --   -1.01603  -0.76801  -0.71963  -0.61659  -0.54452
 Alpha  occ. eigenvalues --   -0.41888  -0.40083  -0.37368  -0.29913  -0.27724
 Alpha  occ. eigenvalues --   -0.18589
 Alpha virt. eigenvalues --    0.05075   0.05142   0.11034   0.11526   0.11970
 Alpha virt. eigenvalues --    0.12002   0.12597   0.15935   0.15947   0.18160
 Alpha virt. eigenvalues --    0.23651   0.24960   0.26104   0.29584   0.31860

 Mulliken charges:
               1
     1  C   -1.995142
     2  C   -1.995142
     3  F    0.599475
     4  F    0.599475
     5  H    1.395667
     6  H    1.395667
 Sum of Mulliken charges =  -0.00000

 Dipole moment (field-independent basis, Debye):
    X=              0.0000    Y=              0.0000    Z=              0.0000  Tot=              0.0000

 Test job not archived.
 1\1\GINC-SE367\SP\RHF\Aug-CC-pVDZ\C2H2F2\OHZDE\08-Apr-2025\0\\#t hf au
 g-cc-pvdz iop(5/13=1,5/36=2,99/5=2) pseudo=read geom=check guess=(read
 ,tcheck) scf=(maxcycle=1)\\title\\0,1\C,0,-0.331667,0.572146,0.\C,0,0.
 331667,-0.572146,0.\F,0,-0.331667,-1.743991,0.\F,0,0.331667,1.743991,0
 .\H,0,-1.409742,0.663505,0.\H,0,1.409742,-0.663505,0.\\Version=ES64L-G
 16RevC.01\State=1-AG\HF=-276.7995411\RMSD=4.238e-01\Dipole=0.,0.,0.\Qu
 adrupole=0.1985435,2.0983726,-2.296916,0.4006483,0.,0.\PG=C02H [SGH(C2
 H2F2)]\\@

 Normal termination of Gaussian 16 at Tue Apr  8 22:42:26 2025.
