 Gaussian 16, Revision C.01,

 ----------------------------------------------------------------------
 #t hf aug-cc-pvdz symm=none int=(grid=ultrafine) guess=(read,tcheck) s
 table=(opt,rrhf)
 ----------------------------------------------------------------------
 -----
 title
 -----
 Symbolic Z-matrix:
 Charge =  0 Multiplicity = 1

 SCF Done:  E(RHF) =  -2417.26458669     A.U. after   11 cycles
 Normal termination of Gaussian 16 at Wed Apr  9 00:09:36 2025.
 Gaussian 16:  ES64L-G16RevC.01  3-Jul-2019

 ----------------------------------------------------------------------
 #t hf aug-cc-pvdz iop(5/13=1,5/36=2,99/5=2) pseudo=read geom=check gue
 ss=(read,tcheck) scf=(maxcycle=1)
 ----------------------------------------------------------------------
 -----
 title
 -----
 Structure from the checkpoint file:  "BDE49_nonexpt_2318_mol1.chk"
 Charge =  0 Multiplicity = 1

                         Standard orientation:
 ---------------------------------------------------------------------
 Center     Atomic      Atomic             Coordinates (Angstroms)
 Number     Number       Type             X           Y           Z
 ---------------------------------------------------------------------
      1         14           0       -1.419934    1.154272   -0.000000
      2         14           0        0.629594    0.001501   -0.000000
      3         17           0        2.154832    1.399244   -0.000001
      4          1           0       -1.515205    1.980723   -1.218468
      5         17           0        0.826429   -1.183962   -1.674753
      6         17           0       -2.978565   -0.216160    0.000001
      7         17           0        0.826430   -1.183961    1.674754
      8          1           0       -1.515205    1.980724    1.218466
 ---------------------------------------------------------------------

 SCF Done:  E(RHF) =  -2418.53364415     A.U. after    2 cycles

 The electronic state is 1-A.
 Alpha  occ. eigenvalues --  -99.91386 -99.91280 -99.91280 -99.90281 -76.35119
 Alpha  occ. eigenvalues --  -76.28997 -10.48834 -10.48766 -10.48687 -10.47682
 Alpha  occ. eigenvalues --   -9.68683  -9.68592  -9.68575  -9.68136  -9.68129
 Alpha  occ. eigenvalues --   -9.67991  -9.67933  -9.67924  -9.67823  -9.67553
 Alpha  occ. eigenvalues --   -9.66926  -9.66879  -5.68733  -5.62452  -2.30504
 Alpha  occ. eigenvalues --   -2.30452  -2.28745  -2.24788  -2.24115  -2.23076
 Alpha  occ. eigenvalues --   -1.34564  -1.30658  -1.30527  -1.30462  -0.84290
 Alpha  occ. eigenvalues --   -0.76832  -0.62810  -0.62772  -0.60224  -0.57871
 Alpha  occ. eigenvalues --   -0.57852  -0.56763  -0.56530  -0.55046  -0.53979
 Alpha  occ. eigenvalues --   -0.53936  -0.52363  -0.49495  -0.40839
 Alpha virt. eigenvalues --    0.03100   0.03601   0.04902   0.05256   0.05847
 Alpha virt. eigenvalues --    0.06704   0.07193   0.07668   0.07970   0.08398
 Alpha virt. eigenvalues --    0.09973   0.10342   0.11790   0.12012   0.12486

 Mulliken charges:
               1
     1  Si   4.733190
     2  Si   1.872465
     3  Cl  -0.831167
     4  H   -1.641572
     5  Cl  -0.802453
     6  Cl  -0.886432
     7  Cl  -0.802453
     8  H   -1.641575
 Sum of Mulliken charges =  -0.00000

 Dipole moment (field-independent basis, Debye):
    X=             -0.6862    Y=              1.4656    Z=              0.0000  Tot=              1.6183

 Test job not archived.
 1\1\GINC-SE284\SP\RHF\Aug-CC-pVDZ\Cl4H2Si2\OHZDE\09-Apr-2025\0\\#t hf
 aug-cc-pvdz iop(5/13=1,5/36=2,99/5=2) pseudo=read geom=check guess=(re
 ad,tcheck) scf=(maxcycle=1)\\title\\0,1\Si,0,-1.419934,1.154272,0.\Si,
 0,0.629594,0.001501,0.\Cl,0,2.154832,1.399244,-0.000001\H,0,-1.515205,
 1.980723,-1.218468\Cl,0,0.826429,-1.183962,-1.674753\Cl,0,-2.978565,-0
 .21616,0.000001\Cl,0,0.82643,-1.183961,1.674754\H,0,-1.515205,1.980724
 ,1.218466\\Version=ES64L-G16RevC.01\State=1-A\HF=-2418.5336442\RMSD=4.
 545e-02\Dipole=-0.269984,0.5766008,0.\Quadrupole=-2.081728,1.836811,0.

 Normal termination of Gaussian 16 at Wed Apr  9 00:09:39 2025.
