 Gaussian 16, Revision C.01,

 ----------------------------------------------------------------------
 #t hf aug-cc-pvdz symm=none int=(grid=ultrafine) guess=(read,tcheck) s
 table=(opt,rrhf)
 ----------------------------------------------------------------------
 -----
 title
 -----
 Symbolic Z-matrix:
 Charge =  0 Multiplicity = 1

 SCF Done:  E(RHF) =  -979.869103763     A.U. after   17 cycles
 Normal termination of Gaussian 16 at Wed Apr  9 00:03:34 2025.
 Gaussian 16:  ES64L-G16RevC.01  3-Jul-2019

 ----------------------------------------------------------------------
 #t hf aug-cc-pvdz iop(5/13=1,5/36=2,99/5=2) pseudo=read geom=check gue
 ss=(read,tcheck) scf=(maxcycle=1)
 ----------------------------------------------------------------------
 -----
 title
 -----
 Structure from the checkpoint file:  "BDE49_nonexpt_2119_mol1.chk"
 Charge =  0 Multiplicity = 1

                         Standard orientation:
 ---------------------------------------------------------------------
 Center     Atomic      Atomic             Coordinates (Angstroms)
 Number     Number       Type             X           Y           Z
 ---------------------------------------------------------------------
      1         14           0       -0.036205   -0.001392    0.245478
      2          7           0        1.690936   -0.530428    0.632262
      3          7           0       -0.588263   -1.128984   -1.110596
      4          7           0        0.149591    1.646237   -0.568547
      5          6           0       -1.135717   -0.000342    1.721984
      6          8           0        1.215143    2.133640   -0.888974
      7          8           0       -0.583470   -0.819408   -2.285983
      8          8           0        2.315208   -1.342995   -0.021631
      9          8           0       -0.924865   -2.219830   -0.642162
     10          8           0        2.095885    0.076247    1.627440
     11          8           0       -0.966145    2.145927   -0.743331
     12          6           0       -2.646781    0.037879    1.418736
     13          1           0       -0.827710    0.857853    2.328830
     14          1           0       -0.870553   -0.895325    2.295179
     15          1           0       -2.917522    0.934610    0.860516
     16          1           0       -3.206482    0.037350    2.355907
     17          1           0       -2.955795   -0.836653    0.843839
 ---------------------------------------------------------------------

 SCF Done:  E(RHF) =  -982.951812054     A.U. after    2 cycles

 The electronic state is 1-A.
 Alpha  occ. eigenvalues --  -76.38704 -21.15014 -21.14953 -21.14919 -21.13908
 Alpha  occ. eigenvalues --  -21.13905 -21.13852 -16.01716 -16.01698 -16.01663
 Alpha  occ. eigenvalues --  -11.46679 -11.41486  -5.72820  -2.37207  -2.37125
 Alpha  occ. eigenvalues --   -2.37054  -2.02305  -2.02274  -2.02241  -1.73481
 Alpha  occ. eigenvalues --   -1.73417  -1.73158  -1.22416  -1.11966  -1.01075
 Alpha  occ. eigenvalues --   -1.01051  -0.95357  -0.78697  -0.75106  -0.74876
 Alpha  occ. eigenvalues --   -0.70572  -0.69824  -0.69553  -0.67117  -0.64928
 Alpha  occ. eigenvalues --   -0.64600  -0.64554  -0.63597  -0.56255  -0.55043
 Alpha  occ. eigenvalues --   -0.52215  -0.39838  -0.38655  -0.38486  -0.36700
 Alpha  occ. eigenvalues --   -0.35836  -0.34665  -0.34581  -0.34174  -0.34118
 Alpha virt. eigenvalues --    0.02375   0.04653   0.05100   0.05669   0.06240
 Alpha virt. eigenvalues --    0.07023   0.07299   0.07359   0.08559   0.08924
 Alpha virt. eigenvalues --    0.09289   0.10796   0.11609   0.13227   0.13677

 Mulliken charges:
               1
     1  Si   6.271381
     2  N    2.957511
     3  N    2.917682
     4  N    2.937707
     5  C   -4.353977
     6  O   -2.295227
     7  O   -2.234264
     8  O   -2.290126
     9  O   -2.258059
    10  O   -2.241665
    11  O   -2.174575
    12  C   -3.601556
    13  H    1.320995
    14  H    1.286080
    15  H    1.354408
    16  H    1.090240
    17  H    1.313445
 Sum of Mulliken charges =  -0.00000

 Dipole moment (field-independent basis, Debye):
    X=             -2.2418    Y=              0.0668    Z=              2.4498  Tot=              3.3214

 Test job not archived.
 1\1\GINC-SE249\SP\RHF\Aug-CC-pVDZ\C2H5N3O6Si1\OHZDE\09-Apr-2025\0\\#t
 hf aug-cc-pvdz iop(5/13=1,5/36=2,99/5=2) pseudo=read geom=check guess=
 (read,tcheck) scf=(maxcycle=1)\\title\\0,1\Si,0,-0.036205,-0.001392,0.
 245478\N,0,1.690936,-0.530428,0.632262\N,0,-0.588263,-1.128984,-1.1105
 96\N,0,0.149591,1.646237,-0.568547\C,0,-1.135717,-0.000342,1.721984\O,
 0,1.215143,2.13364,-0.888974\O,0,-0.58347,-0.819408,-2.285983\O,0,2.31
 5208,-1.342995,-0.021631\O,0,-0.924865,-2.21983,-0.642162\O,0,2.095885
 ,0.076247,1.62744\O,0,-0.966145,2.145927,-0.743331\C,0,-2.646781,0.037

 Normal termination of Gaussian 16 at Wed Apr  9 00:03:46 2025.
