 Gaussian 16, Revision C.01,

 ----------------------------------------------------------------------
 #t hf aug-cc-pvdz symm=none int=(grid=ultrafine) guess=(read,tcheck) s
 table=(opt,rrhf)
 ----------------------------------------------------------------------
 -----
 title
 -----
 Symbolic Z-matrix:
 Charge =  0 Multiplicity = 1

 SCF Done:  E(RHF) =  -405.492862341     A.U. after   17 cycles
 Normal termination of Gaussian 16 at Tue Apr  8 23:21:56 2025.
 Gaussian 16:  ES64L-G16RevC.01  3-Jul-2019

 ----------------------------------------------------------------------
 #t hf aug-cc-pvdz iop(5/13=1,5/36=2,99/5=2) pseudo=read geom=check gue
 ss=(read,tcheck) scf=(maxcycle=1)
 ----------------------------------------------------------------------
 -----
 title
 -----
 Structure from the checkpoint file:  "BDE49_nonexpt_1185_mol1.chk"
 Charge =  0 Multiplicity = 1

                         Standard orientation:
 ---------------------------------------------------------------------
 Center     Atomic      Atomic             Coordinates (Angstroms)
 Number     Number       Type             X           Y           Z
 ---------------------------------------------------------------------
      1          9           0       -2.518816    0.499741   -0.437331
      2          6           0       -0.306086    0.097204    0.263557
      3          6           0       -1.737824   -0.308963    0.387983
      4          1           0       -2.088999   -0.164908    1.414030
      5          1           0       -1.867358   -1.351506    0.092522
      6          7           0        0.552746   -0.766433   -0.102197
      7          8           0        1.793411   -0.631052   -0.242415
      8          9           0        2.295432    0.843298    0.077887
      9          1           0        0.013760    1.113061    0.473903
 ---------------------------------------------------------------------

 SCF Done:  E(RHF) =  -407.099018113     A.U. after    2 cycles

 The electronic state is 1-A.
 Alpha  occ. eigenvalues --  -29.28068 -29.26827 -21.24702 -15.86487 -11.50874
 Alpha  occ. eigenvalues --  -11.46012  -1.94237  -1.34460  -1.16270  -0.90422
 Alpha  occ. eigenvalues --   -0.75570  -0.72940  -0.70534  -0.64131  -0.62606
 Alpha  occ. eigenvalues --   -0.55728  -0.50291  -0.40825  -0.37741  -0.30519
 Alpha  occ. eigenvalues --   -0.28103  -0.27568  -0.26421  -0.24021
 Alpha virt. eigenvalues --    0.03910   0.05384   0.06216   0.09771   0.10878
 Alpha virt. eigenvalues --    0.11606   0.12983   0.14630   0.15644   0.16096
 Alpha virt. eigenvalues --    0.17150   0.17251   0.18556   0.19621   0.21419

 Mulliken charges:
               1
     1  F    0.326844
     2  C    0.175571
     3  C   -2.499534
     4  H    1.285353
     5  H    1.332553
     6  N   -0.166100
     7  O   -1.811537
     8  F   -0.178222
     9  H    1.535071
 Sum of Mulliken charges =  -0.00000

 Dipole moment (field-independent basis, Debye):
    X=             -0.8767    Y=              2.2851    Z=             -0.0192  Tot=              2.4476

 Test job not archived.
 1\1\GINC-SE461\SP\RHF\Aug-CC-pVDZ\C2H3F2N1O1\OHZDE\08-Apr-2025\0\\#t h
 f aug-cc-pvdz iop(5/13=1,5/36=2,99/5=2) pseudo=read geom=check guess=(
 read,tcheck) scf=(maxcycle=1)\\title\\0,1\F,0,-2.518816,0.499741,-0.43
 7331\C,0,-0.306086,0.097204,0.263557\C,0,-1.737824,-0.308963,0.387983\
 H,0,-2.088999,-0.164908,1.41403\H,0,-1.867358,-1.351506,0.092522\N,0,0
 .552746,-0.766433,-0.102197\O,0,1.793411,-0.631052,-0.242415\F,0,2.295
 432,0.843298,0.077887\H,0,0.01376,1.113061,0.473903\\Version=ES64L-G16
 RevC.01\State=1-A\HF=-407.0990181\RMSD=1.743e-01\Dipole=-0.3449389,0.8

 Normal termination of Gaussian 16 at Tue Apr  8 23:21:58 2025.
