 Gaussian 16, Revision C.01,

 ----------------------------------------------------------------------
 #t hf aug-cc-pvdz symm=none int=(grid=ultrafine) guess=(read,tcheck) s
 table=(opt,rrhf)
 ----------------------------------------------------------------------
 -----
 title
 -----
 Symbolic Z-matrix:
 Charge =  0 Multiplicity = 1

 SCF Done:  E(RHF) =  -1332.39541901     A.U. after   17 cycles
 Normal termination of Gaussian 16 at Wed Apr  9 00:49:09 2025.
 Gaussian 16:  ES64L-G16RevC.01  3-Jul-2019

 ----------------------------------------------------------------------
 #t hf aug-cc-pvdz iop(5/13=1,5/36=2,99/5=2) pseudo=read geom=check gue
 ss=(read,tcheck) scf=(maxcycle=1)
 ----------------------------------------------------------------------
 -----
 title
 -----
 Structure from the checkpoint file:  "BDE49_nonexpt_856_mol1.chk"
 Charge =  0 Multiplicity = 1

                         Standard orientation:
 ---------------------------------------------------------------------
 Center     Atomic      Atomic             Coordinates (Angstroms)
 Number     Number       Type             X           Y           Z
 ---------------------------------------------------------------------
      1         14           0       -0.058969   -0.140923    0.250384
      2          7           0       -0.480981    1.657799   -0.125171
      3          5           0        1.944933   -0.391995    0.003762
      4          7           0       -1.039943   -0.969497   -1.098164
      5         17           0       -0.910356   -0.539543    2.056582
      6          8           0       -1.970201   -1.729704   -0.932125
      7          8           0        2.742864    0.665551   -0.223487
      8          8           0        0.494398    2.422207   -0.170717
      9          8           0        2.383664   -1.665095    0.091070
     10          8           0       -1.635063    2.002079   -0.280108
     11          8           0       -0.561837   -0.627875   -2.185933
     12          1           0        3.335641   -1.756542   -0.047314
     13          1           0        2.257176    1.506264   -0.265039
 ---------------------------------------------------------------------

 SCF Done:  E(RHF) =  -1335.16240726     A.U. after    2 cycles

 The electronic state is 1-A.
 Alpha  occ. eigenvalues --  -99.95088 -76.37139 -21.14196 -21.13645 -21.12752
 Alpha  occ. eigenvalues --  -21.12353 -21.10703 -21.09702 -16.00409 -16.00027
 Alpha  occ. eigenvalues --  -10.52486  -9.72420  -9.71806  -9.71740  -7.70989
 Alpha  occ. eigenvalues --   -5.70942  -2.34492  -2.34197  -2.33571  -2.01383
 Alpha  occ. eigenvalues --   -2.00720  -1.85343  -1.72475  -1.71878  -1.70713
 Alpha  occ. eigenvalues --   -1.35716  -1.08024  -0.99538  -0.82997  -0.78488
 Alpha  occ. eigenvalues --   -0.73270  -0.70987  -0.69094  -0.67613  -0.66867
 Alpha  occ. eigenvalues --   -0.64181  -0.63562  -0.61664  -0.59041  -0.59006
 Alpha  occ. eigenvalues --   -0.53938  -0.48134  -0.43359  -0.40523  -0.37147
 Alpha  occ. eigenvalues --   -0.36153  -0.35190  -0.34686  -0.33767  -0.33429
 Alpha virt. eigenvalues --    0.02802   0.03513   0.04836   0.05015   0.05694
 Alpha virt. eigenvalues --    0.06720   0.07397   0.07613   0.08348   0.08763
 Alpha virt. eigenvalues --    0.09560   0.10387   0.11482   0.12721   0.13334

 Mulliken charges:
               1
     1  Si   2.920895
     2  N    3.466389
     3  B    5.865937
     4  N    3.666471
     5  Cl  -1.047818
     6  O   -2.452847
     7  O   -4.601061
     8  O   -2.238042
     9  O   -3.875672
    10  O   -2.488625
    11  O   -2.230064
    12  H    1.251275
    13  H    1.763161
 Sum of Mulliken charges =  -0.00000

 Dipole moment (field-independent basis, Debye):
    X=              2.3615    Y=             -0.3955    Z=              0.4838  Tot=              2.4428

 Test job not archived.
 1\1\GINC-SE404\SP\RHF\Aug-CC-pVDZ\B1Cl1H2N2O6Si1\OHZDE\09-Apr-2025\0\\
 #t hf aug-cc-pvdz iop(5/13=1,5/36=2,99/5=2) pseudo=read geom=check gue
 ss=(read,tcheck) scf=(maxcycle=1)\\title\\0,1\Si,0,-0.058969,-0.140923
 ,0.250384\N,0,-0.480981,1.657799,-0.125171\B,0,1.944933,-0.391995,0.00
 3762\N,0,-1.039943,-0.969497,-1.098164\Cl,0,-0.910356,-0.539543,2.0565
 82\O,0,-1.970202,-1.729703,-0.932125\O,0,2.742864,0.66555,-0.223487\O,
 0,0.494399,2.422207,-0.170717\O,0,2.383663,-1.665096,0.09107\O,0,-1.63
 5062,2.00208,-0.280108\O,0,-0.561837,-0.627875,-2.185933\H,0,3.33564,-

 Normal termination of Gaussian 16 at Wed Apr  9 00:49:16 2025.
