 Gaussian 16, Revision C.01,

 ----------------------------------------------------------------------
 #t hf aug-cc-pvdz symm=none int=(grid=ultrafine) guess=(read,tcheck) s
 table=(opt,rrhf)
 ----------------------------------------------------------------------
 -----
 title
 -----
 Symbolic Z-matrix:
 Charge =  0 Multiplicity = 1

 SCF Done:  E(RHF) =  -670.903830787     A.U. after   15 cycles
 Normal termination of Gaussian 16 at Tue Apr  8 23:33:40 2025.
 Gaussian 16:  ES64L-G16RevC.01  3-Jul-2019

 ----------------------------------------------------------------------
 #t hf aug-cc-pvdz iop(5/13=1,5/36=2,99/5=2) pseudo=read geom=check gue
 ss=(read,tcheck) scf=(maxcycle=1)
 ----------------------------------------------------------------------
 -----
 title
 -----
 Structure from the checkpoint file:  "BDE49_nonexpt_1417_mol1.chk"
 Charge =  0 Multiplicity = 1

                         Standard orientation:
 ---------------------------------------------------------------------
 Center     Atomic      Atomic             Coordinates (Angstroms)
 Number     Number       Type             X           Y           Z
 ---------------------------------------------------------------------
      1          6           0        1.183031   -1.211462   -0.000007
      2          6           0       -0.211168   -1.206997   -0.000010
      3          6           0       -0.933908   -0.008329   -0.000003
      4          6           0        1.848010    0.002933   -0.000002
      5          6           0        1.168479    1.214460    0.000001
      6          6           0       -0.221486    1.200466    0.000001
      7          1           0        1.749849   -2.134124   -0.000012
      8          1           0       -0.741681   -2.152700   -0.000020
      9          1           0       -0.755952    2.143425    0.000005
     10          1           0        1.729193    2.141085    0.000003
     11         15           0       -2.779402   -0.114545   -0.000004
     12          9           0        3.197544    0.013064   -0.000001
     13          1           0       -3.033015    0.828359   -1.030546
     14          1           0       -3.033007    0.828115    1.030765
 ---------------------------------------------------------------------

 SCF Done:  E(RHF) =  -672.531786176     A.U. after    2 cycles

 The electronic state is 1-A.
 Alpha  occ. eigenvalues -- -105.18850 -29.28967 -11.53936 -11.47354 -11.44390
 Alpha  occ. eigenvalues --  -11.42899 -11.41780 -11.38360  -2.75687  -1.50403
 Alpha  occ. eigenvalues --   -1.45342  -1.44084  -1.36606  -1.14347  -1.11634
 Alpha  occ. eigenvalues --   -0.90963  -0.89704  -0.77380  -0.74331  -0.64721
 Alpha  occ. eigenvalues --   -0.61379  -0.60167  -0.55510  -0.55360  -0.47842
 Alpha  occ. eigenvalues --   -0.42748  -0.39151  -0.35013  -0.27763  -0.26161
 Alpha  occ. eigenvalues --   -0.23972  -0.23946  -0.03273
 Alpha virt. eigenvalues --    0.03452   0.05532   0.06066   0.06694   0.06953
 Alpha virt. eigenvalues --    0.07981   0.08407   0.09253   0.11150   0.11723
 Alpha virt. eigenvalues --    0.11827   0.12320   0.13093   0.13602   0.13965

 Mulliken charges:
               1
     1  C   -4.414563
     2  C   -2.344789
     3  C    1.956404
     4  C    2.817166
     5  C   -4.122417
     6  C   -1.078793
     7  H    1.680698
     8  H    1.770521
     9  H    1.772193
    10  H    1.623362
    11  P    1.045045
    12  F    0.642056
    13  H   -0.673482
    14  H   -0.673401
 Sum of Mulliken charges =  -0.00000

 Dipole moment (field-independent basis, Debye):
    X=              2.8850    Y=             -2.0217    Z=             -0.0003  Tot=              3.5229

 Test job not archived.
 1\1\GINC-SE220\SP\RHF\Aug-CC-pVDZ\C6H6F1P1\OHZDE\08-Apr-2025\0\\#t hf
 aug-cc-pvdz iop(5/13=1,5/36=2,99/5=2) pseudo=read geom=check guess=(re
 ad,tcheck) scf=(maxcycle=1)\\title\\0,1\C,0,1.183031,-1.211462,-0.0000
 07\C,0,-0.211168,-1.206997,-0.00001\C,0,-0.933908,-0.008329,-0.000003\
 C,0,1.84801,0.002933,-0.000002\C,0,1.168479,1.21446,0.000001\C,0,-0.22
 1486,1.200466,0.000001\H,0,1.749849,-2.134124,-0.000012\H,0,-0.741681,
 -2.1527,-0.00002\H,0,-0.755952,2.143425,0.000005\H,0,1.729193,2.141085
 ,0.000003\P,0,-2.779402,-0.114545,-0.000004\F,0,3.197544,0.013064,-0.0

 Normal termination of Gaussian 16 at Tue Apr  8 23:33:46 2025.
