 Gaussian 16, Revision C.01,

 ----------------------------------------------------------------------
 #t hf aug-cc-pvdz symm=none int=(grid=ultrafine) guess=(read,tcheck) s
 table=(opt,rrhf)
 ----------------------------------------------------------------------
 -----
 title
 -----
 Symbolic Z-matrix:
 Charge =  0 Multiplicity = 1

 SCF Done:  E(RHF) =  -734.992831449     A.U. after   15 cycles
 Normal termination of Gaussian 16 at Wed Apr  9 00:50:29 2025.
 Gaussian 16:  ES64L-G16RevC.01  3-Jul-2019

 ----------------------------------------------------------------------
 #t hf aug-cc-pvdz iop(5/13=1,5/36=2,99/5=2) pseudo=read geom=check gue
 ss=(read,tcheck) scf=(maxcycle=1)
 ----------------------------------------------------------------------
 -----
 title
 -----
 Structure from the checkpoint file:  "BDE49_nonexpt_833_mol1.chk"
 Charge =  0 Multiplicity = 1

                         Standard orientation:
 ---------------------------------------------------------------------
 Center     Atomic      Atomic             Coordinates (Angstroms)
 Number     Number       Type             X           Y           Z
 ---------------------------------------------------------------------
      1          6           0        2.715873   -1.302712    0.488938
      2          6           0        1.419555   -1.491245    0.015334
      3          6           0        3.235808   -0.014874    0.562126
      4          6           0        2.457788    1.068808    0.161652
      5          6           0        1.155048    0.893885   -0.314652
      6          6           0        0.616352   -0.413288   -0.391890
      7          1           0        3.313583   -2.154573    0.793582
      8          1           0        1.024501   -2.500413   -0.045189
      9          5           0       -2.473207   -0.062645    0.422540
     10          8           0       -2.063783    0.483807    1.610836
     11          8           0       -3.808415   -0.135633    0.174278
     12          1           0        2.870382    2.071353    0.215742
     13          1           0        4.244069    0.148958    0.926403
     14          6           0        0.353234    2.100729   -0.749194
     15          1           0        0.922957    3.021907   -0.614881
     16          1           0       -0.573127    2.200147   -0.174063
     17          1           0        0.069881    2.033206   -1.803926
     18          1           0       -4.335532    0.211801    0.905908
     19          1           0       -1.107879    0.472532    1.722899
     20         14           0       -1.152039   -0.760510   -0.966909
     21          1           0       -1.404861   -0.145134   -2.295263
     22          1           0       -1.273737   -2.232615   -1.121979
 ---------------------------------------------------------------------

 SCF Done:  E(RHF) =  -737.189445476     A.U. after    2 cycles

 The electronic state is 1-A.
 Alpha  occ. eigenvalues --  -76.19789 -21.06506 -21.05745 -11.51348 -11.44309
 Alpha  occ. eigenvalues --  -11.43030 -11.41095 -11.40693 -11.39293 -11.35987
 Alpha  occ. eigenvalues --   -7.63682  -5.53539  -2.18731  -2.17209  -2.16234
 Alpha  occ. eigenvalues --   -1.80929  -1.65482  -1.34971  -1.14717  -1.09163
 Alpha  occ. eigenvalues --   -0.99686  -0.86835  -0.84043  -0.79050  -0.72180
 Alpha  occ. eigenvalues --   -0.68021  -0.63211  -0.62082  -0.61102  -0.58729
 Alpha  occ. eigenvalues --   -0.56324  -0.54450  -0.52681  -0.50979  -0.49529
 Alpha  occ. eigenvalues --   -0.48804  -0.45806  -0.43559  -0.43188  -0.38873
 Alpha  occ. eigenvalues --   -0.36607  -0.34966  -0.32505  -0.32052
 Alpha virt. eigenvalues --    0.03143   0.04346   0.04629   0.04983   0.05378
 Alpha virt. eigenvalues --    0.05780   0.06129   0.07172   0.07502   0.07829
 Alpha virt. eigenvalues --    0.08630   0.08835   0.09353   0.09761   0.10441

 Mulliken charges:
               1
     1  C   -1.581306
     2  C   -3.149769
     3  C   -1.769364
     4  C   -1.636412
     5  C    3.230500
     6  C    0.337759
     7  H    1.597826
     8  H    1.920756
     9  B    6.440667
    10  O   -4.518341
    11  O   -4.121765
    12  H    1.829831
    13  H    1.541957
    14  C   -6.247379
    15  H    1.253375
    16  H    1.190528
    17  H    1.172776
    18  H    1.284499
    19  H    1.593028
    20  Si   3.549436
    21  H   -2.019242
    22  H   -1.899359
 Sum of Mulliken charges =  -0.00000

 Dipole moment (field-independent basis, Debye):
    X=              1.3752    Y=              0.8033    Z=              1.1059  Tot=              1.9389

 Test job not archived.
 1\1\GINC-SE120\SP\RHF\Aug-CC-pVDZ\C7H11B1O2Si1\OHZDE\09-Apr-2025\0\\#t
  hf aug-cc-pvdz iop(5/13=1,5/36=2,99/5=2) pseudo=read geom=check guess
 =(read,tcheck) scf=(maxcycle=1)\\title\\0,1\C,0,2.715873,-1.302712,0.4
 88938\C,0,1.419555,-1.491245,0.015334\C,0,3.235808,-0.014874,0.562126\
 C,0,2.457788,1.068808,0.161652\C,0,1.155048,0.893885,-0.314652\C,0,0.6
 16352,-0.413288,-0.39189\H,0,3.313583,-2.154573,0.793582\H,0,1.024501,
 -2.500413,-0.045189\B,0,-2.473207,-0.062645,0.42254\O,0,-2.063783,0.48
 3807,1.610836\O,0,-3.808415,-0.135633,0.174278\H,0,2.870382,2.071353,0

 Normal termination of Gaussian 16 at Wed Apr  9 00:50:45 2025.
