 Gaussian 16, Revision C.01,

 ----------------------------------------------------------------------
 #t hf aug-cc-pvdz symm=none int=(grid=ultrafine) guess=(read,tcheck) s
 table=(opt,rrhf)
 ----------------------------------------------------------------------
 -----
 title
 -----
 Symbolic Z-matrix:
 Charge =  0 Multiplicity = 1

 SCF Done:  E(RHF) =  -818.098973839     A.U. after   12 cycles
 Normal termination of Gaussian 16 at Tue Apr  8 23:44:15 2025.
 Gaussian 16:  ES64L-G16RevC.01  3-Jul-2019

 ----------------------------------------------------------------------
 #t hf aug-cc-pvdz iop(5/13=1,5/36=2,99/5=2) pseudo=read geom=check gue
 ss=(read,tcheck) scf=(maxcycle=1)
 ----------------------------------------------------------------------
 -----
 title
 -----
 Structure from the checkpoint file:  "BDE49_nonexpt_1722_mol1.chk"
 Charge =  0 Multiplicity = 1

                         Standard orientation:
 ---------------------------------------------------------------------
 Center     Atomic      Atomic             Coordinates (Angstroms)
 Number     Number       Type             X           Y           Z
 ---------------------------------------------------------------------
      1         15           0        1.021819   -0.636189    0.279346
      2          6           0        1.732623    0.968990   -0.335134
      3          1           0        1.148686    1.848384   -0.061481
      4          1           0        1.823314    0.920194   -1.421607
      5          1           0        2.736591    1.071466    0.087979
      6         16           0       -1.020922   -0.594140   -0.348990
      7          6           0       -1.715324    0.968913    0.311628
      8          1           0       -2.769371    0.978911    0.029452
      9          1           0       -1.226786    1.838897   -0.125841
     10          1           0       -1.635460    0.996347    1.398660
     11          1           0        0.826689   -0.232539    1.627528
 ---------------------------------------------------------------------

 SCF Done:  E(RHF) =  -818.945994953     A.U. after    2 cycles

 The electronic state is 1-A.
 Alpha  occ. eigenvalues -- -105.19227 -75.67836 -13.09780 -13.06640 -13.01757
 Alpha  occ. eigenvalues --  -11.39890 -11.37747  -8.01868  -2.76740  -1.48201
 Alpha  occ. eigenvalues --   -1.45460  -1.44694  -1.15420  -1.01316  -0.91320
 Alpha  occ. eigenvalues --   -0.67137  -0.59547  -0.58476  -0.56863  -0.56252
 Alpha  occ. eigenvalues --   -0.41826  -0.25779  -0.23697  -0.16935  -0.02687
 Alpha virt. eigenvalues --    0.03045   0.04968   0.05508   0.06499   0.07050
 Alpha virt. eigenvalues --    0.07596   0.08459   0.09571   0.11291   0.12198
 Alpha virt. eigenvalues --    0.12471   0.13584   0.14862   0.15568   0.16164

 Mulliken charges:
               1
     1  P    4.030229
     2  C   -5.514943
     3  H    1.206773
     4  H    1.204731
     5  H    1.258336
     6  S   -1.119289
     7  C   -4.743660
     8  H    1.278909
     9  H    1.525442
    10  H    1.393863
    11  H   -0.520390
 Sum of Mulliken charges =  -0.00000

 Dipole moment (field-independent basis, Debye):
    X=              2.7405    Y=             -1.3608    Z=              0.3156  Tot=              3.0760

 Test job not archived.
 1\1\GINC-SE368\SP\RHF\Aug-CC-pVDZ\C2H7P1S1\OHZDE\08-Apr-2025\0\\#t hf
 aug-cc-pvdz iop(5/13=1,5/36=2,99/5=2) pseudo=read geom=check guess=(re
 ad,tcheck) scf=(maxcycle=1)\\title\\0,1\P,0,1.021819,-0.636189,0.27934
 6\C,0,1.732623,0.96899,-0.335134\H,0,1.148686,1.848384,-0.061481\H,0,1
 .823314,0.920194,-1.421607\H,0,2.736591,1.071466,0.087979\S,0,-1.02092
 2,-0.59414,-0.34899\C,0,-1.715324,0.968913,0.311628\H,0,-2.769371,0.97
 8911,0.029452\H,0,-1.226786,1.838897,-0.125841\H,0,-1.63546,0.996347,1
 .39866\H,0,0.826689,-0.232539,1.627528\\Version=ES64L-G16RevC.01\State

 Normal termination of Gaussian 16 at Tue Apr  8 23:44:17 2025.
