 Gaussian 16, Revision C.01,

 ----------------------------------------------------------------------
 #t hf aug-cc-pvdz symm=none int=(grid=ultrafine) guess=(read,tcheck) s
 table=(opt,rrhf)
 ----------------------------------------------------------------------
 -----
 title
 -----
 Symbolic Z-matrix:
 Charge =  0 Multiplicity = 1

 SCF Done:  E(RHF) =  -1019.30239946     A.U. after   11 cycles
 Normal termination of Gaussian 16 at Tue Apr  8 23:41:08 2025.
 Gaussian 16:  ES64L-G16RevC.01  3-Jul-2019

 ----------------------------------------------------------------------
 #t hf aug-cc-pvdz iop(5/13=1,5/36=2,99/5=2) pseudo=read geom=check gue
 ss=(read,tcheck) scf=(maxcycle=1)
 ----------------------------------------------------------------------
 -----
 title
 -----
 Structure from the checkpoint file:  "BDE49_nonexpt_162_mol1.chk"
 Charge =  0 Multiplicity = 1

                         Standard orientation:
 ---------------------------------------------------------------------
 Center     Atomic      Atomic             Coordinates (Angstroms)
 Number     Number       Type             X           Y           Z
 ---------------------------------------------------------------------
      1         17           0        1.507849   -0.558514   -0.000001
      2         17           0       -1.551858   -0.478929   -0.000005
      3          8           0       -0.009628    1.710491    0.000005
      4          5           0       -0.009381    0.370633    0.000010
      5          1           0        0.872070    2.099432    0.000004
 ---------------------------------------------------------------------

 SCF Done:  E(RHF) =  -1020.19739096     A.U. after    2 cycles

 The electronic state is 1-A.
 Alpha  occ. eigenvalues --  -99.90695 -99.90045 -21.10009 -10.48021 -10.47342
 Alpha  occ. eigenvalues --   -9.67954  -9.67398  -9.67276  -9.67245  -9.66789
 Alpha  occ. eigenvalues --   -9.66614  -7.73915  -1.79518  -1.36837  -1.30373
 Alpha  occ. eigenvalues --   -0.81414  -0.70277  -0.63890  -0.59715  -0.54390
 Alpha  occ. eigenvalues --   -0.53189  -0.51373  -0.45702  -0.44986
 Alpha virt. eigenvalues --    0.02824   0.04280   0.04378   0.04768   0.09005
 Alpha virt. eigenvalues --    0.09628   0.10503   0.13130   0.15732   0.16326
 Alpha virt. eigenvalues --    0.16594   0.16979   0.17669   0.18846   0.19642

 Mulliken charges:
               1
     1  Cl  -1.110370
     2  Cl  -1.134121
     3  O   -3.009370
     4  B    4.064946
     5  H    1.188915
 Sum of Mulliken charges =  -0.00000

 Dipole moment (field-independent basis, Debye):
    X=              0.8057    Y=              1.4889    Z=              0.0000  Tot=              1.6929

 Test job not archived.
 1\1\GINC-SE036\SP\RHF\Aug-CC-pVDZ\B1Cl2H1O1\OHZDE\08-Apr-2025\0\\#t hf
  aug-cc-pvdz iop(5/13=1,5/36=2,99/5=2) pseudo=read geom=check guess=(r
 ead,tcheck) scf=(maxcycle=1)\\title\\0,1\Cl,0,1.507849,-0.558514,-0.00
 0001\Cl,0,-1.551858,-0.478929,-0.000005\O,0,-0.009628,1.710491,0.00000
 5\B,0,-0.009381,0.370633,0.00001\H,0,0.87207,2.099432,0.000004\\Versio
 n=ES64L-G16RevC.01\State=1-A\HF=-1020.197391\RMSD=4.569e-02\Dipole=0.3
 169708,0.5857865,0.0000062\Quadrupole=-0.208619,1.0559157,-0.8472967,2
 .0999989,0.0000022,0.0000112\PG=C01 [X(B1Cl2H1O1)]\\@

 Normal termination of Gaussian 16 at Tue Apr  8 23:41:09 2025.
