 Gaussian 16, Revision C.01,

 ----------------------------------------------------------------------
 #t hf aug-cc-pvdz symm=none int=(grid=ultrafine) guess=(read,tcheck) s
 table=opt
 ----------------------------------------------------------------------
 -----
 title
 -----
 Symbolic Z-matrix:
 Charge =  0 Multiplicity = 2

 SCF Done:  E(UHF) =  -194.560140857     A.U. after   15 cycles
 Normal termination of Gaussian 16 at Tue Apr  8 22:37:59 2025.
 Gaussian 16:  ES64L-G16RevC.01  3-Jul-2019

 ----------------------------------------------------------------------
 #t hf aug-cc-pvdz iop(5/13=1,5/36=2,99/5=2) pseudo=read geom=check gue
 ss=(read,tcheck) scf=(maxcycle=1)
 ----------------------------------------------------------------------
 -----
 title
 -----
 Structure from the checkpoint file:  "BDE49_expt_1159_mol2.chk"
 Charge =  0 Multiplicity = 2

                         Standard orientation:
 ---------------------------------------------------------------------
 Center     Atomic      Atomic             Coordinates (Angstroms)
 Number     Number       Type             X           Y           Z
 ---------------------------------------------------------------------
      1          6           0       -0.000000    1.276809    0.000000
      2          6           0       -0.738114   -0.989337    0.220888
      3          6           0        0.738114   -0.989337   -0.220888
      4          6           0        1.233720    0.435618    0.119935
      5          1           0        0.799209   -1.148095   -1.302846
      6          1           0        1.326978   -1.774334    0.259281
      7          1           0        1.639208    0.465643    1.145474
      8          1           0        2.050739    0.768869   -0.531534
      9          6           0       -1.233721    0.435618   -0.119935
     10          1           0       -0.000000    2.359605   -0.000002
     11          1           0       -1.639209    0.465643   -1.145473
     12          1           0       -2.050738    0.768868    0.531535
     13          1           0       -0.799208   -1.148096    1.302845
     14          1           0       -1.326978   -1.774334   -0.259281
 ---------------------------------------------------------------------

 SCF Done:  E(UHF) =  -195.540025256     A.U. after    2 cycles

 The electronic state is 2-A.
 Alpha  occ. eigenvalues --  -11.42941 -11.41966 -11.37056 -11.36569 -11.33262
 Alpha  occ. eigenvalues --   -1.31770  -1.03582  -1.02486  -0.81643  -0.79182
 Alpha  occ. eigenvalues --   -0.67070  -0.65077  -0.57328  -0.53787  -0.47673
 Alpha  occ. eigenvalues --   -0.46667  -0.44267  -0.43930  -0.42668  -0.28365
 Alpha virt. eigenvalues --    0.04011   0.05669   0.05764   0.06042   0.06100
 Alpha virt. eigenvalues --    0.06169   0.06433   0.06691   0.06923   0.12869
 Alpha virt. eigenvalues --    0.13541   0.14568   0.14981   0.15306   0.15532

  Beta  occ. eigenvalues --  -11.42659 -11.42049 -11.37269 -11.35470 -11.32626
  Beta  occ. eigenvalues --   -1.30071  -1.03498  -0.99254  -0.81433  -0.75193
  Beta  occ. eigenvalues --   -0.66350  -0.63780  -0.56400  -0.50914  -0.46824
  Beta  occ. eigenvalues --   -0.45949  -0.43836  -0.43180  -0.42591
  Beta virt. eigenvalues --    0.04062   0.05716   0.05771   0.05975   0.06117
  Beta virt. eigenvalues --    0.06151   0.06444   0.06690   0.06947   0.11076
  Beta virt. eigenvalues --    0.12937   0.13660   0.14683   0.15124   0.15519

 Mulliken charges and spin densities:
               1          2
     1  C   -0.496291   1.807448
     2  C   -2.659588   0.018387
     3  C   -2.659590   0.018388
     4  C   -3.102371  -0.437886
     5  H    1.384780   0.003105
     6  H    1.269736   0.001465
     7  H    1.351182   0.017182
     8  H    1.281794   0.004942
     9  C   -3.102376  -0.437885
    10  H    1.445228  -0.021840
    11  H    1.351183   0.017182
    12  H    1.281795   0.004942
    13  H    1.384781   0.003105
    14  H    1.269736   0.001465
 Sum of Mulliken charges =  -0.00000   1.00000

 Dipole moment (field-independent basis, Debye):
    X=             -0.0000    Y=             -0.1284    Z=             -0.0000  Tot=              0.1284
                          Isotropic Fermi Contact Couplings
        Atom                 a.u.       MegaHertz       Gauss      10(-4) cm-1
     1  C(13)              0.13798     155.11530      55.34900      51.74089
     2  C(13)              0.00322       3.62101       1.29207       1.20784
     3  C(13)              0.00322       3.62108       1.29209       1.20786
     4  C(13)             -0.04000     -44.96724     -16.04543     -14.99946
     5  H(1)              -0.00055      -2.44200      -0.87136      -0.81456
     6  H(1)              -0.00042      -1.88592      -0.67294      -0.62908
     7  H(1)               0.01990      88.96353      31.74440      29.67504
     8  H(1)               0.01167      52.18187      18.61979      17.40600

 Normal termination of Gaussian 16 at Tue Apr  8 22:38:03 2025.
