 Gaussian 16, Revision C.01,

 ----------------------------------------------------------------------
 #t hf aug-cc-pvdz symm=none int=(grid=ultrafine) guess=(read,tcheck) s
 table=(opt,rrhf)
 ----------------------------------------------------------------------
 -----
 title
 -----
 Symbolic Z-matrix:
 Charge =  0 Multiplicity = 1

 SCF Done:  E(RHF) =  -1078.67038769     A.U. after   15 cycles
 Normal termination of Gaussian 16 at Tue Apr  8 23:48:11 2025.
 Gaussian 16:  ES64L-G16RevC.01  3-Jul-2019

 ----------------------------------------------------------------------
 #t hf aug-cc-pvdz iop(5/13=1,5/36=2,99/5=2) pseudo=read geom=check gue
 ss=(read,tcheck) scf=(maxcycle=1)
 ----------------------------------------------------------------------
 -----
 title
 -----
 Structure from the checkpoint file:  "BDE49_nonexpt_1771_mol1.chk"
 Charge =  0 Multiplicity = 1

                         Standard orientation:
 ---------------------------------------------------------------------
 Center     Atomic      Atomic             Coordinates (Angstroms)
 Number     Number       Type             X           Y           Z
 ---------------------------------------------------------------------
      1          6           0        0.570469   -1.205053    0.275029
      2          6           0        1.928588   -1.214703   -0.025901
      3          6           0        2.582488   -0.000007   -0.171803
      4          6           0        1.928596    1.214700   -0.025946
      5          6           0        0.570477    1.205070    0.274984
      6          6           0       -0.134678    0.000014    0.429572
      7          1           0        0.057484   -2.153921    0.391755
      8          1           0        2.481706   -2.137824   -0.146053
      9         14           0       -1.951573    0.000028    0.825612
     10          1           0        2.481720    2.137812   -0.146133
     11          9           0        3.899388   -0.000017   -0.461386
     12          1           0        0.057499    2.153946    0.391674
     13         17           0       -3.110904   -0.000029   -0.915815
     14          1           0       -2.320576    1.220491    1.567914
     15          1           0       -2.320580   -1.220384    1.567995
 ---------------------------------------------------------------------

 SCF Done:  E(RHF) =  -1080.50290256     A.U. after    2 cycles

 The electronic state is 1-A.
 Alpha  occ. eigenvalues --  -99.87966 -76.26387 -29.29593 -11.54522 -11.48066
 Alpha  occ. eigenvalues --  -11.45218 -11.42649 -11.42425 -11.38803 -10.45341
 Alpha  occ. eigenvalues --   -9.65259  -9.64649  -9.64617  -5.59966  -2.24447
 Alpha  occ. eigenvalues --   -2.22971  -2.21981  -1.38305  -1.28229  -1.16276
 Alpha  occ. eigenvalues --   -1.12324  -0.93246  -0.90404  -0.78908  -0.77540
 Alpha  occ. eigenvalues --   -0.66351  -0.62439  -0.60867  -0.60219  -0.56689
 Alpha  occ. eigenvalues --   -0.55026  -0.54895  -0.52436  -0.48846  -0.47070
 Alpha  occ. eigenvalues --   -0.43095  -0.42467  -0.39075  -0.35593  -0.28274
 Alpha  occ. eigenvalues --   -0.25074
 Alpha virt. eigenvalues --    0.03034   0.05045   0.05174   0.05833   0.05991
 Alpha virt. eigenvalues --    0.06816   0.08172   0.08187   0.09299   0.09882
 Alpha virt. eigenvalues --    0.10434   0.10445   0.11833   0.12171   0.12814

 Mulliken charges:
               1
     1  C   -0.471593
     2  C   -4.045338
     3  C    3.269746
     4  C   -4.045370
     5  C   -0.471623
     6  C   -2.149947
     7  H    1.817798
     8  H    1.674406
     9  Si   4.649524
    10  H    1.674408
    11  F    0.621160
    12  H    1.817798
    13  Cl  -0.972082
    14  H   -1.684446
    15  H   -1.684441
 Sum of Mulliken charges =  -0.00000

 Dipole moment (field-independent basis, Debye):
    X=              4.5857    Y=              0.0000    Z=              0.4430  Tot=              4.6070

 Test job not archived.
 1\1\GINC-SE103\SP\RHF\Aug-CC-pVDZ\C6H6Cl1F1Si1\OHZDE\08-Apr-2025\0\\#t
  hf aug-cc-pvdz iop(5/13=1,5/36=2,99/5=2) pseudo=read geom=check guess
 =(read,tcheck) scf=(maxcycle=1)\\title\\0,1\C,0,0.570469,-1.205053,0.2
 75029\C,0,1.928588,-1.214703,-0.025901\C,0,2.582488,-0.000007,-0.17180
 3\C,0,1.928596,1.2147,-0.025946\C,0,0.570477,1.20507,0.274984\C,0,-0.1
 34678,0.000014,0.429572\H,0,0.057484,-2.153921,0.391755\H,0,2.481706,-
 2.137824,-0.146053\Si,0,-1.951573,0.000028,0.825612\H,0,2.48172,2.1378
 12,-0.146133\F,0,3.899388,-0.000017,-0.461386\H,0,0.057499,2.153946,0.

 Normal termination of Gaussian 16 at Tue Apr  8 23:48:19 2025.
