 Gaussian 16, Revision C.01,

 ----------------------------------------------------------------------
 #t hf aug-cc-pvdz symm=none int=(grid=ultrafine) guess=(read,tcheck) s
 table=opt
 ----------------------------------------------------------------------
 -----
 title
 -----
 Symbolic Z-matrix:
 Charge =  0 Multiplicity = 2

 SCF Done:  E(UHF) =  -566.548292849     A.U. after   17 cycles
 Normal termination of Gaussian 16 at Tue Apr  8 23:26:59 2025.
 Gaussian 16:  ES64L-G16RevC.01  3-Jul-2019

 ----------------------------------------------------------------------
 #t hf aug-cc-pvdz iop(5/13=1,5/36=2,99/5=2) pseudo=read geom=check gue
 ss=(read,tcheck) scf=(maxcycle=1)
 ----------------------------------------------------------------------
 -----
 title
 -----
 Structure from the checkpoint file:  "BDE49_nonexpt_1269_mol3.chk"
 Charge =  0 Multiplicity = 2

                         Standard orientation:
 ---------------------------------------------------------------------
 Center     Atomic      Atomic             Coordinates (Angstroms)
 Number     Number       Type             X           Y           Z
 ---------------------------------------------------------------------
      1         15           0       -0.153537   -0.076245    0.313484
      2          8           0       -1.472970   -0.410611   -0.258385
      3          8           0        1.086070   -1.012373   -0.129311
      4          8           0        0.469703    1.373070   -0.120349
      5          1           0       -0.213654    2.049728   -0.210755
      6          1           0        1.854286   -0.506732   -0.427147
 ---------------------------------------------------------------------

 SCF Done:  E(UHF) =  -567.649158579     A.U. after    2 cycles

 The electronic state is 2-A.
 Alpha  occ. eigenvalues -- -105.31471 -21.13808 -21.13299 -21.06081  -2.93201
 Alpha  occ. eigenvalues --   -1.98426  -1.88115  -1.79944  -1.50620  -1.42007
 Alpha  occ. eigenvalues --   -1.28344  -0.70854  -0.64185  -0.51891  -0.45013
 Alpha  occ. eigenvalues --   -0.44298  -0.38311  -0.37162  -0.31650  -0.22512
 Alpha  occ. eigenvalues --   -0.04957
 Alpha virt. eigenvalues --    0.04458   0.05611   0.10097   0.10422   0.10549
 Alpha virt. eigenvalues --    0.16526   0.18605   0.19633   0.21163   0.21629
 Alpha virt. eigenvalues --    0.22323   0.23208   0.25320   0.26266   0.27377

  Beta  occ. eigenvalues -- -105.30938 -21.13274 -21.12768 -21.04872  -2.91876
  Beta  occ. eigenvalues --   -1.97464  -1.87217  -1.76536  -1.40837  -1.39170
  Beta  occ. eigenvalues --   -1.24443  -0.67717  -0.63820  -0.50346  -0.43239
  Beta  occ. eigenvalues --   -0.42584  -0.36906  -0.29804  -0.29240  -0.16471
  Beta virt. eigenvalues --    0.03010   0.05626   0.08266   0.10250   0.10732
  Beta virt. eigenvalues --    0.11925   0.18778   0.19644   0.21340   0.21800
  Beta virt. eigenvalues --    0.22706   0.23220   0.24247   0.26000   0.27612

 Mulliken charges and spin densities:
               1          2
     1  P    5.535779   1.068482
     2  O   -2.281372  -0.118192
     3  O   -2.484073  -0.089113
     4  O   -2.484444  -0.044374
     5  H    0.872861   0.082210
     6  H    0.841249   0.100987
 Sum of Mulliken charges =   0.00000   1.00000

 Dipole moment (field-independent basis, Debye):
    X=              2.6515    Y=              1.2132    Z=              1.0324  Tot=              3.0932
                          Isotropic Fermi Contact Couplings
        Atom                 a.u.       MegaHertz       Gauss      10(-4) cm-1
     1  P(31)              0.41660     754.51149     269.22846     251.67794
     2  O(17)              0.17806    -107.93793     -38.51494     -36.00422
     3  O(17)              0.12051     -73.05169     -26.06666     -24.36742
     4  O(17)              0.10560     -64.01493     -22.84212     -21.35308
     5  H(1)              -0.00182      -8.15146      -2.90865      -2.71904
     6  H(1)              -0.00050      -2.24231      -0.80011      -0.74795
 --------------------------------------------------------
       Center         ----  Spin Dipole Couplings  ----

 Normal termination of Gaussian 16 at Tue Apr  8 23:27:01 2025.
