 Gaussian 16, Revision C.01,

 ----------------------------------------------------------------------
 #t hf aug-cc-pvdz symm=none int=(grid=ultrafine) guess=(read,tcheck) s
 table=(opt,rrhf)
 ----------------------------------------------------------------------
 -----
 title
 -----
 Symbolic Z-matrix:
 Charge =  0 Multiplicity = 1

 SCF Done:  E(RHF) =  -777.043176182     A.U. after   14 cycles
 Normal termination of Gaussian 16 at Wed Apr  9 00:53:42 2025.
 Gaussian 16:  ES64L-G16RevC.01  3-Jul-2019

 ----------------------------------------------------------------------
 #t hf aug-cc-pvdz iop(5/13=1,5/36=2,99/5=2) pseudo=read geom=check gue
 ss=(read,tcheck) scf=(maxcycle=1)
 ----------------------------------------------------------------------
 -----
 title
 -----
 Structure from the checkpoint file:  "BDE49_nonexpt_972_mol1.chk"
 Charge =  0 Multiplicity = 1

                         Standard orientation:
 ---------------------------------------------------------------------
 Center     Atomic      Atomic             Coordinates (Angstroms)
 Number     Number       Type             X           Y           Z
 ---------------------------------------------------------------------
      1         16           0       -0.482727   -0.034612    0.110142
      2          9           0        2.040104    0.083257    0.016616
      3          8           0       -0.397228    0.974506   -1.146253
      4          8           0       -0.493386    0.742334    1.305883
      5          8           0       -1.437365   -1.037438   -0.225515
      6          7           0        1.002059   -0.877790    0.045525
      7          1           0        1.053962   -1.320053   -0.875570
      8          1           0       -0.081851    1.833849   -0.827844
 ---------------------------------------------------------------------

 SCF Done:  E(RHF) =  -778.814157618     A.U. after    2 cycles

 The electronic state is 1-A.
 Alpha  occ. eigenvalues --  -75.96738 -29.32424 -21.16700 -21.10040 -21.09970
 Alpha  occ. eigenvalues --  -15.87449 -13.60971 -13.49849 -13.42880  -8.32251
 Alpha  occ. eigenvalues --   -1.94764  -1.76193  -1.71045  -1.46636  -0.98395
 Alpha  occ. eigenvalues --   -0.80081  -0.76451  -0.67098  -0.64683  -0.57768
 Alpha  occ. eigenvalues --   -0.49240  -0.48189  -0.45994  -0.43880  -0.41585
 Alpha  occ. eigenvalues --   -0.40740  -0.40347  -0.30247  -0.26658
 Alpha virt. eigenvalues --    0.03536   0.04224   0.09355   0.10231   0.11887
 Alpha virt. eigenvalues --    0.12853   0.15535   0.16103   0.17393   0.18724
 Alpha virt. eigenvalues --    0.19460   0.20492   0.23054   0.23640   0.24192

 Mulliken charges:
               1
     1  S    7.995747
     2  F   -0.106368
     3  O   -2.522667
     4  O   -2.540358
     5  O   -2.598814
     6  N   -1.720038
     7  H    0.718103
     8  H    0.774396
 Sum of Mulliken charges =  -0.00000

 Dipole moment (field-independent basis, Debye):
    X=              2.4194    Y=              1.9399    Z=             -1.7216  Tot=              3.5469

 Test job not archived.
 1\1\GINC-SE112\SP\RHF\Aug-CC-pVDZ\F1H2N1O3S1\OHZDE\09-Apr-2025\0\\#t h
 f aug-cc-pvdz iop(5/13=1,5/36=2,99/5=2) pseudo=read geom=check guess=(
 read,tcheck) scf=(maxcycle=1)\\title\\0,1\S,0,-0.482727,-0.034612,0.11
 0142\F,0,2.040104,0.083258,0.016616\O,0,-0.397228,0.974506,-1.146253\O
 ,0,-0.493386,0.742334,1.305883\O,0,-1.437365,-1.037438,-0.225515\N,0,1
 .002059,-0.87779,0.045525\H,0,1.053962,-1.320053,-0.87557\H,0,-0.08185
 1,1.833849,-0.827844\\Version=ES64L-G16RevC.01\State=1-A\HF=-778.81415
 76\RMSD=4.300e-02\Dipole=0.9518824,0.7632146,-0.6773335\Quadrupole=0.1

 Normal termination of Gaussian 16 at Wed Apr  9 00:53:44 2025.
