 Gaussian 16, Revision C.01,

 ----------------------------------------------------------------------
 #t hf aug-cc-pvdz symm=none int=(grid=ultrafine) guess=(read,tcheck) s
 table=opt
 ----------------------------------------------------------------------
 -----
 title
 -----
 Symbolic Z-matrix:
 Charge =  0 Multiplicity = 2

 SCF Done:  E(UHF) =  -947.403273330     A.U. after   21 cycles
 Normal termination of Gaussian 16 at Tue Apr  8 23:18:55 2025.
 Gaussian 16:  ES64L-G16RevC.01  3-Jul-2019

 ----------------------------------------------------------------------
 #t hf aug-cc-pvdz iop(5/13=1,5/36=2,99/5=2) pseudo=read geom=check gue
 ss=(read,tcheck) scf=(maxcycle=1)
 ----------------------------------------------------------------------
 -----
 title
 -----
 Structure from the checkpoint file:  "BDE49_nonexpt_1061_mol2.chk"
 Charge =  0 Multiplicity = 2

                         Standard orientation:
 ---------------------------------------------------------------------
 Center     Atomic      Atomic             Coordinates (Angstroms)
 Number     Number       Type             X           Y           Z
 ---------------------------------------------------------------------
      1          8           0        1.264628    1.524170   -0.000246
      2          6           0        0.548344    0.547937    0.000360
      3         16           0        1.396420   -0.998750   -0.000133
      4         16           0       -1.219344    0.686898    0.000111
      5          6           0       -1.757626   -1.055371    0.000024
      6          1           0       -2.847602   -1.013187   -0.000122
      7          1           0       -1.423594   -1.572978    0.898326
      8          1           0       -1.423359   -1.572967   -0.898198
 ---------------------------------------------------------------------

 SCF Done:  E(UHF) =  -948.488462445     A.U. after    2 cycles

 The electronic state is 2-A.
 Alpha  occ. eigenvalues --  -75.74653 -75.72243 -21.07677 -13.16807 -13.14978
 Alpha  occ. eigenvalues --  -13.13414 -13.11862 -13.06247 -13.04822 -11.52084
 Alpha  occ. eigenvalues --  -11.42641  -8.08506  -8.06453  -1.74099  -1.25605
 Alpha  occ. eigenvalues --   -1.15938  -1.00226  -0.74772  -0.63602  -0.62138
 Alpha  occ. eigenvalues --   -0.58527  -0.52802  -0.51875  -0.42583  -0.32426
 Alpha  occ. eigenvalues --   -0.27934  -0.26240  -0.26001
 Alpha virt. eigenvalues --    0.01866   0.04932   0.05472   0.06066   0.07548
 Alpha virt. eigenvalues --    0.10161   0.11309   0.11790   0.13476   0.14238
 Alpha virt. eigenvalues --    0.14302   0.14784   0.15592   0.16004   0.18232

  Beta  occ. eigenvalues --  -75.73629 -75.72246 -21.07452 -13.16258 -13.14910
  Beta  occ. eigenvalues --  -13.13398 -13.05773 -13.05736 -13.04704 -11.52201
  Beta  occ. eigenvalues --  -11.42613  -8.07371  -8.06445  -1.73639  -1.24763
  Beta  occ. eigenvalues --   -1.09099  -0.99590  -0.73119  -0.62708  -0.62080
  Beta  occ. eigenvalues --   -0.57531  -0.52795  -0.51032  -0.42039  -0.26411
  Beta  occ. eigenvalues --   -0.26061  -0.25912
  Beta virt. eigenvalues --    0.00327   0.04292   0.05023   0.05484   0.06373
  Beta virt. eigenvalues --    0.07661   0.10606   0.11315   0.12147   0.13604
  Beta virt. eigenvalues --    0.14354   0.14658   0.15591   0.15599   0.16927

 Mulliken charges and spin densities:
               1          2
     1  O   -2.307564  -0.005148
     2  C    0.366746  -0.095414
     3  S    0.888110   1.111275
     4  S    1.441799   0.035067
     5  C   -4.571160  -0.058541
     6  H    1.324051  -0.000712
     7  H    1.428922   0.006746
     8  H    1.429097   0.006726
 Sum of Mulliken charges =  -0.00000   1.00000

 Dipole moment (field-independent basis, Debye):
    X=             -1.6579    Y=             -1.4452    Z=             -0.0018  Tot=              2.1994
                          Isotropic Fermi Contact Couplings
        Atom                 a.u.       MegaHertz       Gauss      10(-4) cm-1
     1  O(17)              0.03090     -18.73308      -6.68443      -6.24868
     2  C(13)             -0.01129     -12.68686      -4.52699      -4.23188
     3  S(33)              0.32744     112.46524      40.13040      37.51437
     4  S(33)             -0.02315      -7.95132      -2.83723      -2.65228
     5  C(13)              0.01659      18.65232       6.65561       6.22175
     6  H(1)               0.00124       5.56132       1.98442       1.85506
     7  H(1)               0.00051       2.29684       0.81957       0.76614
     8  H(1)               0.00051       2.29786       0.81993       0.76648

 Normal termination of Gaussian 16 at Tue Apr  8 23:18:58 2025.
