 Gaussian 16, Revision C.01,

 ----------------------------------------------------------------------
 #t hf aug-cc-pvdz symm=none int=(grid=ultrafine) guess=(read,tcheck) s
 table=(opt,rrhf)
 ----------------------------------------------------------------------
 -----
 title
 -----
 Symbolic Z-matrix:
 Charge =  0 Multiplicity = 1

 SCF Done:  E(RHF) =  -344.963535976     A.U. after   13 cycles

 1\1\GINC-SE044\Stability\RHF\Aug-CC-pVDZ\C5H10O2\OHZDE\08-Apr-2025\0\\
 #t hf aug-cc-pvdz symm=none int=(grid=ultrafine) guess=(read,tcheck) s
 table=(opt,rrhf)\\title\\0,1\C,0,0.321983,-0.504954,0.991216\C,0,1.308
 693,0.264043,0.1461\O,0,1.406299,1.463539,0.083674\O,0,2.095944,-0.564
 537,-0.587777\H,0,2.675774,0.005317,-1.114848\C,0,-0.772931,-1.195274,
 0.148833\H,0,-0.111751,0.199359,1.701045\H,0,0.869281,-1.266107,1.5542
 79\C,0,-1.609827,-0.25259,-0.729643\H,0,-1.434494,-1.729795,0.839635\H
 ,0,-0.300687,-1.953246,-0.482687\C,0,-2.368819,0.831641,0.042527\H,0,-

 Normal termination of Gaussian 16 at Tue Apr  8 22:37:59 2025.
 Gaussian 16:  ES64L-G16RevC.01  3-Jul-2019

 ----------------------------------------------------------------------
 #t hf aug-cc-pvdz iop(5/13=1,5/36=2,99/5=2) pseudo=read geom=check gue
 ss=(read,tcheck) scf=(maxcycle=1)
 ----------------------------------------------------------------------
 -----
 title
 -----
 Structure from the checkpoint file:  "BDE49_expt_1116_mol1.chk"
 Charge =  0 Multiplicity = 1

                         Standard orientation:
 ---------------------------------------------------------------------
 Center     Atomic      Atomic             Coordinates (Angstroms)
 Number     Number       Type             X           Y           Z
 ---------------------------------------------------------------------
      1          6           0        0.321983   -0.504954    0.991216
      2          6           0        1.308693    0.264043    0.146100
      3          8           0        1.406299    1.463539    0.083674
      4          8           0        2.095944   -0.564538   -0.587777
      5          1           0        2.675774    0.005316   -1.114848
      6          6           0       -0.772931   -1.195274    0.148833
      7          1           0       -0.111751    0.199359    1.701045
      8          1           0        0.869281   -1.266107    1.554279
      9          6           0       -1.609827   -0.252590   -0.729643
     10          1           0       -1.434494   -1.729795    0.839635
     11          1           0       -0.300687   -1.953246   -0.482687
     12          6           0       -2.368819    0.831641    0.042527
     13          1           0       -2.322827   -0.863963   -1.293379
     14          1           0       -0.964028    0.221378   -1.477948
     15          1           0       -2.999677    0.394469    0.823603
     16          1           0       -3.018391    1.402144   -0.626372
     17          1           0       -1.685735    1.541239    0.515291
 ---------------------------------------------------------------------

 SCF Done:  E(RHF) =  -346.553455946     A.U. after    2 cycles

 The electronic state is 1-A.
 Alpha  occ. eigenvalues --  -21.12051 -21.05256 -11.52513 -11.43887 -11.41525
 Alpha  occ. eigenvalues --  -11.38200 -11.35226  -1.82543  -1.65089  -1.25089
 Alpha  occ. eigenvalues --   -1.10300  -0.96565  -0.84903  -0.77986  -0.65876
 Alpha  occ. eigenvalues --   -0.64444  -0.60904  -0.59760  -0.56624  -0.55091
 Alpha  occ. eigenvalues --   -0.52256  -0.50469  -0.47287  -0.45286  -0.43697
 Alpha  occ. eigenvalues --   -0.43215  -0.33878  -0.29293
 Alpha virt. eigenvalues --    0.03854   0.05125   0.05318   0.05506   0.05638
 Alpha virt. eigenvalues --    0.06001   0.06693   0.07532   0.08006   0.09153
 Alpha virt. eigenvalues --    0.10745   0.13019   0.13390   0.13724   0.14115

 Mulliken charges:
               1
     1  C   -3.623785
     2  C    6.499062
     3  O   -3.168256
     4  O   -3.091292
     5  H    0.865964
     6  C   -2.922825
     7  H    1.484261
     8  H    1.329057
     9  C   -3.108461
    10  H    1.291927
    11  H    1.386706
    12  C   -3.637578
    13  H    1.242014
    14  H    1.646350
    15  H    1.285955
    16  H    1.137904
    17  H    1.382998
 Sum of Mulliken charges =   0.00000

 Dipole moment (field-independent basis, Debye):
    X=             -0.3318    Y=             -1.3275    Z=             -0.2000  Tot=              1.3829

 Test job not archived.
 1\1\GINC-SE044\SP\RHF\Aug-CC-pVDZ\C5H10O2\OHZDE\08-Apr-2025\0\\#t hf a
 ug-cc-pvdz iop(5/13=1,5/36=2,99/5=2) pseudo=read geom=check guess=(rea
 d,tcheck) scf=(maxcycle=1)\\title\\0,1\C,0,0.321983,-0.504954,0.991216
 \C,0,1.308693,0.264043,0.1461\O,0,1.406299,1.463539,0.083674\O,0,2.095
 944,-0.564537,-0.587777\H,0,2.675774,0.005317,-1.114848\C,0,-0.772931,
 -1.195274,0.148833\H,0,-0.111751,0.199359,1.701045\H,0,0.869281,-1.266
 107,1.554279\C,0,-1.609827,-0.25259,-0.729643\H,0,-1.434494,-1.729795,
 0.839635\H,0,-0.300687,-1.953246,-0.482687\C,0,-2.368819,0.831641,0.04

 Normal termination of Gaussian 16 at Tue Apr  8 22:38:05 2025.
