 Gaussian 16, Revision C.01,

 ----------------------------------------------------------------------
 #t hf aug-cc-pvdz symm=none int=(grid=ultrafine) guess=(read,tcheck) s
 table=(opt,rrhf)
 ----------------------------------------------------------------------
 -----
 title
 -----
 Symbolic Z-matrix:
 Charge =  0 Multiplicity = 1

 SCF Done:  E(RHF) =  -743.092431181     A.U. after   15 cycles
 Normal termination of Gaussian 16 at Wed Apr  9 00:24:15 2025.
 Gaussian 16:  ES64L-G16RevC.01  3-Jul-2019

 ----------------------------------------------------------------------
 #t hf aug-cc-pvdz iop(5/13=1,5/36=2,99/5=2) pseudo=read geom=check gue
 ss=(read,tcheck) scf=(maxcycle=1)
 ----------------------------------------------------------------------
 -----
 title
 -----
 Structure from the checkpoint file:  "BDE49_nonexpt_2692_mol1.chk"
 Charge =  0 Multiplicity = 1

                         Standard orientation:
 ---------------------------------------------------------------------
 Center     Atomic      Atomic             Coordinates (Angstroms)
 Number     Number       Type             X           Y           Z
 ---------------------------------------------------------------------
      1          9           0       -2.521122    0.872962   -0.000002
      2         16           0       -1.817623   -0.641046   -0.000000
      3          6           0       -0.111625   -0.178543   -0.000000
      4          6           0        0.347240    1.138696   -0.000001
      5          7           0        0.665293   -1.256571    0.000002
      6          6           0        1.986700   -1.060018    0.000002
      7          6           0        1.724984    1.318860   -0.000001
      8          6           0        2.565925    0.205827    0.000001
      9          1           0       -0.347198    1.967043   -0.000003
     10          1           0        2.138898    2.320970   -0.000002
     11          1           0        3.643121    0.314393    0.000001
     12          1           0        2.600845   -1.955265    0.000004
 ---------------------------------------------------------------------

 SCF Done:  E(RHF) =  -744.800051647     A.U. after    2 cycles

 The electronic state is 1-A.
 Alpha  occ. eigenvalues --  -75.76980 -29.27756 -15.75719 -13.23213 -13.20461
 Alpha  occ. eigenvalues --  -13.07411 -11.50436 -11.47860 -11.45654 -11.42740
 Alpha  occ. eigenvalues --  -11.39601  -8.11020  -1.48425  -1.24257  -1.20817
 Alpha  occ. eigenvalues --   -1.09540  -0.91646  -0.88898  -0.74543  -0.68842
 Alpha  occ. eigenvalues --   -0.63973  -0.61917  -0.58593  -0.57620  -0.54828
 Alpha  occ. eigenvalues --   -0.46143  -0.43788  -0.38685  -0.38261  -0.35357
 Alpha  occ. eigenvalues --   -0.34206  -0.29122  -0.17877
 Alpha virt. eigenvalues --    0.02909   0.05021   0.05234   0.06320   0.07471
 Alpha virt. eigenvalues --    0.09193   0.09458   0.09890   0.11389   0.12486
 Alpha virt. eigenvalues --    0.12955   0.13544   0.13944   0.14018   0.14333

 Mulliken charges:
               1
     1  F   -0.274619
     2  S    0.986309
     3  C    0.087172
     4  C   -2.537635
     5  N   -3.191834
     6  C   -0.718683
     7  C    0.634681
     8  C   -1.092951
     9  H    1.586492
    10  H    1.525222
    11  H    1.432664
    12  H    1.563182
 Sum of Mulliken charges =   0.00000

 Dipole moment (field-independent basis, Debye):
    X=             -0.9130    Y=              2.8256    Z=             -0.0000  Tot=              2.9694

 Test job not archived.
 1\1\GINC-SE096\SP\RHF\Aug-CC-pVDZ\C5H4F1N1S1\OHZDE\09-Apr-2025\0\\#t h
 f aug-cc-pvdz iop(5/13=1,5/36=2,99/5=2) pseudo=read geom=check guess=(
 read,tcheck) scf=(maxcycle=1)\\title\\0,1\F,0,-2.521122,0.872962,-0.00
 0002\S,0,-1.817623,-0.641046,0.\C,0,-0.111625,-0.178543,0.\C,0,0.34724
 ,1.138696,-0.000001\N,0,0.665293,-1.256571,0.000002\C,0,1.9867,-1.0600
 18,0.000002\C,0,1.724984,1.31886,-0.000001\C,0,2.565925,0.205827,0.000
 001\H,0,-0.347198,1.967043,-0.000003\H,0,2.138898,2.32097,-0.000002\H,
 0,3.643121,0.314393,0.000001\H,0,2.600845,-1.955265,0.000004\\Version=

 Normal termination of Gaussian 16 at Wed Apr  9 00:24:21 2025.
