 Gaussian 16, Revision C.01,

 ----------------------------------------------------------------------
 #t hf aug-cc-pvdz symm=none int=(grid=ultrafine) guess=(read,tcheck) s
 table=(opt,rrhf)
 ----------------------------------------------------------------------
 -----
 title
 -----
 Symbolic Z-matrix:
 Charge =  0 Multiplicity = 1

 SCF Done:  E(RHF) =  -1920.46138286     A.U. after   13 cycles
 Normal termination of Gaussian 16 at Tue Apr  8 23:53:31 2025.
 Gaussian 16:  ES64L-G16RevC.01  3-Jul-2019

 ----------------------------------------------------------------------
 #t hf aug-cc-pvdz iop(5/13=1,5/36=2,99/5=2) pseudo=read geom=check gue
 ss=(read,tcheck) scf=(maxcycle=1)
 ----------------------------------------------------------------------
 -----
 title
 -----
 Structure from the checkpoint file:  "BDE49_nonexpt_1928_mol1.chk"
 Charge =  0 Multiplicity = 1

                         Standard orientation:
 ---------------------------------------------------------------------
 Center     Atomic      Atomic             Coordinates (Angstroms)
 Number     Number       Type             X           Y           Z
 ---------------------------------------------------------------------
      1          6           0        0.672069    0.196908    1.524909
      2         14           0       -0.464908    1.415978    0.632953
      3         16           0       -1.561676    0.524061   -1.011523
      4          1           0        0.296709    2.509661   -0.007270
      5          1           0       -1.398892    1.968440    1.639052
      6         16           0       -2.533476   -1.049251    0.013471
      7          1           0       -1.574112   -1.980379   -0.159046
      8         16           0        1.579601   -1.042491    0.518295
      9         16           0        2.640535    0.072348   -0.892514
     10          1           0        1.712716    0.093924   -1.872327
     11          1           0        0.062074   -0.420749    2.193175
     12          1           0        1.378053    0.749292    2.151939
 ---------------------------------------------------------------------

 SCF Done:  E(RHF) =  -1921.72913970     A.U. after    2 cycles

 The electronic state is 1-A.
 Alpha  occ. eigenvalues --  -76.25269 -75.72700 -75.72116 -75.71884 -75.70949
 Alpha  occ. eigenvalues --  -13.16526 -13.15150 -13.13457 -13.12747 -13.10778
 Alpha  occ. eigenvalues --  -13.10320 -13.09584 -13.08179 -13.06416 -13.06287
 Alpha  occ. eigenvalues --  -13.05658 -13.04912 -11.39894  -8.06303  -8.05818
 Alpha  occ. eigenvalues --   -8.05650  -8.04847  -5.58741  -2.22030  -2.20727
 Alpha  occ. eigenvalues --   -2.20592  -1.25159  -1.20916  -1.08352  -0.99747
 Alpha  occ. eigenvalues --   -0.91871  -0.73701  -0.62104  -0.54893  -0.52536
 Alpha  occ. eigenvalues --   -0.51403  -0.48952  -0.44735  -0.41031  -0.38080
 Alpha  occ. eigenvalues --   -0.35093  -0.28452  -0.26639  -0.25358  -0.24243
 Alpha virt. eigenvalues --    0.01725   0.02636   0.03156   0.04796   0.05869
 Alpha virt. eigenvalues --    0.06578   0.06884   0.07794   0.08644   0.09900
 Alpha virt. eigenvalues --    0.10767   0.11971   0.12098   0.12980   0.13251

 Mulliken charges:
               1
     1  C   -3.725937
     2  Si   7.061216
     3  S   -1.629008
     4  H   -1.966140
     5  H   -2.031593
     6  S   -1.507847
     7  H    1.166317
     8  S   -0.045946
     9  S   -1.327780
    10  H    1.099150
    11  H    1.402343
    12  H    1.505225
 Sum of Mulliken charges =  -0.00000

 Dipole moment (field-independent basis, Debye):
    X=             -0.2094    Y=             -1.1073    Z=             -0.3121  Tot=              1.1694

 Test job not archived.
 1\1\GINC-SE338\SP\RHF\Aug-CC-pVDZ\C1H6S4Si1\OHZDE\08-Apr-2025\0\\#t hf
  aug-cc-pvdz iop(5/13=1,5/36=2,99/5=2) pseudo=read geom=check guess=(r
 ead,tcheck) scf=(maxcycle=1)\\title\\0,1\C,0,0.672069,0.196908,1.52490
 9\Si,0,-0.464908,1.415978,0.632953\S,0,-1.561676,0.524061,-1.011523\H,
 0,0.296709,2.509661,-0.00727\H,0,-1.398892,1.96844,1.639052\S,0,-2.533
 476,-1.049251,0.013471\H,0,-1.574112,-1.980379,-0.159046\S,0,1.579601,
 -1.042491,0.518295\S,0,2.640535,0.072348,-0.892514\H,0,1.712716,0.0939
 24,-1.872327\H,0,0.062074,-0.420749,2.193175\H,0,1.378053,0.749292,2.1

 Normal termination of Gaussian 16 at Tue Apr  8 23:53:36 2025.
