 Gaussian 16, Revision C.01,

 ----------------------------------------------------------------------
 #t hf aug-cc-pvdz symm=none int=(grid=ultrafine) guess=(read,tcheck) s
 table=(opt,rrhf)
 ----------------------------------------------------------------------
 -----
 title
 -----
 Symbolic Z-matrix:
 Charge =  0 Multiplicity = 1

 SCF Done:  E(RHF) =  -933.269513647     A.U. after   14 cycles
 Normal termination of Gaussian 16 at Wed Apr  9 00:18:07 2025.
 Gaussian 16:  ES64L-G16RevC.01  3-Jul-2019

 ----------------------------------------------------------------------
 #t hf aug-cc-pvdz iop(5/13=1,5/36=2,99/5=2) pseudo=read geom=check gue
 ss=(read,tcheck) scf=(maxcycle=1)
 ----------------------------------------------------------------------
 -----
 title
 -----
 Structure from the checkpoint file:  "BDE49_nonexpt_2561_mol1.chk"
 Charge =  0 Multiplicity = 1

                         Standard orientation:
 ---------------------------------------------------------------------
 Center     Atomic      Atomic             Coordinates (Angstroms)
 Number     Number       Type             X           Y           Z
 ---------------------------------------------------------------------
      1         17           0        1.541849   -0.528408   -0.000000
      2         16           0       -0.002942    0.898823   -0.000000
      3          6           0       -1.379717   -0.045651   -0.000000
      4          6           0       -2.423961   -0.655577   -0.000000
      5          1           0       -3.342283   -1.190857    0.000001
 ---------------------------------------------------------------------

 SCF Done:  E(RHF) =  -934.087791986     A.U. after    2 cycles

 The electronic state is 1-A.
 Alpha  occ. eigenvalues --  -99.92005 -75.78561 -13.24611 -13.13400 -13.09446
 Alpha  occ. eigenvalues --  -11.44517 -11.43389 -10.49057  -9.68784  -9.68157
 Alpha  occ. eigenvalues --   -9.68056  -8.12352  -1.35715  -1.19456  -1.04802
 Alpha  occ. eigenvalues --   -0.76494  -0.63385  -0.57481  -0.56216  -0.48491
 Alpha  occ. eigenvalues --   -0.45720  -0.41659  -0.26042
 Alpha virt. eigenvalues --    0.01488   0.03587   0.06156   0.08525   0.09197
 Alpha virt. eigenvalues --    0.10514   0.12860   0.13653   0.14201   0.14596
 Alpha virt. eigenvalues --    0.15528   0.16104   0.17389   0.18061   0.18881

 Mulliken charges:
               1
     1  Cl  -0.360663
     2  S    0.539432
     3  C    0.731234
     4  C   -1.757973
     5  H    0.847970
 Sum of Mulliken charges =   0.00000

 Dipole moment (field-independent basis, Debye):
    X=             -2.3040    Y=              2.3179    Z=              0.0000  Tot=              3.2682

 Test job not archived.
 1\1\GINC-SE039\SP\RHF\Aug-CC-pVDZ\C2H1Cl1S1\OHZDE\09-Apr-2025\0\\#t hf
  aug-cc-pvdz iop(5/13=1,5/36=2,99/5=2) pseudo=read geom=check guess=(r
 ead,tcheck) scf=(maxcycle=1)\\title\\0,1\Cl,0,1.541849,-0.528408,0.\S,
 0,-0.002942,0.898823,0.\C,0,-1.379717,-0.045651,0.\C,0,-2.423961,-0.65
 5577,0.\H,0,-3.342283,-1.190857,0.000001\\Version=ES64L-G16RevC.01\Sta
 te=1-A\HF=-934.087792\RMSD=7.101e-01\Dipole=-0.9064718,0.9119266,0.000
 0006\Quadrupole=2.2753813,2.3044424,-4.5798236,2.3800798,-0.0000038,-0
 .0000013\PG=C01 [X(C2H1Cl1S1)]\\@

 Normal termination of Gaussian 16 at Wed Apr  9 00:18:09 2025.
