 Gaussian 16, Revision C.01,

 ----------------------------------------------------------------------
 #t hf aug-cc-pvdz symm=none int=(grid=ultrafine) guess=(read,tcheck) s
 table=opt
 ----------------------------------------------------------------------
 -----
 title
 -----
 Symbolic Z-matrix:
 Charge =  0 Multiplicity = 2

 SCF Done:  E(UHF) =  -1006.66165025     A.U. after   21 cycles

 1\1\GINC-SE252\Stability\UHF\Aug-CC-pVDZ\Cl1O2S1\OHZDE\08-Apr-2025\0\\
 #t hf aug-cc-pvdz symm=none int=(grid=ultrafine) guess=(read,tcheck) s
 table=opt\\title\\0,2\S,0,-0.57745,0.000008,0.255567\Cl,0,1.577619,-0.
 000114,-0.046852\O,0,-1.098519,1.267439,-0.205774\O,0,-1.099022,-1.267
 213,-0.205798\\Version=ES64L-G16RevC.01\HF=-1006.6616502\S2=0.820549\S
 2-1=0.\S2A=0.752866\RMSD=5.864e-09\Dipole=0.3613937,-0.0000808,0.51434
 41\Quadrupole=0.6780422,-2.699443,2.0214008,-0.0004576,-1.4136974,0.00
 00297\PG=Unknown\\@

 Normal termination of Gaussian 16 at Tue Apr  8 22:59:37 2025.
 Gaussian 16:  ES64L-G16RevC.01  3-Jul-2019

 ----------------------------------------------------------------------
 #t hf aug-cc-pvdz iop(5/13=1,5/36=2,99/5=2) pseudo=read geom=check gue
 ss=(read,tcheck) scf=(maxcycle=1)
 ----------------------------------------------------------------------
 -----
 title
 -----
 Structure from the checkpoint file:  "BDE49_expt_1937_mol2.chk"
 Charge =  0 Multiplicity = 2

                         Standard orientation:
 ---------------------------------------------------------------------
 Center     Atomic      Atomic             Coordinates (Angstroms)
 Number     Number       Type             X           Y           Z
 ---------------------------------------------------------------------
      1         16           0       -0.577450    0.000008    0.255567
      2         17           0        1.577619   -0.000113   -0.046852
      3          8           0       -1.098519    1.267439   -0.205774
      4          8           0       -1.099021   -1.267213   -0.205798
 ---------------------------------------------------------------------

 SCF Done:  E(UHF) =  -1007.74884375     A.U. after    2 cycles

 The electronic state is 2-A.
 Alpha  occ. eigenvalues --  -99.95261 -75.94463 -21.14481 -21.14469 -13.56585
 Alpha  occ. eigenvalues --  -13.38284 -13.26288 -10.52316  -9.72888  -9.71270
 Alpha  occ. eigenvalues --   -9.71263  -8.29353  -1.89294  -1.72533  -1.35962
 Alpha  occ. eigenvalues --   -0.99292  -0.69686  -0.63072  -0.59888  -0.56389
 Alpha  occ. eigenvalues --   -0.52348  -0.50437  -0.45277  -0.42784  -0.35408
 Alpha virt. eigenvalues --    0.05598   0.06650   0.08325   0.09089   0.10059
 Alpha virt. eigenvalues --    0.13918   0.14345   0.16070   0.17023   0.19386
 Alpha virt. eigenvalues --    0.20632   0.21906   0.22423   0.25618   0.26672

  Beta  occ. eigenvalues --  -99.94727 -75.94136 -21.13472 -21.13460 -13.56684
  Beta  occ. eigenvalues --  -13.37386 -13.25554 -10.51769  -9.71036  -9.70976
  Beta  occ. eigenvalues --   -9.70442  -8.28853  -1.87269  -1.69801  -1.31148
  Beta  occ. eigenvalues --   -0.94345  -0.64698  -0.60396  -0.58937  -0.53295
  Beta  occ. eigenvalues --   -0.48595  -0.46469  -0.42106  -0.41063
  Beta virt. eigenvalues --   -0.02657   0.05928   0.07809   0.09067   0.09238
  Beta virt. eigenvalues --    0.10740   0.14505   0.14746   0.16679   0.18894
  Beta virt. eigenvalues --    0.20287   0.21410   0.22064   0.22950   0.25683

 Mulliken charges and spin densities:
               1          2
     1  S    3.940912   0.306319
     2  Cl  -0.206553   0.289598
     3  O   -1.867142   0.202084
     4  O   -1.867217   0.201999
 Sum of Mulliken charges =  -0.00000   1.00000

 Dipole moment (field-independent basis, Debye):
    X=             -1.4012    Y=             -0.0000    Z=              0.9710  Tot=              1.7048
                          Isotropic Fermi Contact Couplings
        Atom                 a.u.       MegaHertz       Gauss      10(-4) cm-1
     1  S(33)              1.27197     436.88582     155.89172     145.72942
     2  Cl(35)             0.11589      50.81130      18.13073      16.94882
     3  O(17)              0.05977     -36.23170     -12.92837     -12.08559
     4  O(17)              0.05976     -36.22595     -12.92632     -12.08368
 --------------------------------------------------------
       Center         ----  Spin Dipole Couplings  ----
                      3XX-RR        3YY-RR        3ZZ-RR
 --------------------------------------------------------

 Normal termination of Gaussian 16 at Tue Apr  8 22:59:38 2025.
