 Gaussian 16, Revision C.01,

 ----------------------------------------------------------------------
 #t hf aug-cc-pvdz symm=none int=(grid=ultrafine) guess=(read,tcheck) s
 table=(opt,rrhf)
 ----------------------------------------------------------------------
 -----
 title
 -----
 Symbolic Z-matrix:
 Charge =  0 Multiplicity = 1

 SCF Done:  E(RHF) =  -134.272429326     A.U. after   12 cycles
 Normal termination of Gaussian 16 at Tue Apr  8 22:40:25 2025.
 Gaussian 16:  ES64L-G16RevC.01  3-Jul-2019

 ----------------------------------------------------------------------
 #t hf aug-cc-pvdz iop(5/13=1,5/36=2,99/5=2) pseudo=read geom=check gue
 ss=(read,tcheck) scf=(maxcycle=1)
 ----------------------------------------------------------------------
 -----
 title
 -----
 Structure from the checkpoint file:  "BDE49_expt_1280_mol1.chk"
 Charge =  0 Multiplicity = 1

                         Standard orientation:
 ---------------------------------------------------------------------
 Center     Atomic      Atomic             Coordinates (Angstroms)
 Number     Number       Type             X           Y           Z
 ---------------------------------------------------------------------
      1          7           0        1.208039   -0.324131   -0.117657
      2          6           0        0.048630    0.561100    0.055465
      3          1           0        1.266359   -0.970659    0.664531
      4          1           0        2.067740    0.216092   -0.106265
      5          6           0       -1.248083   -0.238882   -0.028412
      6          1           0        0.071439    1.297817   -0.754149
      7          1           0        0.063012    1.131067    0.999558
      8          1           0       -1.296047   -0.784772   -0.973417
      9          1           0       -2.121119    0.415382    0.045781
     10          1           0       -1.310942   -0.969319    0.785246
 ---------------------------------------------------------------------

 SCF Done:  E(RHF) =  -134.957736214     A.U. after    2 cycles

 The electronic state is 1-A.
 Alpha  occ. eigenvalues --  -15.72371 -11.40610 -11.35005  -1.32828  -1.07218
 Alpha  occ. eigenvalues --   -0.85917  -0.65406  -0.62741  -0.56798  -0.50061
 Alpha  occ. eigenvalues --   -0.47682  -0.46803  -0.35000
 Alpha virt. eigenvalues --    0.03939   0.05409   0.05761   0.06171   0.06813
 Alpha virt. eigenvalues --    0.07290   0.07494   0.11795   0.13826   0.14302
 Alpha virt. eigenvalues --    0.15475   0.16302   0.18663   0.19458   0.19628

 Mulliken charges:
               1
     1  N   -2.137693
     2  C   -2.203375
     3  H    0.605221
     4  H    0.581509
     5  C   -3.251435
     6  H    1.409881
     7  H    1.360136
     8  H    1.211712
     9  H    1.186898
    10  H    1.237145
 Sum of Mulliken charges =  -0.00000

 Dipole moment (field-independent basis, Debye):
    X=              0.2528    Y=              0.5499    Z=              0.8935  Tot=              1.0792

 Test job not archived.
 1\1\GINC-SE367\SP\RHF\Aug-CC-pVDZ\C2H7N1\OHZDE\08-Apr-2025\0\\#t hf au
 g-cc-pvdz iop(5/13=1,5/36=2,99/5=2) pseudo=read geom=check guess=(read
 ,tcheck) scf=(maxcycle=1)\\title\\0,1\N,0,1.208039,-0.324131,-0.117657
 \C,0,0.04863,0.5611,0.055465\H,0,1.266359,-0.970659,0.664531\H,0,2.067
 74,0.216092,-0.106265\C,0,-1.248083,-0.238882,-0.028412\H,0,0.071439,1
 .297817,-0.754149\H,0,0.063012,1.131067,0.999558\H,0,-1.296047,-0.7847
 72,-0.973417\H,0,-2.121119,0.415382,0.045781\H,0,-1.310942,-0.969319,0
 .785246\\Version=ES64L-G16RevC.01\State=1-A\HF=-134.9577362\RMSD=1.917

 Normal termination of Gaussian 16 at Tue Apr  8 22:40:27 2025.
