 Gaussian 16, Revision C.01,

 ----------------------------------------------------------------------
 #t hf aug-cc-pvdz symm=none int=(grid=ultrafine) guess=(read,tcheck) s
 table=(opt,rrhf)
 ----------------------------------------------------------------------
 -----
 title
 -----
 Symbolic Z-matrix:
 Charge =  0 Multiplicity = 1

 SCF Done:  E(RHF) =  -724.050155022     A.U. after   16 cycles
 Normal termination of Gaussian 16 at Tue Apr  8 23:21:53 2025.
 Gaussian 16:  ES64L-G16RevC.01  3-Jul-2019

 ----------------------------------------------------------------------
 #t hf aug-cc-pvdz iop(5/13=1,5/36=2,99/5=2) pseudo=read geom=check gue
 ss=(read,tcheck) scf=(maxcycle=1)
 ----------------------------------------------------------------------
 -----
 title
 -----
 Structure from the checkpoint file:  "BDE49_nonexpt_1150_mol1.chk"
 Charge =  0 Multiplicity = 1

                         Standard orientation:
 ---------------------------------------------------------------------
 Center     Atomic      Atomic             Coordinates (Angstroms)
 Number     Number       Type             X           Y           Z
 ---------------------------------------------------------------------
      1          9           0       -2.340673    0.188614   -0.000005
      2          8           0       -1.213376   -0.801128   -0.000001
      3          6           0       -0.021721   -0.193367    0.000010
      4         16           0        1.232772   -1.248002   -0.000005
      5          8           0       -0.059420    1.111061    0.000008
      6          6           0        1.199376    1.823204    0.000002
      7          1           0        0.919398    2.872971    0.000002
      8          1           0        1.769371    1.569518   -0.893358
      9          1           0        1.769376    1.569520    0.893360
 ---------------------------------------------------------------------

 SCF Done:  E(RHF) =  -725.585298963     A.U. after    2 cycles

 The electronic state is 1-A.
 Alpha  occ. eigenvalues --  -75.67820 -29.32646 -21.22352 -21.15251 -13.16096
 Alpha  occ. eigenvalues --  -13.03529 -12.99325 -11.57309 -11.45252  -8.02097
 Alpha  occ. eigenvalues --   -1.93688  -1.79133  -1.16866  -1.06162  -0.84742
 Alpha  occ. eigenvalues --   -0.73873  -0.68289  -0.67821  -0.60377  -0.57840
 Alpha  occ. eigenvalues --   -0.54491  -0.45575  -0.44098  -0.36461  -0.31901
 Alpha  occ. eigenvalues --   -0.29316  -0.24690  -0.23232
 Alpha virt. eigenvalues --    0.02748   0.05418   0.05967   0.07252   0.08854
 Alpha virt. eigenvalues --    0.10251   0.11556   0.13293   0.13720   0.14151
 Alpha virt. eigenvalues --    0.15454   0.15894   0.16072   0.17884   0.20289

 Mulliken charges:
               1
     1  F   -0.121803
     2  O   -1.491172
     3  C    1.754374
     4  S    1.060225
     5  O   -2.602447
     6  C   -2.763855
     7  H    1.427056
     8  H    1.368814
     9  H    1.368808
 Sum of Mulliken charges =  -0.00000

 Dipole moment (field-independent basis, Debye):
    X=             -0.2266    Y=              2.2050    Z=             -0.0000  Tot=              2.2166

 Test job not archived.
 1\1\GINC-SE009\SP\RHF\Aug-CC-pVDZ\C2H3F1O2S1\OHZDE\08-Apr-2025\0\\#t h
 f aug-cc-pvdz iop(5/13=1,5/36=2,99/5=2) pseudo=read geom=check guess=(
 read,tcheck) scf=(maxcycle=1)\\title\\0,1\F,0,-2.340673,0.188614,-0.00
 0005\O,0,-1.213376,-0.801128,-0.000001\C,0,-0.021721,-0.193367,0.00001
 \S,0,1.232772,-1.248002,-0.000005\O,0,-0.05942,1.111061,0.000008\C,0,1
 .199376,1.823204,0.000002\H,0,0.919398,2.872971,0.000002\H,0,1.769371,
 1.569518,-0.893358\H,0,1.769376,1.56952,0.89336\\Version=ES64L-G16RevC
 .01\State=1-A\HF=-725.585299\RMSD=9.946e-02\Dipole=-0.0891619,0.867516

 Normal termination of Gaussian 16 at Tue Apr  8 23:21:56 2025.
