 Gaussian 16, Revision C.01,

 ----------------------------------------------------------------------
 #t hf aug-cc-pvdz symm=none int=(grid=ultrafine) guess=(read,tcheck) s
 table=(opt,rrhf)
 ----------------------------------------------------------------------
 -----
 title
 -----
 Symbolic Z-matrix:
 Charge =  0 Multiplicity = 1

 SCF Done:  E(RHF) =  -740.794055639     A.U. after   15 cycles
 Normal termination of Gaussian 16 at Tue Apr  8 23:39:55 2025.
 Gaussian 16:  ES64L-G16RevC.01  3-Jul-2019

 ----------------------------------------------------------------------
 #t hf aug-cc-pvdz iop(5/13=1,5/36=2,99/5=2) pseudo=read geom=check gue
 ss=(read,tcheck) scf=(maxcycle=1)
 ----------------------------------------------------------------------
 -----
 title
 -----
 Structure from the checkpoint file:  "BDE49_nonexpt_1594_mol1.chk"
 Charge =  0 Multiplicity = 1

                         Standard orientation:
 ---------------------------------------------------------------------
 Center     Atomic      Atomic             Coordinates (Angstroms)
 Number     Number       Type             X           Y           Z
 ---------------------------------------------------------------------
      1          9           0       -2.014989   -0.090673    0.018357
      2          8           0       -0.870299   -0.983272   -0.139715
      3         15           0        0.482673   -0.037740   -0.038290
      4          8           0        1.607037   -0.924335   -0.277454
      5          8           0        0.265014    1.147227   -1.048739
      6          1           0       -0.505799    1.699760   -0.864642
      7          8           0        0.360046    0.705148    1.360400
      8          1           0        0.506208    0.124254    2.117839
 ---------------------------------------------------------------------

 SCF Done:  E(RHF) =  -742.546149506     A.U. after    2 cycles

 The electronic state is 1-A.
 Alpha  occ. eigenvalues -- -105.36151 -29.33758 -21.19369 -21.15461 -21.15350
 Alpha  occ. eigenvalues --  -21.05887  -2.99744  -2.05719  -1.96372  -1.94572
 Alpha  occ. eigenvalues --   -1.78849  -1.47550  -1.43876  -1.27630  -0.76891
 Alpha  occ. eigenvalues --   -0.68800  -0.64795  -0.58148  -0.55939  -0.46762
 Alpha  occ. eigenvalues --   -0.45645  -0.44266  -0.39762  -0.39248  -0.35155
 Alpha  occ. eigenvalues --   -0.31027  -0.26872  -0.24369  -0.17933
 Alpha virt. eigenvalues --    0.03607   0.05191   0.10119   0.10517   0.11197
 Alpha virt. eigenvalues --    0.13802   0.17776   0.18886   0.19227   0.19786
 Alpha virt. eigenvalues --    0.21092   0.22828   0.23338   0.24626   0.24914

 Mulliken charges:
               1
     1  F   -0.072529
     2  O   -1.388863
     3  P    7.771347
     4  O   -2.786563
     5  O   -2.721077
     6  H    0.943808
     7  O   -2.623188
     8  H    0.877065
 Sum of Mulliken charges =  -0.00000

 Dipole moment (field-independent basis, Debye):
    X=             -3.3755    Y=              2.9394    Z=              1.4339  Tot=              4.7001

 Test job not archived.
 1\1\GINC-SE092\SP\RHF\Aug-CC-pVDZ\F1H2O4P1\OHZDE\08-Apr-2025\0\\#t hf
 aug-cc-pvdz iop(5/13=1,5/36=2,99/5=2) pseudo=read geom=check guess=(re
 ad,tcheck) scf=(maxcycle=1)\\title\\0,1\F,0,-2.014989,-0.090673,0.0183
 57\O,0,-0.870299,-0.983272,-0.139715\P,0,0.482673,-0.03774,-0.03829\O,
 0,1.607037,-0.924335,-0.277454\O,0,0.265014,1.147227,-1.048739\H,0,-0.
 505799,1.69976,-0.864642\O,0,0.360046,0.705148,1.3604\H,0,0.506208,0.1
 24254,2.117839\\Version=ES64L-G16RevC.01\State=1-A\HF=-742.5461495\RMS
 D=9.854e-02\Dipole=-1.3280428,1.1564627,0.5641573\Quadrupole=-1.816686

 Normal termination of Gaussian 16 at Tue Apr  8 23:39:58 2025.
