 Gaussian 16, Revision C.01,

 ----------------------------------------------------------------------
 #t hf aug-cc-pvdz symm=none int=(grid=ultrafine) guess=(read,tcheck) s
 table=(opt,rrhf)
 ----------------------------------------------------------------------
 -----
 title
 -----
 Symbolic Z-matrix:
 Charge =  0 Multiplicity = 1

 SCF Done:  E(RHF) =  -593.880405312     A.U. after   12 cycles

 1\1\GINC-SE038\Stability\RHF\Aug-CC-pVDZ\C5H12S1\OHZDE\08-Apr-2025\0\\
 #t hf aug-cc-pvdz symm=none int=(grid=ultrafine) guess=(read,tcheck) s
 table=(opt,rrhf)\\title\\0,1\C,0,-0.423922,-1.019483,0.548441\C,0,0.87
 5837,-0.24162,0.781681\C,0,1.801063,-0.171099,-0.437222\H,0,1.408643,-
 0.725067,1.6115\H,0,0.643622,0.772768,1.126352\C,0,3.086033,0.616394,-
 0.167128\H,0,1.25881,0.280443,-1.273464\H,0,2.055822,-1.191073,-0.7509
 81\H,0,2.86435,1.651285,0.112144\H,0,3.728336,0.643384,-1.051367\H,0,3
 .663663,0.170827,0.649077\S,0,-1.610043,-0.273355,-0.635669\H,0,-0.954

 Normal termination of Gaussian 16 at Tue Apr  8 22:47:14 2025.
 Gaussian 16:  ES64L-G16RevC.01  3-Jul-2019

 ----------------------------------------------------------------------
 #t hf aug-cc-pvdz iop(5/13=1,5/36=2,99/5=2) pseudo=read geom=check gue
 ss=(read,tcheck) scf=(maxcycle=1)
 ----------------------------------------------------------------------
 -----
 title
 -----
 Structure from the checkpoint file:  "BDE49_expt_1567_mol1.chk"
 Charge =  0 Multiplicity = 1

                         Standard orientation:
 ---------------------------------------------------------------------
 Center     Atomic      Atomic             Coordinates (Angstroms)
 Number     Number       Type             X           Y           Z
 ---------------------------------------------------------------------
      1          6           0       -0.423922   -1.019483    0.548441
      2          6           0        0.875837   -0.241620    0.781681
      3          6           0        1.801063   -0.171099   -0.437222
      4          1           0        1.408643   -0.725067    1.611500
      5          1           0        0.643622    0.772768    1.126352
      6          6           0        3.086033    0.616394   -0.167128
      7          1           0        1.258810    0.280443   -1.273464
      8          1           0        2.055822   -1.191073   -0.750981
      9          1           0        2.864350    1.651285    0.112144
     10          1           0        3.728336    0.643384   -1.051367
     11          1           0        3.663663    0.170827    0.649077
     12         16           0       -1.610043   -0.273355   -0.635669
     13          1           0       -0.954664   -1.183463    1.490350
     14          1           0       -0.205829   -2.005757    0.128540
     15          6           0       -2.254223    1.111305    0.358401
     16          1           0       -1.478775    1.843455    0.587153
     17          1           0       -2.709509    0.748486    1.282151
     18          1           0       -3.022503    1.595417   -0.245794
 ---------------------------------------------------------------------

 SCF Done:  E(RHF) =  -595.147999364     A.U. after    2 cycles

 The electronic state is 1-A.
 Alpha  occ. eigenvalues --  -75.66562 -13.10741 -13.07439 -13.02553 -11.42862
 Alpha  occ. eigenvalues --  -11.40622 -11.38936 -11.37573 -11.34518  -8.00574
 Alpha  occ. eigenvalues --   -1.27112  -1.16775  -1.05776  -0.95503  -0.87218
 Alpha  occ. eigenvalues --   -0.81227  -0.64378  -0.61352  -0.58978  -0.58444
 Alpha  occ. eigenvalues --   -0.57346  -0.54556  -0.51961  -0.46684  -0.45899
 Alpha  occ. eigenvalues --   -0.43282  -0.42153  -0.34773  -0.21527
 Alpha virt. eigenvalues --    0.03473   0.04366   0.04710   0.05768   0.05842
 Alpha virt. eigenvalues --    0.06063   0.06569   0.06626   0.07831   0.08301
 Alpha virt. eigenvalues --    0.09038   0.09222   0.11272   0.11904   0.12991

 Mulliken charges:
               1
     1  C   -4.059493
     2  C   -2.201013
     3  C   -3.270991
     4  H    1.345948
     5  H    1.777731
     6  C   -3.794458
     7  H    1.674277
     8  H    1.421588
     9  H    1.317855
    10  H    1.118114
    11  H    1.287553
    12  S    0.951271
    13  H    1.344049
    14  H    1.587276
    15  C   -4.801748
    16  H    1.535350
    17  H    1.394839
    18  H    1.371852
 Sum of Mulliken charges =  -0.00000

 Dipole moment (field-independent basis, Debye):
    X=             -0.0826    Y=             -0.1448    Z=             -0.2399  Tot=              0.2921

 Test job not archived.
 1\1\GINC-SE038\SP\RHF\Aug-CC-pVDZ\C5H12S1\OHZDE\08-Apr-2025\0\\#t hf a
 ug-cc-pvdz iop(5/13=1,5/36=2,99/5=2) pseudo=read geom=check guess=(rea
 d,tcheck) scf=(maxcycle=1)\\title\\0,1\C,0,-0.423922,-1.019483,0.54844
 1\C,0,0.875837,-0.24162,0.781681\C,0,1.801063,-0.171099,-0.437222\H,0,
 1.408643,-0.725067,1.6115\H,0,0.643622,0.772768,1.126352\C,0,3.086033,
 0.616394,-0.167128\H,0,1.25881,0.280443,-1.273464\H,0,2.055822,-1.1910
 73,-0.750981\H,0,2.86435,1.651285,0.112144\H,0,3.728336,0.643384,-1.05
 1367\H,0,3.663663,0.170827,0.649077\S,0,-1.610043,-0.273355,-0.635669\

 Normal termination of Gaussian 16 at Tue Apr  8 22:47:21 2025.
