 Gaussian 16, Revision C.01,

 ----------------------------------------------------------------------
 #t hf aug-cc-pvdz symm=none int=(grid=ultrafine) guess=(read,tcheck) s
 table=(opt,rrhf)
 ----------------------------------------------------------------------
 -----
 title
 -----
 Symbolic Z-matrix:
 Charge =  0 Multiplicity = 1

 SCF Done:  E(RHF) =  -896.665930930     A.U. after   11 cycles

 1\1\GINC-SE460\Stability\RHF\Aug-CC-pVDZ\B1H9Si3\OHZDE\09-Apr-2025\0\\
 #t hf aug-cc-pvdz symm=none int=(grid=ultrafine) guess=(read,tcheck) s
 table=(opt,rrhf)\\title\\0,1\B,0,-0.000001,-0.017491,-0.032758\Si,0,0.
 000025,1.995184,0.004846\Si,0,-1.758572,-0.997531,-0.004859\Si,0,1.758
 547,-0.997574,-0.00486\H,0,-2.871385,-0.223205,-0.609783\H,0,-2.066431
 ,-1.174129,1.44296\H,0,-1.726657,-2.341189,-0.633018\H,0,2.871369,-0.2
 23283,-0.609811\H,0,1.726596,-2.341243,-0.632993\H,0,2.066419,-1.17415
 1,1.442959\H,0,0.000021,2.379655,-1.435935\H,0,1.20455,2.591927,0.6338

 Normal termination of Gaussian 16 at Wed Apr  9 00:48:06 2025.
 Gaussian 16:  ES64L-G16RevC.01  3-Jul-2019

 ----------------------------------------------------------------------
 #t hf aug-cc-pvdz iop(5/13=1,5/36=2,99/5=2) pseudo=read geom=check gue
 ss=(read,tcheck) scf=(maxcycle=1)
 ----------------------------------------------------------------------
 -----
 title
 -----
 Structure from the checkpoint file:  "BDE49_nonexpt_855_mol1.chk"
 Charge =  0 Multiplicity = 1

                         Standard orientation:
 ---------------------------------------------------------------------
 Center     Atomic      Atomic             Coordinates (Angstroms)
 Number     Number       Type             X           Y           Z
 ---------------------------------------------------------------------
      1          5           0       -0.000001   -0.017491   -0.032758
      2         14           0        0.000019    1.995184    0.004846
      3         14           0       -1.758569   -0.997536   -0.004859
      4         14           0        1.758550   -0.997569   -0.004860
      5          1           0       -2.871384   -0.223213   -0.609783
      6          1           0       -2.066428   -1.174135    1.442960
      7          1           0       -1.726650   -2.341194   -0.633018
      8          1           0        2.871370   -0.223274   -0.609811
      9          1           0        1.726603   -2.341238   -0.632993
     10          1           0        2.066422   -1.174145    1.442959
     11          1           0        0.000014    2.379655   -1.435935
     12          1           0        1.204542    2.591931    0.633811
     13          1           0       -1.204486    2.591953    0.633825
 ---------------------------------------------------------------------

 SCF Done:  E(RHF) =  -897.267381923     A.U. after    2 cycles

 The electronic state is 1-A.
 Alpha  occ. eigenvalues --  -76.21254 -76.21244 -76.21184  -7.62493  -5.54878
 Alpha  occ. eigenvalues --   -5.54837  -5.54365  -2.17707  -2.17691  -2.17360
 Alpha  occ. eigenvalues --   -2.16916  -2.16837  -2.16722  -2.16692  -2.16538
 Alpha  occ. eigenvalues --   -2.16533  -0.90053  -0.77361  -0.77154  -0.60311
 Alpha  occ. eigenvalues --   -0.48714  -0.48122  -0.48010  -0.46742  -0.46735
 Alpha  occ. eigenvalues --   -0.46262  -0.34916  -0.34825
 Alpha virt. eigenvalues --   -0.00120   0.03742   0.03837   0.03861   0.05210
 Alpha virt. eigenvalues --    0.06748   0.07730   0.07861   0.08316   0.08497
 Alpha virt. eigenvalues --    0.08546   0.09197   0.09615   0.09846   0.10156

 Mulliken charges:
               1
     1  B   -3.936113
     2  Si   6.678037
     3  Si   6.604784
     4  Si   6.604789
     5  H   -1.787149
     6  H   -1.695450
     7  H   -1.810433
     8  H   -1.787148
     9  H   -1.810436
    10  H   -1.695451
    11  H   -1.723579
    12  H   -1.820925
    13  H   -1.820925
 Sum of Mulliken charges =  -0.00000

 Dipole moment (field-independent basis, Debye):
    X=             -0.0000    Y=             -0.0420    Z=             -0.2319  Tot=              0.2356

 Test job not archived.
 1\1\GINC-SE460\SP\RHF\Aug-CC-pVDZ\B1H9Si3\OHZDE\09-Apr-2025\0\\#t hf a
 ug-cc-pvdz iop(5/13=1,5/36=2,99/5=2) pseudo=read geom=check guess=(rea
 d,tcheck) scf=(maxcycle=1)\\title\\0,1\B,0,-0.000001,-0.017491,-0.0327
 58\Si,0,0.000025,1.995184,0.004846\Si,0,-1.758572,-0.997531,-0.004859\
 Si,0,1.758547,-0.997574,-0.00486\H,0,-2.871385,-0.223205,-0.609783\H,0
 ,-2.066431,-1.174129,1.44296\H,0,-1.726657,-2.341189,-0.633018\H,0,2.8
 71369,-0.223283,-0.609811\H,0,1.726596,-2.341243,-0.632993\H,0,2.06641
 9,-1.174151,1.442959\H,0,0.000021,2.379655,-1.435935\H,0,1.20455,2.591

 Normal termination of Gaussian 16 at Wed Apr  9 00:48:10 2025.
