 Gaussian 16, Revision C.01,

 ----------------------------------------------------------------------
 #t hf aug-cc-pvdz symm=none int=(grid=ultrafine) guess=(read,tcheck) s
 table=(opt,rrhf)
 ----------------------------------------------------------------------
 -----
 title
 -----
 Symbolic Z-matrix:
 Charge =  0 Multiplicity = 1

 SCF Done:  E(RHF) =  -976.918095087     A.U. after   14 cycles
 Normal termination of Gaussian 16 at Tue Apr  8 23:45:21 2025.
 Gaussian 16:  ES64L-G16RevC.01  3-Jul-2019

 ----------------------------------------------------------------------
 #t hf aug-cc-pvdz iop(5/13=1,5/36=2,99/5=2) pseudo=read geom=check gue
 ss=(read,tcheck) scf=(maxcycle=1)
 ----------------------------------------------------------------------
 -----
 title
 -----
 Structure from the checkpoint file:  "BDE49_nonexpt_1746_mol1.chk"
 Charge =  0 Multiplicity = 1

                         Standard orientation:
 ---------------------------------------------------------------------
 Center     Atomic      Atomic             Coordinates (Angstroms)
 Number     Number       Type             X           Y           Z
 ---------------------------------------------------------------------
      1          6           0       -0.522383    2.069670   -0.564383
      2         14           0       -0.302761    0.521155    0.437779
      3          1           0       -0.559707    1.845587   -1.632718
      4          1           0        0.327345    2.732558   -0.379024
      5          1           0       -1.441230    2.590038   -0.284568
      6          6           0        1.395383   -0.273544    0.037008
      7         17           0       -1.798375   -0.884353   -0.020902
      8          8           0        2.370903    0.410580    0.213916
      9          8           0        1.502457   -1.539311   -0.426610
     10          1           0        0.619431   -1.928565   -0.502864
     11          1           0       -0.359690    0.751317    1.891412
 ---------------------------------------------------------------------

 SCF Done:  E(RHF) =  -978.294765103     A.U. after    2 cycles

 The electronic state is 1-A.
 Alpha  occ. eigenvalues --  -99.90619 -76.28179 -21.13335 -21.06918 -11.49670
 Alpha  occ. eigenvalues --  -11.38088 -10.47975  -9.67898  -9.67356  -9.67280
 Alpha  occ. eigenvalues --   -5.61974  -2.25535  -2.24789  -2.23971  -1.82495
 Alpha  occ. eigenvalues --   -1.66533  -1.30992  -1.07338  -0.86403  -0.76513
 Alpha  occ. eigenvalues --   -0.66394  -0.60718  -0.58866  -0.57588  -0.56611
 Alpha  occ. eigenvalues --   -0.54796  -0.53590  -0.52940  -0.46452  -0.44823
 Alpha  occ. eigenvalues --   -0.34582  -0.29128
 Alpha virt. eigenvalues --    0.02870   0.04802   0.05235   0.05666   0.06740
 Alpha virt. eigenvalues --    0.07498   0.07778   0.09454   0.10254   0.11654
 Alpha virt. eigenvalues --    0.12115   0.12900   0.13565   0.14107   0.14679

 Mulliken charges:
               1
     1  C   -4.895824
     2  Si   5.098992
     3  H    1.242071
     4  H    1.365164
     5  H    1.250270
     6  C    3.088873
     7  Cl  -0.864881
     8  O   -2.494703
     9  O   -2.652130
    10  H    1.056503
    11  H   -2.194336
 Sum of Mulliken charges =   0.00000

 Dipole moment (field-independent basis, Debye):
    X=             -0.6579    Y=              1.2232    Z=             -0.4422  Tot=              1.4576

 Test job not archived.
 1\1\GINC-SE334\SP\RHF\Aug-CC-pVDZ\C2H5Cl1O2Si1\OHZDE\08-Apr-2025\0\\#t
  hf aug-cc-pvdz iop(5/13=1,5/36=2,99/5=2) pseudo=read geom=check guess
 =(read,tcheck) scf=(maxcycle=1)\\title\\0,1\C,0,-0.522383,2.06967,-0.5
 64383\Si,0,-0.302761,0.521155,0.437779\H,0,-0.559707,1.845587,-1.63271
 8\H,0,0.327345,2.732558,-0.379024\H,0,-1.44123,2.590038,-0.284568\C,0,
 1.395383,-0.273544,0.037008\Cl,0,-1.798375,-0.884353,-0.020902\O,0,2.3
 70903,0.41058,0.213916\O,0,1.502457,-1.539311,-0.42661\H,0,0.619431,-1
 .928565,-0.502864\H,0,-0.35969,0.751317,1.891412\\Version=ES64L-G16Rev

 Normal termination of Gaussian 16 at Tue Apr  8 23:45:25 2025.
