 Gaussian 16, Revision C.01,

 ----------------------------------------------------------------------
 #t hf aug-cc-pvdz symm=none int=(grid=ultrafine) guess=(read,tcheck) s
 table=(opt,rrhf)
 ----------------------------------------------------------------------
 -----
 title
 -----
 Symbolic Z-matrix:
 Charge =  0 Multiplicity = 1

 SCF Done:  E(RHF) =  -722.531975670     A.U. after   15 cycles
 Normal termination of Gaussian 16 at Tue Apr  8 23:17:49 2025.
 Gaussian 16:  ES64L-G16RevC.01  3-Jul-2019

 ----------------------------------------------------------------------
 #t hf aug-cc-pvdz iop(5/13=1,5/36=2,99/5=2) pseudo=read geom=check gue
 ss=(read,tcheck) scf=(maxcycle=1)
 ----------------------------------------------------------------------
 -----
 title
 -----
 Structure from the checkpoint file:  "BDE49_nonexpt_1042_mol1.chk"
 Charge =  0 Multiplicity = 1

                         Standard orientation:
 ---------------------------------------------------------------------
 Center     Atomic      Atomic             Coordinates (Angstroms)
 Number     Number       Type             X           Y           Z
 ---------------------------------------------------------------------
      1         17           0       -1.671615    0.366742   -0.000000
      2          8           0        0.000000    0.780116   -0.000000
      3          6           0        0.832233   -0.309720    0.000000
      4          8           0        0.523561   -1.460401    0.000000
      5          8           0        2.069999    0.202184    0.000000
      6          1           0        2.675574   -0.551495    0.000000
 ---------------------------------------------------------------------

 SCF Done:  E(RHF) =  -723.828381634     A.U. after    2 cycles

 The electronic state is 1-A'.
 Alpha  occ. eigenvalues --  -99.96794 -21.16298 -21.15857 -21.08472 -11.57223
 Alpha  occ. eigenvalues --  -10.53507  -9.73381  -9.72498  -9.72337  -1.93720
 Alpha  occ. eigenvalues --   -1.75860  -1.70098  -1.27970  -0.86268  -0.70641
 Alpha  occ. eigenvalues --   -0.66324  -0.65872  -0.59213  -0.57768  -0.53889
 Alpha  occ. eigenvalues --   -0.46913  -0.40056  -0.36610  -0.33355
 Alpha virt. eigenvalues --    0.01520   0.03823   0.08629   0.10909   0.11456
 Alpha virt. eigenvalues --    0.12165   0.13655   0.13874   0.15877   0.18231
 Alpha virt. eigenvalues --    0.18876   0.20001   0.21719   0.21958   0.24207

 Mulliken charges:
               1
     1  Cl   0.518264
     2  O   -2.129667
     3  C    5.689439
     4  O   -2.284138
     5  O   -2.370887
     6  H    0.576988
 Sum of Mulliken charges =   0.00000

 Dipole moment (field-independent basis, Debye):
    X=              2.4526    Y=              0.5994    Z=             -0.0000  Tot=              2.5247

 Test job not archived.
 1\1\GINC-SE367\SP\RHF\Aug-CC-pVDZ\C1H1Cl1O3\OHZDE\08-Apr-2025\0\\#t hf
  aug-cc-pvdz iop(5/13=1,5/36=2,99/5=2) pseudo=read geom=check guess=(r
 ead,tcheck) scf=(maxcycle=1)\\title\\0,1\Cl,0,-1.671615,0.366743,0.\O,
 0,0.,0.780116,0.\C,0,0.832233,-0.30972,0.\O,0,0.52356,-1.460401,0.\O,0
 ,2.069999,0.202184,0.\H,0,2.675574,-0.551496,0.\\Version=ES64L-G16RevC
 .01\State=1-A'\HF=-723.8283816\RMSD=3.855e-02\Dipole=0.9649129,0.23581
 09,0.\Quadrupole=4.2458669,-3.010251,-1.2356159,-0.9542248,0.,0.\PG=CS
  [SG(C1H1Cl1O3)]\\@

 Normal termination of Gaussian 16 at Tue Apr  8 23:17:51 2025.
