 Gaussian 16, Revision C.01,

 ----------------------------------------------------------------------
 #t hf aug-cc-pvdz symm=none int=(grid=ultrafine) guess=(read,tcheck) s
 table=(opt,rrhf)
 ----------------------------------------------------------------------
 -----
 title
 -----
 Symbolic Z-matrix:
 Charge =  0 Multiplicity = 1

 SCF Done:  E(RHF) =  -3083.97436055     A.U. after   12 cycles
 Normal termination of Gaussian 16 at Tue Apr  8 23:49:29 2025.
 Gaussian 16:  ES64L-G16RevC.01  3-Jul-2019

 ----------------------------------------------------------------------
 #t hf aug-cc-pvdz iop(5/13=1,5/36=2,99/5=2) pseudo=read geom=check gue
 ss=(read,tcheck) scf=(maxcycle=1)
 ----------------------------------------------------------------------
 -----
 title
 -----
 Structure from the checkpoint file:  "BDE49_nonexpt_1815_mol1.chk"
 Charge =  0 Multiplicity = 1

                         Standard orientation:
 ---------------------------------------------------------------------
 Center     Atomic      Atomic             Coordinates (Angstroms)
 Number     Number       Type             X           Y           Z
 ---------------------------------------------------------------------
      1          6           0       -1.053879    0.000003   -0.000022
      2         14           0        0.867989    0.000003   -0.000038
      3         17           0       -1.646674    0.023507   -1.694436
      4         17           0       -1.646460    1.455698    0.867618
      5         17           0       -1.646457   -1.479208    0.826891
      6         17           0        1.532274   -1.657798   -0.987975
      7         17           0        1.532183   -0.026712    1.929660
      8         17           0        1.532276    1.684510   -0.941718
 ---------------------------------------------------------------------

 SCF Done:  E(RHF) =  -3085.76922746     A.U. after    2 cycles

 The electronic state is 1-A.
 Alpha  occ. eigenvalues --  -99.93113 -99.93113 -99.93097 -99.92203 -99.92202
 Alpha  occ. eigenvalues --  -99.92198 -76.37048 -11.54999 -10.50649 -10.50290
 Alpha  occ. eigenvalues --  -10.50290 -10.49749 -10.49749 -10.49628  -9.70324
 Alpha  occ. eigenvalues --   -9.70324  -9.70219  -9.69630  -9.69630  -9.69589
 Alpha  occ. eigenvalues --   -9.69543  -9.69543  -9.69515  -9.69452  -9.69406
 Alpha  occ. eigenvalues --   -9.69406  -9.69008  -9.69008  -9.68957  -9.68868
 Alpha  occ. eigenvalues --   -9.68868  -9.68729  -5.70822  -2.32918  -2.32889
 Alpha  occ. eigenvalues --   -2.32889  -1.46408  -1.35326  -1.32445  -1.32445
 Alpha  occ. eigenvalues --   -1.31355  -1.31355  -1.00112  -0.82607  -0.72063
 Alpha  occ. eigenvalues --   -0.72063  -0.69726  -0.63959  -0.63959  -0.58531
 Alpha  occ. eigenvalues --   -0.58347  -0.58347  -0.57457  -0.57456  -0.54972
 Alpha  occ. eigenvalues --   -0.54972  -0.53761  -0.52010  -0.52010  -0.51009
 Alpha  occ. eigenvalues --   -0.46926
 Alpha virt. eigenvalues --   -0.01610   0.03084   0.04078   0.04079   0.06097
 Alpha virt. eigenvalues --    0.06435   0.06613   0.06613   0.09636   0.09637
 Alpha virt. eigenvalues --    0.10297   0.11063   0.11063   0.12329   0.13717

 Mulliken charges:
               1
     1  C   -1.636866
     2  Si   3.380216
     3  Cl   0.137955
     4  Cl   0.137962
     5  Cl   0.137964
     6  Cl  -0.719091
     7  Cl  -0.719049
     8  Cl  -0.719092
 Sum of Mulliken charges =  -0.00000

 Dipole moment (field-independent basis, Debye):
    X=              0.2085    Y=              0.0000    Z=             -0.0001  Tot=              0.2085

 Test job not archived.
 1\1\GINC-SE331\SP\RHF\Aug-CC-pVDZ\C1Cl6Si1\OHZDE\08-Apr-2025\0\\#t hf
 aug-cc-pvdz iop(5/13=1,5/36=2,99/5=2) pseudo=read geom=check guess=(re
 ad,tcheck) scf=(maxcycle=1)\\title\\0,1\C,0,-1.053879,0.000003,-0.0000
 22\Si,0,0.867989,0.000002,-0.000038\Cl,0,-1.646674,0.001696,-1.694598\
 Cl,0,-1.64646,1.466745,0.848809\Cl,0,-1.646457,-1.468442,0.845861\Cl,0
 ,1.532274,-1.670377,-0.966555\Cl,0,1.532183,-0.001873,1.929844\Cl,0,1.
 532276,1.672249,-0.963321\\Version=ES64L-G16RevC.01\State=1-A\HF=-3085
 .7692275\RMSD=3.560e-02\Dipole=0.0820149,0.0000014,-0.0000311\Quadrupo

 Normal termination of Gaussian 16 at Tue Apr  8 23:49:33 2025.
