 Gaussian 16, Revision C.01,

 ----------------------------------------------------------------------
 #t hf aug-cc-pvdz symm=none int=(grid=ultrafine) guess=(read,tcheck) s
 table=(opt,rrhf)
 ----------------------------------------------------------------------
 -----
 title
 -----
 Symbolic Z-matrix:
 Charge =  0 Multiplicity = 1

 SCF Done:  E(RHF) =  -775.269239230     A.U. after   14 cycles
 Normal termination of Gaussian 16 at Wed Apr  9 00:55:54 2025.
 Gaussian 16:  ES64L-G16RevC.01  3-Jul-2019

 ----------------------------------------------------------------------
 #t hf aug-cc-pvdz iop(5/13=1,5/36=2,99/5=2) pseudo=read geom=check gue
 ss=(read,tcheck) scf=(maxcycle=1)
 ----------------------------------------------------------------------
 -----
 title
 -----
 Structure from the checkpoint file:  "BDE49_nonexpt_956_mol1.chk"
 Charge =  0 Multiplicity = 1

                         Standard orientation:
 ---------------------------------------------------------------------
 Center     Atomic      Atomic             Coordinates (Angstroms)
 Number     Number       Type             X           Y           Z
 ---------------------------------------------------------------------
      1          9           0        2.580860   -1.759116    0.773206
      2          9           0        2.552513   -0.312144   -0.874806
      3          8           0       -0.169780    2.868443   -0.045543
      4          6           0       -0.650914    1.856226    0.863409
      5          1           0       -1.739412    1.838573    0.926154
      6          1           0       -0.229245    1.973710    1.868102
      7          6           0       -0.004622    0.719968    0.024279
      8          7           0        1.680692   -1.092276   -0.071953
      9          6           0        1.011143   -0.116230    0.804436
     10          1           0        0.509332   -0.727711    1.556829
     11          1           0        1.763253    0.513509    1.286685
     12          6           0        0.562308    1.894616   -0.818685
     13          1           0        1.643197    2.030223   -0.740156
     14          1           0        0.271977    1.904373   -1.873920
     15          6           0       -0.986845   -0.136823   -0.779945
     16          7           0       -1.608361   -1.174384    0.060547
     17          9           0       -2.460311   -1.866225   -0.814568
     18          9           0       -2.531805   -0.473383    0.877601
     19          1           0       -0.458620   -0.698221   -1.552881
     20          1           0       -1.766292    0.475895   -1.240472
 ---------------------------------------------------------------------

 SCF Done:  E(RHF) =  -778.350005112     A.U. after    2 cycles

 The electronic state is 1-A.
 Alpha  occ. eigenvalues --  -29.30776 -29.30699 -29.30403 -29.30355 -21.05781
 Alpha  occ. eigenvalues --  -15.90644 -15.90528 -11.50686 -11.49615 -11.48521
 Alpha  occ. eigenvalues --  -11.45949 -11.41256  -1.78767  -1.56289  -1.53723
 Alpha  occ. eigenvalues --   -1.23468  -1.05682  -1.02517  -1.00051  -0.85826
 Alpha  occ. eigenvalues --   -0.85543  -0.81030  -0.76756  -0.74856  -0.68863
 Alpha  occ. eigenvalues --   -0.67406  -0.66999  -0.62197  -0.59224  -0.58592
 Alpha  occ. eigenvalues --   -0.55229  -0.53665  -0.49339  -0.45663  -0.45220
 Alpha  occ. eigenvalues --   -0.44104  -0.41663  -0.40591  -0.38815  -0.33244
 Alpha  occ. eigenvalues --   -0.31245  -0.30483  -0.30047  -0.29866  -0.24602
 Alpha  occ. eigenvalues --   -0.23132  -0.22287  -0.21899
 Alpha virt. eigenvalues --    0.03879   0.04999   0.05487   0.05591   0.05877
 Alpha virt. eigenvalues --    0.06679   0.07540   0.08326   0.10292   0.12016
 Alpha virt. eigenvalues --    0.12806   0.13091   0.13330   0.14360   0.14448

 Mulliken charges:
               1
     1  F   -0.286065
     2  F   -0.247186
     3  O   -2.882575
     4  C   -1.194206
     5  H    1.357891
     6  H    1.567963
     7  C    1.787695
     8  N   -0.097720
     9  C   -3.905994
    10  H    1.499477
    11  H    1.607285
    12  C   -1.138697
    13  H    1.361820
    14  H    1.576812
    15  C   -3.397312
    16  N   -0.132210
    17  F   -0.293104
    18  F   -0.273141
    19  H    1.473187
    20  H    1.616083
 Sum of Mulliken charges =  -0.00000

 Dipole moment (field-independent basis, Debye):
    X=              0.0490    Y=              0.1068    Z=              0.0258  Tot=              0.1203

 Test job not archived.
 1\1\GINC-SE097\SP\RHF\Aug-CC-pVDZ\C5H8F4N2O1\OHZDE\09-Apr-2025\0\\#t h
 f aug-cc-pvdz iop(5/13=1,5/36=2,99/5=2) pseudo=read geom=check guess=(
 read,tcheck) scf=(maxcycle=1)\\title\\0,1\F,0,2.58086,-1.759116,0.7732
 06\F,0,2.552513,-0.312144,-0.874806\O,0,-0.16978,2.868443,-0.045543\C,
 0,-0.650914,1.856226,0.863409\H,0,-1.739412,1.838573,0.926154\H,0,-0.2
 29245,1.97371,1.868102\C,0,-0.004622,0.719968,0.024279\N,0,1.680692,-1
 .092276,-0.071953\C,0,1.011143,-0.11623,0.804436\H,0,0.509332,-0.72771
 1,1.556829\H,0,1.763253,0.513509,1.286685\C,0,0.562308,1.894616,-0.818

 Normal termination of Gaussian 16 at Wed Apr  9 00:56:07 2025.
