 Gaussian 16, Revision C.01,

 ----------------------------------------------------------------------
 #t hf aug-cc-pvdz symm=none int=(grid=ultrafine) guess=(read,tcheck) s
 table=(opt,rrhf)
 ----------------------------------------------------------------------
 -----
 title
 -----
 Symbolic Z-matrix:
 Charge =  0 Multiplicity = 1

 SCF Done:  E(RHF) =  -1253.56375440     A.U. after   15 cycles
 Normal termination of Gaussian 16 at Wed Apr  9 00:28:13 2025.
 Gaussian 16:  ES64L-G16RevC.01  3-Jul-2019

 ----------------------------------------------------------------------
 #t hf aug-cc-pvdz iop(5/13=1,5/36=2,99/5=2) pseudo=read geom=check gue
 ss=(read,tcheck) scf=(maxcycle=1)
 ----------------------------------------------------------------------
 -----
 title
 -----
 Structure from the checkpoint file:  "BDE49_nonexpt_2713_mol1.chk"
 Charge =  0 Multiplicity = 1

                         Standard orientation:
 ---------------------------------------------------------------------
 Center     Atomic      Atomic             Coordinates (Angstroms)
 Number     Number       Type             X           Y           Z
 ---------------------------------------------------------------------
      1         16           0       -0.878523    1.419535    0.541133
      2         16           0        0.878522    1.419534   -0.541140
      3          6           0        1.815318    0.044760    0.244753
      4          6           0       -1.815323    0.044765   -0.244763
      5          8           0       -1.373768   -0.632770   -1.129450
      6          8           0        1.373783   -0.632739    1.129478
      7          6           0       -3.155136   -0.107508    0.374928
      8          6           0       -4.279617   -0.614927   -0.517110
      9          6           0       -3.696864   -1.524592    0.509111
     10          1           0       -4.016277   -0.791975   -1.552174
     11          1           0       -5.261430   -0.190776   -0.348238
     12          1           0       -4.265550   -1.742709    1.404239
     13          1           0       -3.039984   -2.314017    0.166768
     14          1           0       -3.408576    0.602588    1.152861
     15          6           0        3.155128   -0.107521   -0.374942
     16          6           0        4.279617   -0.614912    0.517100
     17          6           0        3.696863   -1.524605   -0.509095
     18          1           0        3.408559    0.602558   -1.152894
     19          1           0        4.265543   -1.742741   -1.404221
     20          1           0        3.039988   -2.314025   -0.166728
     21          1           0        4.016285   -0.791936    1.552170
     22          1           0        5.261428   -0.190760    0.348211
 ---------------------------------------------------------------------

 SCF Done:  E(RHF) =  -1256.11609633     A.U. after    2 cycles

 The electronic state is 1-A.
 Alpha  occ. eigenvalues --  -75.72206 -75.71951 -21.06510 -21.06501 -13.20158
 Alpha  occ. eigenvalues --  -13.14419 -13.13105 -13.11453 -13.06162 -13.05527
 Alpha  occ. eigenvalues --  -11.52151 -11.52000 -11.43516 -11.43281 -11.42959
 Alpha  occ. eigenvalues --  -11.42915 -11.38389 -11.38338  -8.06187  -8.06020
 Alpha  occ. eigenvalues --   -1.73109  -1.72478  -1.32872  -1.32422  -1.23248
 Alpha  occ. eigenvalues --   -1.07859  -0.96607  -0.91674  -0.87788  -0.87663
 Alpha  occ. eigenvalues --   -0.75742  -0.74472  -0.70215  -0.67619  -0.62844
 Alpha  occ. eigenvalues --   -0.62684  -0.57383  -0.56075  -0.54044  -0.53670
 Alpha  occ. eigenvalues --   -0.51244  -0.50846  -0.50708  -0.48924  -0.43634
 Alpha  occ. eigenvalues --   -0.42915  -0.38270  -0.37547  -0.35516  -0.29064
 Alpha  occ. eigenvalues --   -0.28447  -0.25420  -0.24526
 Alpha virt. eigenvalues --    0.03790   0.03917   0.04953   0.05483   0.05646
 Alpha virt. eigenvalues --    0.06146   0.06635   0.06877   0.07020   0.08048
 Alpha virt. eigenvalues --    0.08387   0.09184   0.10124   0.10447   0.11928

 Mulliken charges:
               1
     1  S   -0.188207
     2  S   -0.188215
     3  C    3.700688
     4  C    3.700595
     5  O   -3.326317
     6  O   -3.326331
     7  C   -2.872631
     8  C   -2.081345
     9  C   -2.188957
    10  H    1.377300
    11  H    1.269813
    12  H    1.277486
    13  H    1.341299
    14  H    1.690959
    15  C   -2.872696
    16  C   -2.081363
    17  C   -2.188943
    18  H    1.690958
    19  H    1.277494
    20  H    1.341297
    21  H    1.377303
    22  H    1.269814
 Sum of Mulliken charges =   0.00000

 Dipole moment (field-independent basis, Debye):
    X=              0.0000    Y=              0.2277    Z=              0.0000  Tot=              0.2277

 Test job not archived.
 1\1\GINC-SE071\SP\RHF\Aug-CC-pVDZ\C8H10O2S2\OHZDE\09-Apr-2025\0\\#t hf
  aug-cc-pvdz iop(5/13=1,5/36=2,99/5=2) pseudo=read geom=check guess=(r
 ead,tcheck) scf=(maxcycle=1)\\title\\0,1\S,0,0.878523,1.419535,-0.5411
 33\S,0,-0.878522,1.419534,0.54114\C,0,-1.815318,0.04476,-0.244753\C,0,
 1.815323,0.044765,0.244763\O,0,1.373768,-0.63277,1.12945\O,0,-1.373783
 ,-0.632739,-1.129478\C,0,3.155136,-0.107508,-0.374928\C,0,4.279617,-0.
 614927,0.51711\C,0,3.696864,-1.524592,-0.509111\H,0,4.016277,-0.791975
 ,1.552174\H,0,5.26143,-0.190776,0.348238\H,0,4.26555,-1.742709,-1.4042

 Normal termination of Gaussian 16 at Wed Apr  9 00:28:28 2025.
