 Gaussian 16, Revision C.01,

 ----------------------------------------------------------------------
 #t hf aug-cc-pvdz symm=none int=(grid=ultrafine) guess=(read,tcheck) s
 table=opt
 ----------------------------------------------------------------------
 -----
 title
 -----
 Symbolic Z-matrix:
 Charge =  0 Multiplicity = 2

 SCF Done:  E(UHF) =  -234.764517677     A.U. after   16 cycles
 Normal termination of Gaussian 16 at Tue Apr  8 22:51:27 2025.
 Gaussian 16:  ES64L-G16RevC.01  3-Jul-2019

 ----------------------------------------------------------------------
 #t hf aug-cc-pvdz iop(5/13=1,5/36=2,99/5=2) pseudo=read geom=check gue
 ss=(read,tcheck) scf=(maxcycle=1)
 ----------------------------------------------------------------------
 -----
 title
 -----
 Structure from the checkpoint file:  "BDE49_expt_16_mol2.chk"
 Charge =  0 Multiplicity = 2

                         Standard orientation:
 ---------------------------------------------------------------------
 Center     Atomic      Atomic             Coordinates (Angstroms)
 Number     Number       Type             X           Y           Z
 ---------------------------------------------------------------------
      1          6           0       -2.354737    1.045994    0.247758
      2          6           0       -2.067559   -0.345551   -0.323819
      3          1           0       -1.569954    1.756423   -0.025831
      4          1           0       -2.406652    1.017234    1.340957
      5          1           0       -3.306930    1.438161   -0.120111
      6          6           0       -0.733000   -0.943176    0.154320
      7          1           0       -2.063671   -0.299914   -1.419564
      8          1           0       -2.880455   -1.026959   -0.050420
      9          6           0        0.477435   -0.212387   -0.325632
     10          1           0       -0.686260   -1.997509   -0.175307
     11          1           0       -0.725379   -0.990983    1.252857
     12          6           0        1.814754   -0.389866    0.313543
     13          1           0        0.437687    0.251384   -1.309467
     14          6           0        2.852496    0.654436   -0.116059
     15          1           0        2.210167   -1.396927    0.085984
     16          1           0        1.703296   -0.375555    1.406651
     17          1           0        3.009777    0.627553   -1.198506
     18          1           0        3.817935    0.476764    0.364944
     19          1           0        2.524103    1.663627    0.147151
 ---------------------------------------------------------------------

 SCF Done:  E(UHF) =  -235.977503086     A.U. after    2 cycles

 The electronic state is 2-A.
 Alpha  occ. eigenvalues --  -11.41924 -11.41520 -11.38961 -11.36829 -11.35337
 Alpha  occ. eigenvalues --  -11.33807  -1.26441  -1.15713  -1.03511  -0.93018
 Alpha  occ. eigenvalues --   -0.84456  -0.79737  -0.63253  -0.62069  -0.59892
 Alpha  occ. eigenvalues --   -0.56971  -0.56687  -0.52169  -0.49490  -0.48844
 Alpha  occ. eigenvalues --   -0.46763  -0.45449  -0.44449  -0.40841  -0.28978
 Alpha virt. eigenvalues --    0.04213   0.05063   0.05344   0.05546   0.05831
 Alpha virt. eigenvalues --    0.05950   0.06424   0.06529   0.07195   0.07974
 Alpha virt. eigenvalues --    0.08174   0.08801   0.09681   0.11797   0.14060

  Beta  occ. eigenvalues --  -11.41784 -11.41304 -11.38775 -11.36477 -11.35181
  Beta  occ. eigenvalues --  -11.33066  -1.24408  -1.15292  -1.02102  -0.91616
  Beta  occ. eigenvalues --   -0.83939  -0.76606  -0.61833  -0.60677  -0.59428
  Beta  occ. eigenvalues --   -0.56516  -0.56032  -0.51475  -0.49207  -0.47663
  Beta  occ. eigenvalues --   -0.46332  -0.45014  -0.43752  -0.40344
  Beta virt. eigenvalues --    0.04051   0.05070   0.05180   0.05554   0.05846
  Beta virt. eigenvalues --    0.05962   0.06434   0.06541   0.07194   0.07970
  Beta virt. eigenvalues --    0.08175   0.08762   0.09660   0.11239   0.12107

 Mulliken charges and spin densities:
               1          2
     1  C   -3.721232   0.016402
     2  C   -3.478444   0.036169
     3  H    1.406650  -0.020234
     4  H    1.287338  -0.000396
     5  H    1.159470   0.003490
     6  C   -3.021287  -0.500112
     7  H    1.502291  -0.006765
     8  H    1.279134  -0.002507
     9  C    0.205660   1.871473
    10  H    1.305820   0.022816
    11  H    1.489311   0.007180
    12  C   -3.448325  -0.473390
    13  H    1.659964  -0.005905
    14  C   -4.132807   0.023859
    15  H    1.341847   0.027590
    16  H    1.364485   0.008174
    17  H    1.323640  -0.004225
    18  H    1.117472  -0.001301
    19  H    1.359012  -0.002318
 Sum of Mulliken charges =  -0.00000   1.00000

 Dipole moment (field-independent basis, Debye):
    X=             -0.0096    Y=             -0.2799    Z=             -0.0504  Tot=              0.2846
                          Isotropic Fermi Contact Couplings
        Atom                 a.u.       MegaHertz       Gauss      10(-4) cm-1
     1  C(13)             -0.00027      -0.29822      -0.10641      -0.09948
     2  C(13)              0.00956      10.74369       3.83361       3.58371
     3  H(1)               0.00035       1.57822       0.56315       0.52644
     4  H(1)               0.00002       0.08724       0.03113       0.02910
     5  H(1)              -0.00015      -0.67972      -0.24254      -0.22673
     6  C(13)             -0.03717     -41.78095     -14.90848     -13.93663
     7  H(1)              -0.00058      -2.58521      -0.92247      -0.86233
     8  H(1)              -0.00083      -3.69699      -1.31918      -1.23318

 Normal termination of Gaussian 16 at Tue Apr  8 22:51:34 2025.
