 Gaussian 16, Revision C.01,

 ----------------------------------------------------------------------
 #t hf aug-cc-pvdz symm=none int=(grid=ultrafine) guess=(read,tcheck) s
 table=(opt,rrhf)
 ----------------------------------------------------------------------
 -----
 title
 -----
 Symbolic Z-matrix:
 Charge =  0 Multiplicity = 1

 SCF Done:  E(RHF) =  -1039.68250446     A.U. after   20 cycles
 Normal termination of Gaussian 16 at Tue Apr  8 22:59:00 2025.
 Gaussian 16:  ES64L-G16RevC.01  3-Jul-2019

 ----------------------------------------------------------------------
 #t hf aug-cc-pvdz iop(5/13=1,5/36=2,99/5=2) pseudo=read geom=check gue
 ss=(read,tcheck) scf=(maxcycle=1)
 ----------------------------------------------------------------------
 -----
 title
 -----
 Structure from the checkpoint file:  "BDE49_expt_1754_mol1.chk"
 Charge =  0 Multiplicity = 1

                         Standard orientation:
 ---------------------------------------------------------------------
 Center     Atomic      Atomic             Coordinates (Angstroms)
 Number     Number       Type             X           Y           Z
 ---------------------------------------------------------------------
      1          6           0        3.184911    0.285990   -0.170977
      2          6           0        2.574596   -0.691299   -0.962994
      3          6           0        1.245564   -1.053802   -0.763577
      4          6           0        2.428142    0.897301    0.839055
      5          6           0        1.102857    0.548096    1.057527
      6          6           0        0.519595   -0.425323    0.244638
      7          1           0        3.145919   -1.180832   -1.744020
      8          1           0        0.780210   -1.822847   -1.366196
      9          1           0        2.886299    1.654629    1.466145
     10          1           0        0.522992    1.016167    1.842170
     11         16           0       -1.174532   -0.884248    0.517200
     12          8           0       -1.450340   -2.100031   -0.203412
     13          8           0       -1.487539   -0.707839    1.904830
     14          7           0       -2.071199    0.325224   -0.341941
     15          7           0       -2.109315    1.543750    0.261285
     16          8           0       -2.661360    2.396654   -0.396099
     17          6           0       -2.581645    0.131589   -1.700958
     18          1           0       -2.500109   -0.922976   -1.945093
     19          1           0       -2.013794    0.742146   -2.407204
     20          1           0       -3.625513    0.445648   -1.729820
     21          6           0        4.630247    0.663541   -0.376324
     22          1           0        5.018321    0.265377   -1.315231
     23          1           0        5.252461    0.271910    0.434969
     24          1           0        4.757628    1.749089   -0.387227
 ---------------------------------------------------------------------

 SCF Done:  E(RHF) =  -1042.86583077     A.U. after    2 cycles

 The electronic state is 1-A.
 Alpha  occ. eigenvalues --  -75.92607 -21.10818 -21.06884 -21.06652 -15.90210
 Alpha  occ. eigenvalues --  -15.79538 -13.56454 -13.46148 -13.43286 -11.54763
 Alpha  occ. eigenvalues --  -11.47236 -11.47008 -11.46567 -11.43769 -11.42207
 Alpha  occ. eigenvalues --  -11.41134 -11.39365  -8.27750  -1.88778  -1.86044
 Alpha  occ. eigenvalues --   -1.67906  -1.46197  -1.38467  -1.19389  -1.12465
 Alpha  occ. eigenvalues --   -1.10152  -1.06765  -0.99222  -0.90297  -0.87474
 Alpha  occ. eigenvalues --   -0.81441  -0.74538  -0.70106  -0.67777  -0.66313
 Alpha  occ. eigenvalues --   -0.64848  -0.63837  -0.61016  -0.59959  -0.59056
 Alpha  occ. eigenvalues --   -0.56330  -0.55293  -0.54968  -0.54319  -0.51348
 Alpha  occ. eigenvalues --   -0.48180  -0.47609  -0.45362  -0.43009  -0.41594
 Alpha  occ. eigenvalues --   -0.39501  -0.37799  -0.36878  -0.35855  -0.33811
 Alpha  occ. eigenvalues --   -0.29530
 Alpha virt. eigenvalues --    0.02580   0.04191   0.04390   0.05101   0.05623
 Alpha virt. eigenvalues --    0.06014   0.06292   0.07099   0.07282   0.08577
 Alpha virt. eigenvalues --    0.08815   0.08920   0.09483   0.10451   0.11257

 Mulliken charges:
               1
     1  C    2.187823
     2  C    0.256712
     3  C   -5.284720
     4  C   -0.685319
     5  C   -4.054420
     6  C    2.461206
     7  H    1.829850
     8  H    2.104695
     9  H    1.837729
    10  H    2.090463
    11  S    7.120577
    12  O   -3.029113
    13  O   -2.911703
    14  N   -1.230187
    15  N    0.766443
    16  O   -2.019728
    17  C   -3.429873
    18  H    1.584950
    19  H    1.503227
    20  H    1.410324
    21  C   -5.911581
    22  H    1.238067
    23  H    1.111836
    24  H    1.052743
 Sum of Mulliken charges =   0.00000

 Dipole moment (field-independent basis, Debye):
    X=              3.1789    Y=              0.3752    Z=             -2.2766  Tot=              3.9280

 Test job not archived.
 1\1\GINC-SE458\SP\RHF\Aug-CC-pVDZ\C8H10N2O3S1\OHZDE\08-Apr-2025\0\\#t
 hf aug-cc-pvdz iop(5/13=1,5/36=2,99/5=2) pseudo=read geom=check guess=
 (read,tcheck) scf=(maxcycle=1)\\title\\0,1\C,0,3.184911,0.28599,-0.170
 977\C,0,2.574596,-0.691299,-0.962994\C,0,1.245564,-1.053802,-0.763577\
 C,0,2.428142,0.897301,0.839055\C,0,1.102857,0.548096,1.057527\C,0,0.51
 9595,-0.425323,0.244638\H,0,3.145919,-1.180832,-1.74402\H,0,0.78021,-1
 .822847,-1.366196\H,0,2.886299,1.654629,1.466145\H,0,0.522992,1.016167
 ,1.84217\S,0,-1.174532,-0.884248,0.5172\O,0,-1.45034,-2.100031,-0.2034

 Normal termination of Gaussian 16 at Tue Apr  8 22:59:21 2025.
