 Gaussian 16, Revision C.01,

 ----------------------------------------------------------------------
 #t hf aug-cc-pvdz symm=none int=(grid=ultrafine) guess=(read,tcheck) s
 table=(opt,rrhf)
 ----------------------------------------------------------------------
 -----
 title
 -----
 Symbolic Z-matrix:
 Charge =  0 Multiplicity = 1

 SCF Done:  E(RHF) =  -475.599552075     A.U. after   12 cycles
 Normal termination of Gaussian 16 at Tue Apr  8 23:36:09 2025.
 Gaussian 16:  ES64L-G16RevC.01  3-Jul-2019

 ----------------------------------------------------------------------
 #t hf aug-cc-pvdz iop(5/13=1,5/36=2,99/5=2) pseudo=read geom=check gue
 ss=(read,tcheck) scf=(maxcycle=1)
 ----------------------------------------------------------------------
 -----
 title
 -----
 Structure from the checkpoint file:  "BDE49_nonexpt_1498_mol1.chk"
 Charge =  0 Multiplicity = 1

                         Standard orientation:
 ---------------------------------------------------------------------
 Center     Atomic      Atomic             Coordinates (Angstroms)
 Number     Number       Type             X           Y           Z
 ---------------------------------------------------------------------
      1          7           0        1.319414    0.967742   -0.209544
      2         15           0        0.808847   -0.638481    0.117068
      3          6           0       -1.810517    0.589032    0.174023
      4          6           0       -0.982993   -0.577194   -0.372214
      5          1           0       -1.405435   -1.536647   -0.049530
      6          1           0       -1.004952   -0.582155   -1.466788
      7          1           0       -1.401514    1.546659   -0.158827
      8          1           0       -2.846830    0.538328   -0.174218
      9          1           0       -1.826449    0.586950    1.268189
     10          1           0        0.564561   -0.598876    1.523920
     11          1           0        2.300896    1.053007   -0.429001
     12          1           0        1.012192    1.724726    0.386185
 ---------------------------------------------------------------------

 SCF Done:  E(RHF) =  -476.481087196     A.U. after    2 cycles

 The electronic state is 1-A.
 Alpha  occ. eigenvalues -- -105.17583 -15.73703 -11.39382 -11.35204  -2.75628
 Alpha  occ. eigenvalues --   -1.53999  -1.46688  -1.42965  -1.17804  -1.11482
 Alpha  occ. eigenvalues --   -0.87600  -0.68708  -0.64599  -0.60863  -0.55628
 Alpha  occ. eigenvalues --   -0.49515  -0.48853  -0.40798  -0.27665  -0.21156
 Alpha  occ. eigenvalues --   -0.00854
 Alpha virt. eigenvalues --    0.04222   0.05473   0.06404   0.06697   0.06958
 Alpha virt. eigenvalues --    0.07000   0.07719   0.07987   0.11488   0.11937
 Alpha virt. eigenvalues --    0.13033   0.13777   0.15202   0.15705   0.16868

 Mulliken charges:
               1
     1  N   -2.385762
     2  P    4.135033
     3  C   -3.780126
     4  C   -4.339568
     5  H    1.295420
     6  H    1.195026
     7  H    1.295929
     8  H    1.118775
     9  H    1.309633
    10  H   -0.908339
    11  H    0.580804
    12  H    0.483176
 Sum of Mulliken charges =   0.00000

 Dipole moment (field-independent basis, Debye):
    X=             -1.1582    Y=              1.5211    Z=              0.5866  Tot=              1.9998

 Test job not archived.
 1\1\GINC-SE398\SP\RHF\Aug-CC-pVDZ\C2H8N1P1\OHZDE\08-Apr-2025\0\\#t hf
 aug-cc-pvdz iop(5/13=1,5/36=2,99/5=2) pseudo=read geom=check guess=(re
 ad,tcheck) scf=(maxcycle=1)\\title\\0,1\N,0,1.319414,0.967742,-0.20954
 4\P,0,0.808847,-0.638481,0.117068\C,0,-1.810517,0.589032,0.174023\C,0,
 -0.982993,-0.577194,-0.372214\H,0,-1.405435,-1.536647,-0.04953\H,0,-1.
 004952,-0.582155,-1.466788\H,0,-1.401514,1.546659,-0.158827\H,0,-2.846
 83,0.538328,-0.174218\H,0,-1.826449,0.58695,1.268189\H,0,0.564561,-0.5
 98876,1.52392\H,0,2.300896,1.053007,-0.429001\H,0,1.012192,1.724726,0.

 Normal termination of Gaussian 16 at Tue Apr  8 23:36:12 2025.
