 Gaussian 16, Revision C.01,

 ----------------------------------------------------------------------
 #t hf aug-cc-pvdz symm=none int=(grid=ultrafine) guess=(read,tcheck) s
 table=(opt,rrhf)
 ----------------------------------------------------------------------
 -----
 title
 -----
 Symbolic Z-matrix:
 Charge =  0 Multiplicity = 1

 SCF Done:  E(RHF) =  -805.923775124     A.U. after   12 cycles
 Normal termination of Gaussian 16 at Wed Apr  9 00:15:55 2025.
 Gaussian 16:  ES64L-G16RevC.01  3-Jul-2019

 ----------------------------------------------------------------------
 #t hf aug-cc-pvdz iop(5/13=1,5/36=2,99/5=2) pseudo=read geom=check gue
 ss=(read,tcheck) scf=(maxcycle=1)
 ----------------------------------------------------------------------
 -----
 title
 -----
 Structure from the checkpoint file:  "BDE49_nonexpt_2512_mol1.chk"
 Charge =  0 Multiplicity = 1

                         Standard orientation:
 ---------------------------------------------------------------------
 Center     Atomic      Atomic             Coordinates (Angstroms)
 Number     Number       Type             X           Y           Z
 ---------------------------------------------------------------------
      1         16           0       -0.525774   -0.987887   -0.190170
      2         14           0       -2.017242    0.560403   -0.125222
      3          6           0        0.753491   -0.323598    0.981412
      4          6           0        1.702897    0.721183    0.390030
      5          1           0        1.308869   -1.210246    1.297292
      6          1           0        0.238104    0.064447    1.862028
      7          6           0        2.594922    0.194337   -0.735716
      8          1           0        2.330716    1.089919    1.211182
      9          1           0        1.126744    1.582238    0.036246
     10          1           0        3.215000   -0.638486   -0.388948
     11          1           0        3.263778    0.977404   -1.101506
     12          1           0        1.998501   -0.160671   -1.579037
     13          1           0       -3.148272    0.049592   -0.927858
     14          1           0       -1.543357    1.841774   -0.699603
     15          1           0       -2.444169    0.813046    1.271685
 ---------------------------------------------------------------------

 SCF Done:  E(RHF) =  -806.940006074     A.U. after    2 cycles

 The electronic state is 1-A.
 Alpha  occ. eigenvalues --  -76.23869 -75.66613 -13.10424 -13.06780 -13.02585
 Alpha  occ. eigenvalues --  -11.43324 -11.39594 -11.35633  -8.00747  -5.57172
 Alpha  occ. eigenvalues --   -2.19457  -2.19248  -2.18979  -1.24762  -1.09591
 Alpha  occ. eigenvalues --   -0.95878  -0.83832  -0.75392  -0.63553  -0.62216
 Alpha  occ. eigenvalues --   -0.56798  -0.50926  -0.49029  -0.48514  -0.47526
 Alpha  occ. eigenvalues --   -0.46473  -0.39815  -0.32569  -0.25443
 Alpha virt. eigenvalues --    0.03629   0.04090   0.04907   0.05357   0.06095
 Alpha virt. eigenvalues --    0.06461   0.06877   0.07005   0.07829   0.08917
 Alpha virt. eigenvalues --    0.09720   0.10129   0.11235   0.11498   0.12565

 Mulliken charges:
               1
     1  S   -0.891200
     2  Si   6.145109
     3  C   -3.358665
     4  C   -2.857351
     5  H    1.605895
     6  H    1.379941
     7  C   -3.688859
     8  H    1.275122
     9  H    1.616373
    10  H    1.260926
    11  H    1.167569
    12  H    1.467858
    13  H   -1.746272
    14  H   -1.671400
    15  H   -1.705047
 Sum of Mulliken charges =   0.00000

 Dipole moment (field-independent basis, Debye):
    X=              1.3378    Y=             -1.1669    Z=              0.0885  Tot=              1.7774

 Test job not archived.
 1\1\GINC-SE336\SP\RHF\Aug-CC-pVDZ\C3H10S1Si1\OHZDE\09-Apr-2025\0\\#t h
 f aug-cc-pvdz iop(5/13=1,5/36=2,99/5=2) pseudo=read geom=check guess=(
 read,tcheck) scf=(maxcycle=1)\\title\\0,1\S,0,0.525774,0.987887,-0.190
 17\Si,0,2.017242,-0.560403,-0.125222\C,0,-0.753491,0.323598,0.981412\C
 ,0,-1.702897,-0.721183,0.39003\H,0,-1.308869,1.210246,1.297292\H,0,-0.
 238104,-0.064447,1.862028\C,0,-2.594922,-0.194337,-0.735716\H,0,-2.330
 716,-1.089919,1.211182\H,0,-1.126744,-1.582238,0.036246\H,0,-3.215,0.6
 38487,-0.388948\H,0,-3.263778,-0.977403,-1.101506\H,0,-1.998501,0.1606

 Normal termination of Gaussian 16 at Wed Apr  9 00:16:00 2025.
