 Gaussian 16, Revision C.01,

 ----------------------------------------------------------------------
 #t hf aug-cc-pvdz symm=none int=(grid=ultrafine) guess=(read,tcheck) s
 table=(opt,rrhf)
 ----------------------------------------------------------------------
 -----
 title
 -----
 Symbolic Z-matrix:
 Charge =  0 Multiplicity = 1

 SCF Done:  E(RHF) =  -517.249682519     A.U. after   15 cycles
 Normal termination of Gaussian 16 at Wed Apr  9 00:01:49 2025.
 Gaussian 16:  ES64L-G16RevC.01  3-Jul-2019

 ----------------------------------------------------------------------
 #t hf aug-cc-pvdz iop(5/13=1,5/36=2,99/5=2) pseudo=read geom=check gue
 ss=(read,tcheck) scf=(maxcycle=1)
 ----------------------------------------------------------------------
 -----
 title
 -----
 Structure from the checkpoint file:  "BDE49_nonexpt_2121_mol1.chk"
 Charge =  0 Multiplicity = 1

                         Standard orientation:
 ---------------------------------------------------------------------
 Center     Atomic      Atomic             Coordinates (Angstroms)
 Number     Number       Type             X           Y           Z
 ---------------------------------------------------------------------
      1         14           0        1.767827   -0.501105    0.196740
      2          7           0        0.020208   -0.877899    0.010728
      3          7           0       -0.712051    0.063461   -0.340990
      4          6           0       -2.137327   -0.303721   -0.467120
      5          6           0       -2.971600    0.569607    0.470027
      6          1           0       -2.263603   -1.372310   -0.263537
      7          1           0       -2.408386   -0.094905   -1.508220
      8          1           0       -2.730141    0.354802    1.514001
      9          1           0       -4.036876    0.379905    0.320110
     10          1           0       -2.778924    1.628695    0.284617
     11          6           0        2.237144    1.272639   -0.162440
     12          1           0        1.981241    1.544260   -1.189240
     13          1           0        3.313696    1.411919   -0.025622
     14          1           0        1.712158    1.958809    0.506250
     15          1           0        2.451284   -1.445593   -0.717364
     16          1           0        2.083565   -0.880199    1.593685
 ---------------------------------------------------------------------

 SCF Done:  E(RHF) =  -518.520892943     A.U. after    2 cycles

 The electronic state is 1-A.
 Alpha  occ. eigenvalues --  -76.21829 -15.79009 -15.75435 -11.41773 -11.36219
 Alpha  occ. eigenvalues --  -11.35021  -5.55698  -2.20752  -2.18586  -2.17587
 Alpha  occ. eigenvalues --   -1.51317  -1.16992  -1.04199  -0.96544  -0.82435
 Alpha  occ. eigenvalues --   -0.71675  -0.64410  -0.59741  -0.58040  -0.56530
 Alpha  occ. eigenvalues --   -0.54890  -0.52644  -0.51463  -0.47888  -0.46258
 Alpha  occ. eigenvalues --   -0.43120  -0.42222  -0.29504
 Alpha virt. eigenvalues --    0.03670   0.04584   0.05566   0.05831   0.06273
 Alpha virt. eigenvalues --    0.06740   0.06903   0.07001   0.07675   0.08124
 Alpha virt. eigenvalues --    0.08697   0.09388   0.11030   0.11940   0.13172

 Mulliken charges:
               1
     1  Si   5.865525
     2  N   -1.263019
     3  N   -0.863856
     4  C   -2.766204
     5  C   -3.180584
     6  H    1.556121
     7  H    1.575574
     8  H    1.356880
     9  H    1.182742
    10  H    1.315714
    11  C   -5.027395
    12  H    1.343596
    13  H    1.296485
    14  H    1.348781
    15  H   -1.888831
    16  H   -1.851528
 Sum of Mulliken charges =   0.00000

 Dipole moment (field-independent basis, Debye):
    X=             -0.3946    Y=              1.1368    Z=             -0.2828  Tot=              1.2362

 Test job not archived.
 1\1\GINC-SE332\SP\RHF\Aug-CC-pVDZ\C3H10N2Si1\OHZDE\09-Apr-2025\0\\#t h
 f aug-cc-pvdz iop(5/13=1,5/36=2,99/5=2) pseudo=read geom=check guess=(
 read,tcheck) scf=(maxcycle=1)\\title\\0,1\Si,0,1.767827,-0.501105,0.19
 674\N,0,0.020208,-0.877899,0.010728\N,0,-0.712051,0.063461,-0.34099\C,
 0,-2.137327,-0.303721,-0.46712\C,0,-2.9716,0.569607,0.470027\H,0,-2.26
 3603,-1.37231,-0.263537\H,0,-2.408386,-0.094905,-1.50822\H,0,-2.730141
 ,0.354802,1.514001\H,0,-4.036876,0.379905,0.32011\H,0,-2.778924,1.6286
 95,0.284617\C,0,2.237144,1.272639,-0.16244\H,0,1.981241,1.54426,-1.189

 Normal termination of Gaussian 16 at Wed Apr  9 00:01:54 2025.
