 Gaussian 16, Revision C.01,

 ----------------------------------------------------------------------
 #t hf aug-cc-pvdz symm=none int=(grid=ultrafine) guess=(read,tcheck) s
 table=(opt,rrhf)
 ----------------------------------------------------------------------
 -----
 title
 -----
 Symbolic Z-matrix:
 Charge =  0 Multiplicity = 1

 SCF Done:  E(RHF) =  -483.324481934     A.U. after   11 cycles
 Normal termination of Gaussian 16 at Tue Apr  8 22:58:50 2025.
 Gaussian 16:  ES64L-G16RevC.01  3-Jul-2019

 ----------------------------------------------------------------------
 #t hf aug-cc-pvdz iop(5/13=1,5/36=2,99/5=2) pseudo=read geom=check gue
 ss=(read,tcheck) scf=(maxcycle=1)
 ----------------------------------------------------------------------
 -----
 title
 -----
 Structure from the checkpoint file:  "BDE49_expt_1907_mol1.chk"
 Charge =  0 Multiplicity = 1

                         Standard orientation:
 ---------------------------------------------------------------------
 Center     Atomic      Atomic             Coordinates (Angstroms)
 Number     Number       Type             X           Y           Z
 ---------------------------------------------------------------------
      1         14           0       -0.005675    0.000000    0.034460
      2          8           0       -0.185097   -0.000005    1.692279
      3          1           0        0.602338   -0.000007    2.240199
      4          6           0        0.925836    1.532046   -0.526855
      5          1           0        0.411408    2.444524   -0.211422
      6          1           0        1.013593    1.558314   -1.618055
      7          1           0        1.941442    1.561814   -0.118434
      8          6           0       -1.753643   -0.000011   -0.626006
      9          1           0       -2.298708    0.883891   -0.283182
     10          1           0       -2.298695   -0.883924   -0.283188
     11          1           0       -1.765988   -0.000008   -1.720329
     12          6           0        0.925859   -1.532031   -0.526861
     13          1           0        1.941465   -1.561785   -0.118440
     14          1           0        1.013617   -1.558291   -1.618061
     15          1           0        0.411443   -2.444518   -0.211432
 ---------------------------------------------------------------------

 SCF Done:  E(RHF) =  -484.435202199     A.U. after    2 cycles

 The electronic state is 1-A.
 Alpha  occ. eigenvalues --  -76.19964 -21.05683 -11.33863 -11.33839 -11.33549
 Alpha  occ. eigenvalues --   -5.54307  -2.20759  -2.17668  -2.17386  -1.64268
 Alpha  occ. eigenvalues --   -1.06671  -1.00674  -1.00540  -0.67145  -0.57699
 Alpha  occ. eigenvalues --   -0.56369  -0.56056  -0.55069  -0.54332  -0.52891
 Alpha  occ. eigenvalues --   -0.52156  -0.42345  -0.40796  -0.36743  -0.34471
 Alpha virt. eigenvalues --    0.02737   0.05625   0.05628   0.05832   0.06340
 Alpha virt. eigenvalues --    0.06507   0.06694   0.07163   0.07446   0.08901
 Alpha virt. eigenvalues --    0.09484   0.10039   0.10984   0.12509   0.14909

 Mulliken charges:
               1
     1  Si   9.046940
     2  O   -3.349628
     3  H    1.089599
     4  C   -5.634624
     5  H    1.126853
     6  H    1.135281
     7  H    1.114186
     8  C   -5.754139
     9  H    1.168932
    10  H    1.168931
    11  H    1.145970
    12  C   -5.634622
    13  H    1.114186
    14  H    1.135281
    15  H    1.126853
 Sum of Mulliken charges =  -0.00000

 Dipole moment (field-independent basis, Debye):
    X=              0.4432    Y=             -0.0000    Z=             -0.0003  Tot=              0.4432

 Test job not archived.
 1\1\GINC-SE368\SP\RHF\Aug-CC-pVDZ\C3H10O1Si1\OHZDE\08-Apr-2025\0\\#t h
 f aug-cc-pvdz iop(5/13=1,5/36=2,99/5=2) pseudo=read geom=check guess=(
 read,tcheck) scf=(maxcycle=1)\\title\\0,1\Si,0,-0.005675,0.,0.03446\O,
 0,-0.185097,-0.000005,1.692279\H,0,0.602338,-0.000007,2.240199\C,0,0.9
 25837,1.532046,-0.526855\H,0,0.411409,2.444524,-0.211422\H,0,1.013594,
 1.558313,-1.618055\H,0,1.941443,1.561813,-0.118434\C,0,-1.753643,-0.00
 001,-0.626006\H,0,-2.298708,0.883892,-0.283182\H,0,-2.298695,-0.883923
 ,-0.283188\H,0,-1.765988,-0.000007,-1.720329\C,0,0.925858,-1.532031,-0

 Normal termination of Gaussian 16 at Tue Apr  8 22:58:53 2025.
