 Gaussian 16, Revision C.01,

 ----------------------------------------------------------------------
 #t hf aug-cc-pvdz symm=none int=(grid=ultrafine) guess=(read,tcheck) s
 table=(opt,rrhf)
 ----------------------------------------------------------------------
 -----
 title
 -----
 Symbolic Z-matrix:
 Charge =  0 Multiplicity = 1

 SCF Done:  E(RHF) =  -428.529699321     A.U. after   12 cycles
 Normal termination of Gaussian 16 at Tue Apr  8 22:37:23 2025.
 Gaussian 16:  ES64L-G16RevC.01  3-Jul-2019

 ----------------------------------------------------------------------
 #t hf aug-cc-pvdz iop(5/13=1,5/36=2,99/5=2) pseudo=read geom=check gue
 ss=(read,tcheck) scf=(maxcycle=1)
 ----------------------------------------------------------------------
 -----
 title
 -----
 Structure from the checkpoint file:  "BDE49_expt_1147_mol1.chk"
 Charge =  0 Multiplicity = 1

                         Standard orientation:
 ---------------------------------------------------------------------
 Center     Atomic      Atomic             Coordinates (Angstroms)
 Number     Number       Type             X           Y           Z
 ---------------------------------------------------------------------
      1          6           0       -1.158172   -0.000001    0.000024
      2          6           0        0.321325    0.000040    0.000001
      3          7           0       -2.307798    0.000012    0.000003
      4          9           0        0.784291   -0.626547    1.086788
      5          9           0        0.784255   -0.628027   -1.085947
      6          9           0        0.784305    1.254539   -0.000861
 ---------------------------------------------------------------------

 SCF Done:  E(RHF) =  -430.096167540     A.U. after    2 cycles

 The electronic state is 1-A.
 Alpha  occ. eigenvalues --  -29.35719 -29.35718 -29.35654 -15.82823 -11.67527
 Alpha  occ. eigenvalues --  -11.47832  -1.49751  -1.33561  -0.94249  -0.94245
 Alpha  occ. eigenvalues --   -0.93449  -0.59420  -0.51800  -0.51666  -0.51665
 Alpha  occ. eigenvalues --   -0.47476  -0.47475  -0.39661  -0.39659  -0.36608
 Alpha  occ. eigenvalues --   -0.30038  -0.30035  -0.25555
 Alpha virt. eigenvalues --    0.07137   0.09988   0.11807   0.11807   0.12290
 Alpha virt. eigenvalues --    0.12291   0.13642   0.17101   0.17584   0.17584
 Alpha virt. eigenvalues --    0.20751   0.20751   0.22975   0.24098   0.26236

 Mulliken charges:
               1
     1  C    0.145517
     2  C    0.488551
     3  N   -1.992683
     4  F    0.452936
     5  F    0.452921
     6  F    0.452758
 Sum of Mulliken charges =  -0.00000

 Dipole moment (field-independent basis, Debye):
    X=              4.5037    Y=             -0.0002    Z=             -0.0000  Tot=              4.5037

 Test job not archived.
 1\1\GINC-SE461\SP\RHF\Aug-CC-pVDZ\C2F3N1\OHZDE\08-Apr-2025\0\\#t hf au
 g-cc-pvdz iop(5/13=1,5/36=2,99/5=2) pseudo=read geom=check guess=(read
 ,tcheck) scf=(maxcycle=1)\\title\\0,1\C,0,-1.158172,-0.000001,0.000024
 \C,0,0.321325,0.00004,0.000001\N,0,-2.307798,0.000012,0.000003\F,0,0.7
 84291,-0.62709,1.086475\F,0,0.784255,-0.627484,-1.086261\F,0,0.784305,
 1.254539,-0.000234\\Version=ES64L-G16RevC.01\State=1-A\HF=-430.0961675
 \RMSD=1.761e-01\Dipole=1.771876,-0.0000729,-0.000018\Quadrupole=-3.802
 8952,1.9019791,1.9009161,-0.0000733,0.0000228,0.0000068\PG=C01 [X(C2F3

 Normal termination of Gaussian 16 at Tue Apr  8 22:37:26 2025.
