 Gaussian 16, Revision C.01,

 ----------------------------------------------------------------------
 #t hf aug-cc-pvdz symm=none int=(grid=ultrafine) guess=(read,tcheck) s
 table=(opt,rrhf)
 ----------------------------------------------------------------------
 -----
 title
 -----
 Symbolic Z-matrix:
 Charge =  0 Multiplicity = 1

 SCF Done:  E(RHF) =  -601.171446175     A.U. after   15 cycles
 Normal termination of Gaussian 16 at Wed Apr  9 00:49:17 2025.
 Gaussian 16:  ES64L-G16RevC.01  3-Jul-2019

 ----------------------------------------------------------------------
 #t hf aug-cc-pvdz iop(5/13=1,5/36=2,99/5=2) pseudo=read geom=check gue
 ss=(read,tcheck) scf=(maxcycle=1)
 ----------------------------------------------------------------------
 -----
 title
 -----
 Structure from the checkpoint file:  "BDE49_nonexpt_852_mol1.chk"
 Charge =  0 Multiplicity = 1

                         Standard orientation:
 ---------------------------------------------------------------------
 Center     Atomic      Atomic             Coordinates (Angstroms)
 Number     Number       Type             X           Y           Z
 ---------------------------------------------------------------------
      1          6           0        0.213658   -0.437174    0.258814
      2          5           0       -2.890807    0.326539   -0.267675
      3          7           0       -2.423462    1.471149   -0.900165
      4          1           0       -1.440172    1.684227   -0.995635
      5          1           0       -3.028992    2.166307   -1.312700
      6          6           0        1.054990   -1.082199   -0.661917
      7          6           0        2.357603   -0.639617   -0.886580
      8          6           0        2.849942    0.463297   -0.192589
      9          6           0        2.033753    1.120180    0.726680
     10          6           0        0.732259    0.673896    0.946808
     11          1           0        0.116034    1.194419    1.674618
     12          1           0        0.690845   -1.947344   -1.207011
     13          1           0        2.989076   -1.158262   -1.599936
     14          1           0        3.864087    0.807059   -0.363792
     15          1           0        2.412573    1.975981    1.275161
     16         14           0       -1.573449   -0.993681    0.524283
     17          1           0       -1.814495   -1.153783    1.984770
     18          1           0       -1.721977   -2.339547   -0.092630
     19          1           0       -4.073659    0.161449   -0.210573
 ---------------------------------------------------------------------

 SCF Done:  E(RHF) =  -602.820712011     A.U. after    2 cycles

 The electronic state is 1-A.
 Alpha  occ. eigenvalues --  -76.18854 -15.73482 -11.50955 -11.42689 -11.42139
 Alpha  occ. eigenvalues --  -11.40328 -11.39966 -11.35776  -7.59521  -5.52619
 Alpha  occ. eigenvalues --   -2.17476  -2.16011  -2.15103  -1.33511  -1.31880
 Alpha  occ. eigenvalues --   -1.08783  -1.08706  -0.86478  -0.85843  -0.81770
 Alpha  occ. eigenvalues --   -0.73374  -0.69007  -0.66885  -0.63036  -0.58079
 Alpha  occ. eigenvalues --   -0.56348  -0.53155  -0.50715  -0.50080  -0.46186
 Alpha  occ. eigenvalues --   -0.44180  -0.41713  -0.40005  -0.35754  -0.32883
 Alpha  occ. eigenvalues --   -0.32050
 Alpha virt. eigenvalues --    0.03099   0.03638   0.04113   0.04523   0.05384
 Alpha virt. eigenvalues --    0.05736   0.06381   0.07700   0.07877   0.08427
 Alpha virt. eigenvalues --    0.09191   0.09260   0.09866   0.10366   0.10808

 Mulliken charges:
               1
     1  C   -0.099554
     2  B    3.231411
     3  N   -2.808445
     4  H    1.032576
     5  H    0.809726
     6  C   -2.820313
     7  C   -0.786664
     8  C   -1.993333
     9  C   -0.914103
    10  C   -2.058707
    11  H    1.902945
    12  H    1.842470
    13  H    1.579486
    14  H    1.520859
    15  H    1.543245
    16  Si   5.001532
    17  H   -1.975360
    18  H   -1.910430
    19  H   -3.097340
 Sum of Mulliken charges =  -0.00000

 Dipole moment (field-independent basis, Debye):
    X=              0.9820    Y=              2.1444    Z=             -1.2665  Tot=              2.6771

 Test job not archived.
 1\1\GINC-SE072\SP\RHF\Aug-CC-pVDZ\C6H10B1N1Si1\OHZDE\09-Apr-2025\0\\#t
  hf aug-cc-pvdz iop(5/13=1,5/36=2,99/5=2) pseudo=read geom=check guess
 =(read,tcheck) scf=(maxcycle=1)\\title\\0,1\C,0,0.213658,-0.437174,0.2
 58814\B,0,-2.890807,0.326539,-0.267675\N,0,-2.423462,1.471149,-0.90016
 5\H,0,-1.440172,1.684227,-0.995635\H,0,-3.028992,2.166307,-1.3127\C,0,
 1.05499,-1.082199,-0.661917\C,0,2.357603,-0.639617,-0.88658\C,0,2.8499
 42,0.463297,-0.192589\C,0,2.033753,1.12018,0.72668\C,0,0.732259,0.6738
 96,0.946808\H,0,0.116034,1.194419,1.674618\H,0,0.690845,-1.947344,-1.2

 Normal termination of Gaussian 16 at Wed Apr  9 00:49:26 2025.
