 Gaussian 16, Revision C.01,

 ----------------------------------------------------------------------
 #t hf aug-cc-pvdz symm=none int=(grid=ultrafine) guess=(read,tcheck) s
 table=opt
 ----------------------------------------------------------------------
 -----
 title
 -----
 Symbolic Z-matrix:
 Charge =  0 Multiplicity = 2

 SCF Done:  E(UHF) =  -441.292284130     A.U. after   16 cycles
 Normal termination of Gaussian 16 at Wed Apr  9 00:18:53 2025.
 Gaussian 16:  ES64L-G16RevC.01  3-Jul-2019

 ----------------------------------------------------------------------
 #t hf aug-cc-pvdz iop(5/13=1,5/36=2,99/5=2) pseudo=read geom=check gue
 ss=(read,tcheck) scf=(maxcycle=1)
 ----------------------------------------------------------------------
 -----
 title
 -----
 Structure from the checkpoint file:  "BDE49_nonexpt_255_mol2.chk"
 Charge =  0 Multiplicity = 2

                         Standard orientation:
 ---------------------------------------------------------------------
 Center     Atomic      Atomic             Coordinates (Angstroms)
 Number     Number       Type             X           Y           Z
 ---------------------------------------------------------------------
      1          6           0        1.636268   -0.047994    0.399227
      2          8           0        1.188004    1.028202   -0.372723
      3          6           0       -0.000037    1.662965    0.033527
      4          8           0       -1.188059    1.028162   -0.372707
      5          6           0       -1.636259   -0.048069    0.399235
      6          8           0       -1.233944   -1.322628   -0.105238
      7          5           0        0.000041   -1.824541   -0.315116
      8          8           0        1.234002   -1.322581   -0.105215
      9          1           0       -0.000057    2.629602   -0.464593
     10          1           0       -0.000031    1.785817    1.128479
     11          1           0       -2.722672   -0.049087    0.340710
     12          1           0       -1.310690    0.057302    1.442717
     13          1           0        1.310714    0.057378    1.442713
     14          1           0        2.722680   -0.048964    0.340681
 ---------------------------------------------------------------------

 SCF Done:  E(UHF) =  -443.129830966     A.U. after    2 cycles

 The electronic state is 2-A.
 Alpha  occ. eigenvalues --  -21.07856 -21.07811 -21.04232 -21.04193 -11.47488
 Alpha  occ. eigenvalues --  -11.47313 -11.46473  -7.67443  -1.88386  -1.78893
 Alpha  occ. eigenvalues --   -1.78517  -1.66169  -1.06827  -0.96308  -0.90911
 Alpha  occ. eigenvalues --   -0.76430  -0.69302  -0.68855  -0.65627  -0.65156
 Alpha  occ. eigenvalues --   -0.61103  -0.59980  -0.53516  -0.47622  -0.42741
 Alpha  occ. eigenvalues --   -0.42656  -0.37563  -0.35968  -0.34844  -0.30629
 Alpha  occ. eigenvalues --   -0.27411
 Alpha virt. eigenvalues --    0.03168   0.04569   0.04824   0.04901   0.05392
 Alpha virt. eigenvalues --    0.06266   0.06546   0.07473   0.07615   0.11100
 Alpha virt. eigenvalues --    0.11800   0.12445   0.13471   0.13701   0.14387

  Beta  occ. eigenvalues --  -21.07846 -21.07801 -21.04077 -21.04040 -11.47413
  Beta  occ. eigenvalues --  -11.47162 -11.46399  -7.65274  -1.88082  -1.78669
  Beta  occ. eigenvalues --   -1.78023  -1.65921  -1.06253  -0.95789  -0.90544
  Beta  occ. eigenvalues --   -0.76067  -0.68776  -0.67374  -0.65058  -0.64993
  Beta  occ. eigenvalues --   -0.60794  -0.58968  -0.53074  -0.45997  -0.42697
  Beta  occ. eigenvalues --   -0.40923  -0.35920  -0.34942  -0.34632  -0.30707
  Beta virt. eigenvalues --    0.03159   0.04514   0.04671   0.04834   0.05170
  Beta virt. eigenvalues --    0.05602   0.06570   0.07559   0.07685   0.09545
  Beta virt. eigenvalues --    0.11111   0.12452   0.13074   0.13615   0.13879

 Mulliken charges and spin densities:
               1          2
     1  C    0.437440   0.055347
     2  O   -2.994318  -0.000063
     3  C   -0.174180   0.000949
     4  O   -2.994308  -0.000063
     5  C    0.437426   0.055349
     6  O   -3.297970  -0.123385
     7  B    3.277910   1.148648
     8  O   -3.297982  -0.123390
     9  H    1.440285   0.002651
    10  H    1.567970  -0.007435
    11  H    1.373401  -0.002146
    12  H    1.425456  -0.002158
    13  H    1.425462  -0.002157
    14  H    1.373408  -0.002146
 Sum of Mulliken charges =   0.00000   1.00000

 Dipole moment (field-independent basis, Debye):
    X=             -0.0000    Y=              2.3998    Z=              1.5711  Tot=              2.8684
                          Isotropic Fermi Contact Couplings
        Atom                 a.u.       MegaHertz       Gauss      10(-4) cm-1
     1  C(13)              0.04431      49.81644      17.77574      16.61698
     2  O(17)              0.00159      -0.96485      -0.34428      -0.32184
     3  C(13)              0.00019       0.21757       0.07764       0.07257
     4  O(17)              0.00159      -0.96479      -0.34426      -0.32182
     5  C(13)              0.04431      49.81666      17.77582      16.61705
     6  O(17)              0.17321    -104.99752     -37.46573     -35.02340
     7  B(11)              0.38545     552.88186     197.28200     184.42154
     8  O(17)              0.17321    -104.99775     -37.46581     -35.02348

 Normal termination of Gaussian 16 at Wed Apr  9 00:19:00 2025.
