 Gaussian 16, Revision C.01,

 ----------------------------------------------------------------------
 #t hf aug-cc-pvdz symm=none int=(grid=ultrafine) guess=(read,tcheck) s
 table=(opt,rrhf)
 ----------------------------------------------------------------------
 -----
 title
 -----
 Symbolic Z-matrix:
 Charge =  0 Multiplicity = 1

 SCF Done:  E(RHF) =  -741.011597639     A.U. after   16 cycles
 Normal termination of Gaussian 16 at Tue Apr  8 23:16:50 2025.
 Gaussian 16:  ES64L-G16RevC.01  3-Jul-2019

 ----------------------------------------------------------------------
 #t hf aug-cc-pvdz iop(5/13=1,5/36=2,99/5=2) pseudo=read geom=check gue
 ss=(read,tcheck) scf=(maxcycle=1)
 ----------------------------------------------------------------------
 -----
 title
 -----
 Structure from the checkpoint file:  "BDE49_expt_847_mol1.chk"
 Charge =  0 Multiplicity = 1

                         Standard orientation:
 ---------------------------------------------------------------------
 Center     Atomic      Atomic             Coordinates (Angstroms)
 Number     Number       Type             X           Y           Z
 ---------------------------------------------------------------------
      1          6           0        1.041529    1.218096   -0.186870
      2          6           0        2.405380    0.962968   -0.255918
      3          6           0        2.884455   -0.332123   -0.060521
      4          6           0        1.994348   -1.370391    0.205536
      5          6           0        0.626084   -1.121659    0.258129
      6          6           0        0.138837    0.173615    0.053704
      7          1           0        0.653168    2.220076   -0.318571
      8          1           0        3.095970    1.773788   -0.457001
      9          1           0        2.365314   -2.373955    0.378190
     10          1           0       -0.052432   -1.931360    0.495259
     11          1           0        3.949181   -0.530275   -0.108412
     12          6           0       -1.308781    0.545280    0.133351
     13          8           0       -1.684999    1.655746    0.407816
     14         16           0       -2.588591   -0.698924   -0.215007
     15          1           0       -1.804849   -1.676171   -0.696337
 ---------------------------------------------------------------------

 SCF Done:  E(RHF) =  -742.809066392     A.U. after    2 cycles

 The electronic state is 1-A.
 Alpha  occ. eigenvalues --  -75.71211 -21.06856 -13.15661 -13.13406 -13.03515
 Alpha  occ. eigenvalues --  -11.53450 -11.52120 -11.45411 -11.44994 -11.43219
 Alpha  occ. eigenvalues --  -11.42537 -11.38590  -8.05211  -1.73231  -1.36403
 Alpha  occ. eigenvalues --   -1.17484  -1.11605  -1.10790  -0.92171  -0.88372
 Alpha  occ. eigenvalues --   -0.78825  -0.72569  -0.65724  -0.62488  -0.60525
 Alpha  occ. eigenvalues --   -0.59339  -0.55291  -0.51923  -0.48523  -0.47902
 Alpha  occ. eigenvalues --   -0.46218  -0.44091  -0.34950  -0.33872  -0.28087
 Alpha  occ. eigenvalues --   -0.26158
 Alpha virt. eigenvalues --    0.02539   0.04609   0.04749   0.05497   0.06538
 Alpha virt. eigenvalues --    0.06799   0.07836   0.08741   0.09442   0.10289
 Alpha virt. eigenvalues --    0.11617   0.12462   0.12759   0.12920   0.13462

 Mulliken charges:
               1
     1  C   -3.220008
     2  C   -1.263971
     3  C   -2.660824
     4  C   -1.551637
     5  C   -0.216023
     6  C    2.500766
     7  H    1.711954
     8  H    1.466962
     9  H    1.489411
    10  H    1.947206
    11  H    1.523456
    12  C    1.387902
    13  O   -3.376025
    14  S   -0.755243
    15  H    1.016072
 Sum of Mulliken charges =  -0.00000

 Dipole moment (field-independent basis, Debye):
    X=              0.5809    Y=             -0.6417    Z=             -0.0878  Tot=              0.8700

 Test job not archived.
 1\1\GINC-SE084\SP\RHF\Aug-CC-pVDZ\C7H6O1S1\OHZDE\08-Apr-2025\0\\#t hf
 aug-cc-pvdz iop(5/13=1,5/36=2,99/5=2) pseudo=read geom=check guess=(re
 ad,tcheck) scf=(maxcycle=1)\\title\\0,1\C,0,1.041529,1.218096,-0.18687
 \C,0,2.40538,0.962968,-0.255918\C,0,2.884455,-0.332123,-0.060521\C,0,1
 .994348,-1.370391,0.205536\C,0,0.626084,-1.121659,0.258129\C,0,0.13883
 7,0.173615,0.053704\H,0,0.653168,2.220076,-0.318571\H,0,3.09597,1.7737
 88,-0.457001\H,0,2.365314,-2.373955,0.37819\H,0,-0.052432,-1.93136,0.4
 95259\H,0,3.949181,-0.530275,-0.108412\C,0,-1.308781,0.54528,0.133351\

 Normal termination of Gaussian 16 at Tue Apr  8 23:16:58 2025.
