 Gaussian 16, Revision C.01,

 ----------------------------------------------------------------------
 #t hf aug-cc-pvdz symm=none int=(grid=ultrafine) guess=(read,tcheck) s
 table=(opt,rrhf)
 ----------------------------------------------------------------------
 -----
 title
 -----
 Symbolic Z-matrix:
 Charge =  0 Multiplicity = 1

 SCF Done:  E(RHF) =  -805.937508549     A.U. after   12 cycles
 Normal termination of Gaussian 16 at Wed Apr  9 00:15:24 2025.
 Gaussian 16:  ES64L-G16RevC.01  3-Jul-2019

 ----------------------------------------------------------------------
 #t hf aug-cc-pvdz iop(5/13=1,5/36=2,99/5=2) pseudo=read geom=check gue
 ss=(read,tcheck) scf=(maxcycle=1)
 ----------------------------------------------------------------------
 -----
 title
 -----
 Structure from the checkpoint file:  "BDE49_nonexpt_2485_mol1.chk"
 Charge =  0 Multiplicity = 1

                         Standard orientation:
 ---------------------------------------------------------------------
 Center     Atomic      Atomic             Coordinates (Angstroms)
 Number     Number       Type             X           Y           Z
 ---------------------------------------------------------------------
      1          6           0        1.870749   -0.212958    0.529998
      2          6           0        2.569599    0.732386   -0.441674
      3          1           0        1.950657    1.602116   -0.672185
      4          1           0        2.799842    0.226535   -1.381626
      5         16           0        0.312362   -0.969360   -0.130778
      6          1           0        1.640843    0.280421    1.476343
      7         14           0       -1.125326    0.606510    0.198056
      8          1           0        2.505979   -1.070380    0.760209
      9          6           0       -2.817497   -0.072754   -0.234041
     10          1           0       -2.857315   -0.390679   -1.278850
     11          1           0       -3.579059    0.698377   -0.085824
     12          1           0       -3.070028   -0.928869    0.395853
     13          1           0        3.508297    1.092117   -0.006845
     14          1           0       -0.822339    1.798573   -0.632526
     15          1           0       -1.057201    1.030364    1.619417
 ---------------------------------------------------------------------

 SCF Done:  E(RHF) =  -806.957773105     A.U. after    2 cycles

 The electronic state is 1-A.
 Alpha  occ. eigenvalues --  -76.22762 -75.66013 -13.10073 -13.05987 -13.01599
 Alpha  occ. eigenvalues --  -11.42161 -11.36885 -11.35358  -8.00155  -5.56294
 Alpha  occ. eigenvalues --   -2.19731  -2.18376  -2.18071  -1.21649  -1.05645
 Alpha  occ. eigenvalues --   -1.02091  -0.86454  -0.71763  -0.62917  -0.58519
 Alpha  occ. eigenvalues --   -0.56520  -0.56186  -0.52027  -0.50605  -0.46628
 Alpha  occ. eigenvalues --   -0.44313  -0.38616  -0.31790  -0.25024
 Alpha virt. eigenvalues --    0.03103   0.03782   0.05004   0.05139   0.06437
 Alpha virt. eigenvalues --    0.06946   0.07408   0.07626   0.08209   0.08286
 Alpha virt. eigenvalues --    0.09322   0.10382   0.11415   0.11803   0.12872

 Mulliken charges:
               1
     1  C   -3.944048
     2  C   -3.453682
     3  H    1.433907
     4  H    1.359807
     5  S   -0.810584
     6  H    1.413878
     7  Si   6.267687
     8  H    1.572094
     9  C   -4.989299
    10  H    1.295561
    11  H    1.262020
    12  H    1.304051
    13  H    1.170045
    14  H   -1.927250
    15  H   -1.954187
 Sum of Mulliken charges =  -0.00000

 Dipole moment (field-independent basis, Debye):
    X=              0.3144    Y=             -1.3894    Z=             -0.2700  Tot=              1.4499

 Test job not archived.
 1\1\GINC-SE162\SP\RHF\Aug-CC-pVDZ\C3H10S1Si1\OHZDE\09-Apr-2025\0\\#t h
 f aug-cc-pvdz iop(5/13=1,5/36=2,99/5=2) pseudo=read geom=check guess=(
 read,tcheck) scf=(maxcycle=1)\\title\\0,1\C,0,1.870749,-0.212958,0.529
 998\C,0,2.569599,0.732386,-0.441674\H,0,1.950657,1.602116,-0.672185\H,
 0,2.799842,0.226535,-1.381626\S,0,0.312362,-0.96936,-0.130778\H,0,1.64
 0843,0.280421,1.476343\Si,0,-1.125326,0.60651,0.198056\H,0,2.505979,-1
 .07038,0.760209\C,0,-2.817497,-0.072754,-0.234041\H,0,-2.857315,-0.390
 679,-1.27885\H,0,-3.579059,0.698377,-0.085824\H,0,-3.070028,-0.928869,

 Normal termination of Gaussian 16 at Wed Apr  9 00:15:28 2025.
