 Gaussian 16, Revision C.01,

 ----------------------------------------------------------------------
 #t hf aug-cc-pvdz symm=none int=(grid=ultrafine) guess=(read,tcheck) s
 table=(opt,rrhf)
 ----------------------------------------------------------------------
 -----
 title
 -----
 Symbolic Z-matrix:
 Charge =  0 Multiplicity = 1

 SCF Done:  E(RHF) =  -571.627300386     A.U. after   14 cycles

 1\1\GINC-SE453\Stability\RHF\Aug-CC-pVDZ\C7H12O4\OHZDE\08-Apr-2025\0\\
 #t hf aug-cc-pvdz symm=none int=(grid=ultrafine) guess=(read,tcheck) s
 table=(opt,rrhf)\\title\\0,1\C,0,1.113819,-1.160727,-0.254434\O,0,1.72
 1245,-1.657503,-1.165971\O,0,1.438497,0.011344,0.324586\C,0,2.588906,0
 .702127,-0.226351\C,0,-0.096239,-1.778367,0.427129\C,0,-1.276609,-0.82
 9306,0.549352\O,0,-1.869753,-0.596202,1.569919\O,0,-1.587834,-0.309963
 ,-0.654965\C,0,-2.698881,0.623601,-0.702308\C,0,2.796325,1.961485,0.58
 8742\H,0,2.392062,0.918492,-1.278851\H,0,3.451252,0.033509,-0.179283\H

 Normal termination of Gaussian 16 at Tue Apr  8 23:06:17 2025.
 Gaussian 16:  ES64L-G16RevC.01  3-Jul-2019

 ----------------------------------------------------------------------
 #t hf aug-cc-pvdz iop(5/13=1,5/36=2,99/5=2) pseudo=read geom=check gue
 ss=(read,tcheck) scf=(maxcycle=1)
 ----------------------------------------------------------------------
 -----
 title
 -----
 Structure from the checkpoint file:  "BDE49_expt_273_mol1.chk"
 Charge =  0 Multiplicity = 1

                         Standard orientation:
 ---------------------------------------------------------------------
 Center     Atomic      Atomic             Coordinates (Angstroms)
 Number     Number       Type             X           Y           Z
 ---------------------------------------------------------------------
      1          6           0        1.113819   -1.160727   -0.254434
      2          8           0        1.721245   -1.657503   -1.165971
      3          8           0        1.438497    0.011344    0.324586
      4          6           0        2.588906    0.702127   -0.226351
      5          6           0       -0.096239   -1.778367    0.427129
      6          6           0       -1.276609   -0.829306    0.549352
      7          8           0       -1.869753   -0.596202    1.569919
      8          8           0       -1.587834   -0.309963   -0.654965
      9          6           0       -2.698881    0.623601   -0.702308
     10          6           0        2.796325    1.961485    0.588742
     11          1           0        2.392062    0.918492   -1.278851
     12          1           0        3.451252    0.033509   -0.179283
     13          1           0        1.921334    2.612404    0.532224
     14          1           0        3.660045    2.511663    0.206400
     15          1           0        2.978826    1.720190    1.638026
     16          6           0       -2.239434    2.039396   -0.398610
     17          1           0       -3.460768    0.293160    0.004343
     18          1           0       -3.079650    0.533584   -1.719557
     19          1           0       -1.870530    2.113521    0.625606
     20          1           0       -3.077865    2.732462   -0.512146
     21          1           0       -1.446015    2.344783   -1.084426
     22          1           0        0.175476   -2.093107    1.435469
     23          1           0       -0.388722   -2.651323   -0.157469
 ---------------------------------------------------------------------

 SCF Done:  E(RHF) =  -574.164608061     A.U. after    2 cycles

 The electronic state is 1-A.
 Alpha  occ. eigenvalues --  -21.09347 -21.09293 -21.05686 -21.05674 -11.54344
 Alpha  occ. eigenvalues --  -11.53402 -11.44964 -11.44867 -11.42832 -11.37934
 Alpha  occ. eigenvalues --  -11.37490  -1.85926  -1.83375  -1.67211  -1.66774
 Alpha  occ. eigenvalues --   -1.18565  -1.14252  -1.10862  -0.92300  -0.90575
 Alpha  occ. eigenvalues --   -0.80057  -0.74884  -0.69969  -0.67463  -0.65429
 Alpha  occ. eigenvalues --   -0.64765  -0.60328  -0.59385  -0.57588  -0.55929
 Alpha  occ. eigenvalues --   -0.53738  -0.53524  -0.51464  -0.51209  -0.50068
 Alpha  occ. eigenvalues --   -0.48468  -0.46527  -0.42766  -0.40995  -0.33354
 Alpha  occ. eigenvalues --   -0.32316  -0.31879  -0.28294
 Alpha virt. eigenvalues --    0.03658   0.04276   0.04725   0.04857   0.05525
 Alpha virt. eigenvalues --    0.06161   0.06518   0.06880   0.06955   0.07445
 Alpha virt. eigenvalues --    0.07995   0.09100   0.09874   0.11708   0.11996

 Mulliken charges:
               1
     1  C    7.212610
     2  O   -3.354385
     3  O   -3.356154
     4  C   -2.346568
     5  C   -6.009252
     6  C    6.983205
     7  O   -3.288394
     8  O   -3.413971
     9  C   -1.904952
    10  C   -3.618343
    11  H    1.725434
    12  H    1.564256
    13  H    1.370003
    14  H    1.083380
    15  H    1.358960
    16  C   -3.965332
    17  H    1.615672
    18  H    1.419417
    19  H    1.322226
    20  H    1.196182
    21  H    1.432694
    22  H    1.494395
    23  H    1.478917
 Sum of Mulliken charges =  -0.00000

 Dipole moment (field-independent basis, Debye):
    X=              0.0158    Y=              1.7138    Z=             -0.4362  Tot=              1.7685

 Test job not archived.
 1\1\GINC-SE453\SP\RHF\Aug-CC-pVDZ\C7H12O4\OHZDE\08-Apr-2025\0\\#t hf a
 ug-cc-pvdz iop(5/13=1,5/36=2,99/5=2) pseudo=read geom=check guess=(rea
 d,tcheck) scf=(maxcycle=1)\\title\\0,1\C,0,1.113819,-1.160727,-0.25443
 4\O,0,1.721245,-1.657503,-1.165971\O,0,1.438497,0.011344,0.324586\C,0,
 2.588906,0.702127,-0.226351\C,0,-0.096239,-1.778367,0.427129\C,0,-1.27
 6609,-0.829306,0.549352\O,0,-1.869753,-0.596202,1.569919\O,0,-1.587834
 ,-0.309963,-0.654965\C,0,-2.698881,0.623601,-0.702308\C,0,2.796325,1.9
 61485,0.588742\H,0,2.392062,0.918492,-1.278851\H,0,3.451252,0.033509,-

 Normal termination of Gaussian 16 at Tue Apr  8 23:06:29 2025.
