 Gaussian 16, Revision C.01,

 ----------------------------------------------------------------------
 #t hf aug-cc-pvdz symm=none int=(grid=ultrafine) guess=(read,tcheck) s
 table=(opt,rrhf)
 ----------------------------------------------------------------------
 -----
 title
 -----
 Symbolic Z-matrix:
 Charge =  0 Multiplicity = 1

 SCF Done:  E(RHF) =  -594.123847800     A.U. after   12 cycles
 Normal termination of Gaussian 16 at Wed Apr  9 00:08:48 2025.
 Gaussian 16:  ES64L-G16RevC.01  3-Jul-2019

 ----------------------------------------------------------------------
 #t hf aug-cc-pvdz iop(5/13=1,5/36=2,99/5=2) pseudo=read geom=check gue
 ss=(read,tcheck) scf=(maxcycle=1)
 ----------------------------------------------------------------------
 -----
 title
 -----
 Structure from the checkpoint file:  "BDE49_nonexpt_2278_mol1.chk"
 Charge =  0 Multiplicity = 1

                         Standard orientation:
 ---------------------------------------------------------------------
 Center     Atomic      Atomic             Coordinates (Angstroms)
 Number     Number       Type             X           Y           Z
 ---------------------------------------------------------------------
      1         14           0        0.435164    0.034528   -0.006402
      2          8           0        1.538801    1.251374   -0.020337
      3          8           0        0.637475   -0.978863    1.285334
      4          1           0        2.441728    1.028929   -0.260530
      5          6           0       -1.229973    0.861205   -0.025335
      6          6           0       -2.418726   -0.116521   -0.018362
      7          1           0       -1.269741    1.502546   -0.912969
      8          1           0       -1.288692    1.542944    0.831866
      9          1           0       -2.389065   -0.774690   -0.890697
     10          1           0       -3.375079    0.413399   -0.035129
     11          1           0       -2.406880   -0.752641    0.871013
     12          8           0        0.658015   -0.951252   -1.302751
     13          1           0        0.769001   -1.886080   -1.115003
     14          1           0        0.644302   -0.595981    2.165277
 ---------------------------------------------------------------------

 SCF Done:  E(RHF) =  -595.621628639     A.U. after    2 cycles

 The electronic state is 1-A.
 Alpha  occ. eigenvalues --  -76.23556 -21.07309 -21.07022 -21.06830 -11.39016
 Alpha  occ. eigenvalues --  -11.34043  -5.58653  -2.26533  -2.25306  -2.22836
 Alpha  occ. eigenvalues --   -1.70088  -1.63858  -1.63399  -1.14407  -0.89016
 Alpha  occ. eigenvalues --   -0.71166  -0.62485  -0.61435  -0.59829  -0.57883
 Alpha  occ. eigenvalues --   -0.49607  -0.48740  -0.47366  -0.46252  -0.42800
 Alpha  occ. eigenvalues --   -0.40461  -0.37319  -0.35612  -0.34537
 Alpha virt. eigenvalues --    0.03390   0.05457   0.05934   0.06164   0.06308
 Alpha virt. eigenvalues --    0.06783   0.07116   0.07410   0.08763   0.09227
 Alpha virt. eigenvalues --    0.10017   0.12667   0.13949   0.15750   0.16229

 Mulliken charges:
               1
     1  Si   8.118549
     2  O   -3.123645
     3  O   -3.122749
     4  H    1.107062
     5  C   -4.399036
     6  C   -3.640031
     7  H    1.367645
     8  H    1.273600
     9  H    1.283556
    10  H    1.118640
    11  H    1.229285
    12  O   -3.133902
    13  H    0.945583
    14  H    0.975444
 Sum of Mulliken charges =  -0.00000

 Dipole moment (field-independent basis, Debye):
    X=              0.2028    Y=             -0.2615    Z=              0.5278  Tot=              0.6230

 Test job not archived.
 1\1\GINC-SE329\SP\RHF\Aug-CC-pVDZ\C2H8O3Si1\OHZDE\09-Apr-2025\0\\#t hf
  aug-cc-pvdz iop(5/13=1,5/36=2,99/5=2) pseudo=read geom=check guess=(r
 ead,tcheck) scf=(maxcycle=1)\\title\\0,1\Si,0,0.435164,0.034528,-0.006
 402\O,0,1.538801,1.251374,-0.020337\O,0,0.637475,-0.978863,1.285334\H,
 0,2.441728,1.028929,-0.26053\C,0,-1.229973,0.861205,-0.025335\C,0,-2.4
 18726,-0.11652,-0.018362\H,0,-1.269741,1.502546,-0.912969\H,0,-1.28869
 2,1.542944,0.831866\H,0,-2.389065,-0.774689,-0.890697\H,0,-3.375079,0.
 4134,-0.035129\H,0,-2.40688,-0.75264,0.871013\O,0,0.658015,-0.951252,-

 Normal termination of Gaussian 16 at Wed Apr  9 00:08:52 2025.
