 Gaussian 16, Revision C.01,

 ----------------------------------------------------------------------
 #t hf aug-cc-pvdz symm=none int=(grid=ultrafine) guess=(read,tcheck) s
 table=(opt,rrhf)
 ----------------------------------------------------------------------
 -----
 title
 -----
 Symbolic Z-matrix:
 Charge =  0 Multiplicity = 1

 SCF Done:  E(RHF) =  -995.465523226     A.U. after   13 cycles
 Normal termination of Gaussian 16 at Tue Apr  8 23:26:42 2025.
 Gaussian 16:  ES64L-G16RevC.01  3-Jul-2019

 ----------------------------------------------------------------------
 #t hf aug-cc-pvdz iop(5/13=1,5/36=2,99/5=2) pseudo=read geom=check gue
 ss=(read,tcheck) scf=(maxcycle=1)
 ----------------------------------------------------------------------
 -----
 title
 -----
 Structure from the checkpoint file:  "BDE49_nonexpt_1254_mol1.chk"
 Charge =  0 Multiplicity = 1

                         Standard orientation:
 ---------------------------------------------------------------------
 Center     Atomic      Atomic             Coordinates (Angstroms)
 Number     Number       Type             X           Y           Z
 ---------------------------------------------------------------------
      1         17           0       -2.013258   -0.524896   -0.000000
      2         15           0       -0.026009   -1.300670    0.000000
      3          6           0        0.702956   -0.330777    1.408700
      4          6           0        0.702956    1.198713    1.281409
      5          6           0        1.383893    1.699512    0.000000
      6          6           0        0.702956    1.198713   -1.281409
      7          6           0        0.702956   -0.330777   -1.408700
      8          1           0        1.733101   -0.709024    1.477452
      9          1           0        0.195857   -0.656312    2.320931
     10          1           0        1.207584    1.624321   -2.155655
     11          1           0       -0.329209    1.561624   -1.311802
     12          1           0        1.733101   -0.709024   -1.477452
     13          1           0        0.195857   -0.656312   -2.320931
     14          1           0        1.207584    1.624321    2.155655
     15          1           0       -0.329209    1.561624    1.311802
     16          1           0        2.436505    1.385850    0.000000
     17          1           0        1.390041    2.793901    0.000000
 ---------------------------------------------------------------------

 SCF Done:  E(RHF) =  -996.909185831     A.U. after    2 cycles

 The electronic state is 1-A'.
 Alpha  occ. eigenvalues -- -105.20799 -99.87006 -11.43449 -11.42854 -11.39939
 Alpha  occ. eigenvalues --  -11.37588 -11.35585 -10.44265  -9.64180  -9.63602
 Alpha  occ. eigenvalues --   -9.63569  -2.78973  -1.51510  -1.50257  -1.47472
 Alpha  occ. eigenvalues --   -1.25968  -1.20732  -1.10129  -1.00379  -0.86342
 Alpha  occ. eigenvalues --   -0.82248  -0.69091  -0.65074  -0.62021  -0.60083
 Alpha  occ. eigenvalues --   -0.56845  -0.54897  -0.51474  -0.50945  -0.49275
 Alpha  occ. eigenvalues --   -0.45827  -0.44602  -0.44413  -0.38156  -0.19178
 Alpha  occ. eigenvalues --   -0.02387
 Alpha virt. eigenvalues --    0.03972   0.05460   0.05505   0.05826   0.05902
 Alpha virt. eigenvalues --    0.06048   0.06147   0.07295   0.07539   0.08692
 Alpha virt. eigenvalues --    0.10152   0.10832   0.12070   0.12821   0.13164

 Mulliken charges:
               1
     1  Cl  -1.396234
     2  P    6.543591
     3  C   -4.183144
     4  C   -2.932565
     5  C   -3.423892
     6  C   -2.932565
     7  C   -4.183144
     8  H    1.167214
     9  H    1.204716
    10  H    1.194192
    11  H    1.305651
    12  H    1.167214
    13  H    1.204716
    14  H    1.194192
    15  H    1.305651
    16  H    1.414619
    17  H    1.349786
 Sum of Mulliken charges =   0.00000

 Dipole moment (field-independent basis, Debye):
    X=              2.0591    Y=              0.5128    Z=             -0.0000  Tot=              2.1220

 Test job not archived.
 1\1\GINC-SE227\SP\RHF\Aug-CC-pVDZ\C5H10Cl1P1\OHZDE\08-Apr-2025\0\\#t h
 f aug-cc-pvdz iop(5/13=1,5/36=2,99/5=2) pseudo=read geom=check guess=(
 read,tcheck) scf=(maxcycle=1)\\title\\0,1\Cl,0,-2.013258,-0.524896,0.\
 P,0,-0.026009,-1.30067,0.\C,0,0.702956,-0.330777,1.4087\C,0,0.702956,1
 .198713,1.281409\C,0,1.383893,1.699512,0.\C,0,0.702956,1.198713,-1.281
 409\C,0,0.702956,-0.330777,-1.4087\H,0,1.733101,-0.709024,1.477452\H,0
 ,0.195857,-0.656312,2.320931\H,0,1.207584,1.624321,-2.155655\H,0,-0.32
 9209,1.561624,-1.311802\H,0,1.733101,-0.709024,-1.477452\H,0,0.195857,

 Normal termination of Gaussian 16 at Tue Apr  8 23:26:47 2025.
