 Gaussian 16, Revision C.01,

 ----------------------------------------------------------------------
 #t hf aug-cc-pvdz symm=none int=(grid=ultrafine) guess=(read,tcheck) s
 table=(opt,rrhf)
 ----------------------------------------------------------------------
 -----
 title
 -----
 Symbolic Z-matrix:
 Charge =  0 Multiplicity = 1

 SCF Done:  E(RHF) =  -299.229698981     A.U. after   12 cycles
 Normal termination of Gaussian 16 at Wed Apr  9 00:30:41 2025.
 Gaussian 16:  ES64L-G16RevC.01  3-Jul-2019

 ----------------------------------------------------------------------
 #t hf aug-cc-pvdz iop(5/13=1,5/36=2,99/5=2) pseudo=read geom=check gue
 ss=(read,tcheck) scf=(maxcycle=1)
 ----------------------------------------------------------------------
 -----
 title
 -----
 Structure from the checkpoint file:  "BDE49_nonexpt_350_mol1.chk"
 Charge =  0 Multiplicity = 1

                         Standard orientation:
 ---------------------------------------------------------------------
 Center     Atomic      Atomic             Coordinates (Angstroms)
 Number     Number       Type             X           Y           Z
 ---------------------------------------------------------------------
      1          9           0        1.105692   -0.766749   -0.000004
      2          9           0        0.162166    1.309294    0.000000
      3          8           0       -1.195506   -0.603063    0.000004
      4          5           0        0.015467   -0.016592   -0.000001
      5          1           0       -1.923998    0.024564    0.000007
 ---------------------------------------------------------------------

 SCF Done:  E(RHF) =  -300.314440410     A.U. after    2 cycles

 The electronic state is 1-A.
 Alpha  occ. eigenvalues --  -29.26652 -29.25866 -21.09074  -7.72549  -1.80552
 Alpha  occ. eigenvalues --   -1.08385  -0.79559  -0.68907  -0.56736  -0.55690
 Alpha  occ. eigenvalues --   -0.45900  -0.45201  -0.37935  -0.34628  -0.31496
 Alpha  occ. eigenvalues --   -0.26875
 Alpha virt. eigenvalues --   -0.00174   0.03978   0.04546   0.05936   0.07150
 Alpha virt. eigenvalues --    0.13127   0.20269   0.20466   0.21665   0.21942
 Alpha virt. eigenvalues --    0.22198   0.23261   0.23970   0.26622   0.27248

 Mulliken charges:
               1
     1  F   -0.213382
     2  F   -0.584819
     3  O   -2.684312
     4  B    2.258454
     5  H    1.224059
 Sum of Mulliken charges =  -0.00000

 Dipole moment (field-independent basis, Debye):
    X=              1.6253    Y=              1.8908    Z=             -0.0000  Tot=              2.4933

 Test job not archived.
 1\1\GINC-SE250\SP\RHF\Aug-CC-pVDZ\B1F2H1O1\OHZDE\09-Apr-2025\0\\#t hf
 aug-cc-pvdz iop(5/13=1,5/36=2,99/5=2) pseudo=read geom=check guess=(re
 ad,tcheck) scf=(maxcycle=1)\\title\\0,1\F,0,1.105692,-0.766748,-0.0000
 04\F,0,0.162165,1.309294,0.\O,0,-1.195506,-0.603064,0.000004\B,0,0.015
 467,-0.016592,-0.000001\H,0,-1.923998,0.024563,0.000007\\Version=ES64L
 -G16RevC.01\State=1-A\HF=-300.3144404\RMSD=2.947e-01\Dipole=0.639459,0
 .7438904,-0.0000018\Quadrupole=0.8966483,1.2552793,-2.1519276,-2.76147
 26,-0.0000113,0.0000118\PG=C01 [X(B1F2H1O1)]\\@

 Normal termination of Gaussian 16 at Wed Apr  9 00:30:42 2025.
