 Gaussian 16, Revision C.01,

 ----------------------------------------------------------------------
 #t hf aug-cc-pvdz symm=none int=(grid=ultrafine) guess=(read,tcheck) s
 table=(opt,rrhf)
 ----------------------------------------------------------------------
 -----
 title
 -----
 Symbolic Z-matrix:
 Charge =  0 Multiplicity = 1

 SCF Done:  E(RHF) =  -916.790404436     A.U. after   14 cycles
 Normal termination of Gaussian 16 at Wed Apr  9 00:13:20 2025.
 Gaussian 16:  ES64L-G16RevC.01  3-Jul-2019

 ----------------------------------------------------------------------
 #t hf aug-cc-pvdz iop(5/13=1,5/36=2,99/5=2) pseudo=read geom=check gue
 ss=(read,tcheck) scf=(maxcycle=1)
 ----------------------------------------------------------------------
 -----
 title
 -----
 Structure from the checkpoint file:  "BDE49_nonexpt_2411_mol1.chk"
 Charge =  0 Multiplicity = 1

                         Standard orientation:
 ---------------------------------------------------------------------
 Center     Atomic      Atomic             Coordinates (Angstroms)
 Number     Number       Type             X           Y           Z
 ---------------------------------------------------------------------
      1         14           0        0.538380    1.564878   -0.396078
      2         14           0       -1.042106    0.660375    1.101425
      3          6           0       -1.546312   -1.109023    0.654456
      4          1           0       -2.240543    1.530642    1.146268
      5          1           0       -0.454162    0.604765    2.460650
      6          7           0       -2.162955   -1.466098   -0.403062
      7          8           0       -2.432292   -0.358485   -1.228357
      8          1           0       -2.883827   -0.750304   -1.983377
      9          1           0       -1.307969   -1.943640    1.310874
     10          6           0        2.005104    0.393383   -0.530483
     11          1           0        1.038429    2.870620    0.108730
     12          1           0       -0.010894    1.801252   -1.751776
     13          7           0        1.983918   -0.663630    0.184185
     14          1           0        2.865195    0.580283   -1.182413
     15          8           0        3.129113   -1.447509    0.005240
     16          1           0        2.971871   -2.197281    0.589417
 ---------------------------------------------------------------------

 SCF Done:  E(RHF) =  -918.553699345     A.U. after    2 cycles

 The electronic state is 1-A.
 Alpha  occ. eigenvalues --  -76.22245 -76.22204 -21.10501 -21.10304 -15.80020
 Alpha  occ. eigenvalues --  -15.79501 -11.39870 -11.39448  -5.55874  -5.55807
 Alpha  occ. eigenvalues --   -2.19873  -2.19790  -2.18057  -2.17866  -2.17785
 Alpha  occ. eigenvalues --   -2.16748  -1.79396  -1.79140  -1.25639  -1.25092
 Alpha  occ. eigenvalues --   -0.87221  -0.84948  -0.76717  -0.71795  -0.65401
 Alpha  occ. eigenvalues --   -0.64413  -0.57991  -0.56460  -0.53740  -0.53061
 Alpha  occ. eigenvalues --   -0.49290  -0.47895  -0.47127  -0.45958  -0.37269
 Alpha  occ. eigenvalues --   -0.36192  -0.33511  -0.31790  -0.30910
 Alpha virt. eigenvalues --    0.04002   0.04689   0.05308   0.05720   0.06196
 Alpha virt. eigenvalues --    0.06378   0.07351   0.07706   0.08421   0.08634
 Alpha virt. eigenvalues --    0.09427   0.09575   0.09927   0.11159   0.11845

 Mulliken charges:
               1
     1  Si   5.019974
     2  Si   4.670717
     3  C   -1.382911
     4  H   -1.866833
     5  H   -1.711971
     6  N   -0.063395
     7  O   -2.264156
     8  H    1.002414
     9  H    1.496146
    10  C   -1.579298
    11  H   -1.783840
    12  H   -1.777181
    13  N    0.094071
    14  H    1.532861
    15  O   -2.279981
    16  H    0.893382
 Sum of Mulliken charges =  -0.00000

 Dipole moment (field-independent basis, Debye):
    X=              0.6664    Y=             -0.6125    Z=             -0.7447  Tot=              1.1721

 Test job not archived.
 1\1\GINC-SE423\SP\RHF\Aug-CC-pVDZ\C2H8N2O2Si2\OHZDE\09-Apr-2025\0\\#t
 hf aug-cc-pvdz iop(5/13=1,5/36=2,99/5=2) pseudo=read geom=check guess=
 (read,tcheck) scf=(maxcycle=1)\\title\\0,1\Si,0,0.53838,1.564878,-0.39
 6078\Si,0,-1.042106,0.660375,1.101425\C,0,-1.546312,-1.109023,0.654456
 \H,0,-2.240543,1.530642,1.146268\H,0,-0.454162,0.604765,2.46065\N,0,-2
 .162955,-1.466098,-0.403062\O,0,-2.432292,-0.358485,-1.228357\H,0,-2.8
 83827,-0.750304,-1.983377\H,0,-1.307969,-1.94364,1.310874\C,0,2.005104
 ,0.393383,-0.530483\H,0,1.038429,2.87062,0.10873\H,0,-0.010894,1.80125

 Normal termination of Gaussian 16 at Wed Apr  9 00:13:27 2025.
