 Gaussian 16, Revision C.01,

 ----------------------------------------------------------------------
 #t hf aug-cc-pvdz symm=none int=(grid=ultrafine) guess=(read,tcheck) s
 table=opt
 ----------------------------------------------------------------------
 -----
 title
 -----
 Symbolic Z-matrix:
 Charge =  0 Multiplicity = 2

 SCF Done:  E(UHF) =  -554.246407411     A.U. after   15 cycles
 Normal termination of Gaussian 16 at Tue Apr  8 22:55:58 2025.
 Gaussian 16:  ES64L-G16RevC.01  3-Jul-2019

 ----------------------------------------------------------------------
 #t hf aug-cc-pvdz iop(5/13=1,5/36=2,99/5=2) pseudo=read geom=check gue
 ss=(read,tcheck) scf=(maxcycle=1)
 ----------------------------------------------------------------------
 -----
 title
 -----
 Structure from the checkpoint file:  "BDE49_expt_1820_mol2.chk"
 Charge =  0 Multiplicity = 2

                         Standard orientation:
 ---------------------------------------------------------------------
 Center     Atomic      Atomic             Coordinates (Angstroms)
 Number     Number       Type             X           Y           Z
 ---------------------------------------------------------------------
      1         16           0       -1.532473   -0.000001   -0.074658
      2          6           0        0.311142   -0.000000   -0.006787
      3          6           0        0.860092   -1.265385   -0.683702
      4          1           0        0.478364   -2.166266   -0.200100
      5          1           0        1.954371   -1.275039   -0.625798
      6          1           0        0.579639   -1.302121   -1.739148
      7          6           0        0.666020    0.000000    1.495280
      8          1           0        0.277058   -0.887344    1.999509
      9          1           0        0.277057    0.887343    1.999509
     10          1           0        1.756665    0.000001    1.599064
     11          6           0        0.860088    1.265386   -0.683702
     12          1           0        0.579635    1.302123   -1.739147
     13          1           0        1.954367    1.275043   -0.625797
     14          1           0        0.478360    2.166267   -0.200099
 ---------------------------------------------------------------------

 SCF Done:  E(UHF) =  -555.266030283     A.U. after    2 cycles

 The electronic state is 2-A.
 Alpha  occ. eigenvalues --  -75.69441 -13.12261 -13.07346 -13.04974 -11.43183
 Alpha  occ. eigenvalues --  -11.39671 -11.39279 -11.35988  -8.03033  -1.30457
 Alpha  occ. eigenvalues --   -1.05239  -1.01716  -1.01356  -0.77518  -0.62218
 Alpha  occ. eigenvalues --   -0.61417  -0.61246  -0.55423  -0.54861  -0.52114
 Alpha  occ. eigenvalues --   -0.45870  -0.45580  -0.36465  -0.28875  -0.24129
 Alpha virt. eigenvalues --    0.03196   0.05565   0.05729   0.05903   0.06272
 Alpha virt. eigenvalues --    0.06330   0.07002   0.07046   0.07794   0.09161
 Alpha virt. eigenvalues --    0.11250   0.13734   0.13791   0.15540   0.16099

  Beta  occ. eigenvalues --  -75.68457 -13.11611 -13.04390 -13.01438 -11.43286
  Beta  occ. eigenvalues --  -11.39586 -11.39251 -11.35962  -8.01934  -1.29298
  Beta  occ. eigenvalues --   -1.01469  -1.01309  -0.97757  -0.76309  -0.61648
  Beta  occ. eigenvalues --   -0.61364  -0.60839  -0.54908  -0.54796  -0.52087
  Beta  occ. eigenvalues --   -0.45520  -0.45282  -0.35768  -0.22568
  Beta virt. eigenvalues --    0.03261   0.03609   0.05745   0.05925   0.06262
  Beta virt. eigenvalues --    0.06339   0.06687   0.07056   0.07597   0.08005
  Beta virt. eigenvalues --    0.09162   0.11416   0.13889   0.13930   0.15609

 Mulliken charges and spin densities:
               1          2
     1  S    0.184752   1.159474
     2  C   -0.122155  -0.173210
     3  C   -3.829326   0.026539
     4  H    1.293629  -0.021669
     5  H    1.238200   0.001151
     6  H    1.244390   0.003551
     7  C   -3.740005   0.008043
     8  H    1.265927  -0.007440
     9  H    1.265928  -0.007440
    10  H    1.251764   0.001428
    11  C   -3.829324   0.026540
    12  H    1.244390   0.003551
    13  H    1.238200   0.001151
    14  H    1.293629  -0.021669
 Sum of Mulliken charges =   0.00000   1.00000

 Dipole moment (field-independent basis, Debye):
    X=              0.3330    Y=              0.0000    Z=              0.1543  Tot=              0.3670
                          Isotropic Fermi Contact Couplings
        Atom                 a.u.       MegaHertz       Gauss      10(-4) cm-1
     1  S(33)              0.24262      83.33354      29.73548      27.79708
     2  C(13)             -0.01589     -17.86196      -6.37359      -5.95811
     3  C(13)              0.00655       7.36858       2.62929       2.45789
     4  H(1)              -0.00020      -0.90421      -0.32264      -0.30161
     5  H(1)               0.00010       0.42571       0.15190       0.14200
     6  H(1)              -0.00017      -0.76815      -0.27409      -0.25623
     7  C(13)              0.03341      37.56230      13.40316      12.52943
     8  H(1)               0.00014       0.62786       0.22404       0.20943

 Normal termination of Gaussian 16 at Tue Apr  8 22:56:02 2025.
