 Gaussian 16, Revision C.01,

 ----------------------------------------------------------------------
 #t hf aug-cc-pvdz symm=none int=(grid=ultrafine) guess=(read,tcheck) s
 table=(opt,rrhf)
 ----------------------------------------------------------------------
 -----
 title
 -----
 Symbolic Z-matrix:
 Charge =  0 Multiplicity = 1

 SCF Done:  E(RHF) =  -572.191411647     A.U. after   15 cycles
 Normal termination of Gaussian 16 at Wed Apr  9 00:53:59 2025.
 Gaussian 16:  ES64L-G16RevC.01  3-Jul-2019

 ----------------------------------------------------------------------
 #t hf aug-cc-pvdz iop(5/13=1,5/36=2,99/5=2) pseudo=read geom=check gue
 ss=(read,tcheck) scf=(maxcycle=1)
 ----------------------------------------------------------------------
 -----
 title
 -----
 Structure from the checkpoint file:  "BDE49_nonexpt_974_mol1.chk"
 Charge =  0 Multiplicity = 1

                         Standard orientation:
 ---------------------------------------------------------------------
 Center     Atomic      Atomic             Coordinates (Angstroms)
 Number     Number       Type             X           Y           Z
 ---------------------------------------------------------------------
      1          9           0        1.610243    1.588677    0.022847
      2          9           0       -2.392278   -0.715085    0.180568
      3          8           0       -1.228806    1.822477    0.003046
      4          8           0        2.271022   -1.191866   -0.006716
      5          7           0       -1.133811   -0.500314   -0.386506
      6          7           0        0.736683    0.555183    0.098274
      7          6           0       -0.643674    0.790697   -0.071561
      8          6           0       -0.174252   -1.529376    0.021524
      9          1           0       -0.147753   -2.363695   -0.677406
     10          1           0       -0.393870   -1.887854    1.032144
     11          6           0        1.154945   -0.767946    0.026955
 ---------------------------------------------------------------------

 SCF Done:  E(RHF) =  -574.451187581     A.U. after    2 cycles

 The electronic state is 1-A.
 Alpha  occ. eigenvalues --  -29.35613 -29.32830 -21.10541 -21.10292 -15.88090
 Alpha  occ. eigenvalues --  -15.86454 -11.58561 -11.58336 -11.49099  -1.80465
 Alpha  occ. eigenvalues --   -1.77438  -1.60111  -1.45811  -1.14108  -1.00512
 Alpha  occ. eigenvalues --   -0.94044  -0.78848  -0.75439  -0.72552  -0.67136
 Alpha  occ. eigenvalues --   -0.65080  -0.59679  -0.59169  -0.55802  -0.46548
 Alpha  occ. eigenvalues --   -0.45820  -0.44313  -0.42040  -0.38240  -0.36359
 Alpha  occ. eigenvalues --   -0.32327  -0.29670  -0.27263  -0.24951
 Alpha virt. eigenvalues --    0.03324   0.05110   0.07914   0.09527   0.09954
 Alpha virt. eigenvalues --    0.10562   0.10848   0.11657   0.12471   0.13156
 Alpha virt. eigenvalues --    0.13180   0.14533   0.15489   0.16446   0.16928

 Mulliken charges:
               1
     1  F   -0.106612
     2  F   -0.204880
     3  O   -3.000798
     4  O   -3.174540
     5  N   -1.090942
     6  N   -0.931244
     7  C    4.467305
     8  C   -2.754859
     9  H    1.357493
    10  H    1.512161
    11  C    3.926916
 Sum of Mulliken charges =  -0.00000

 Dipole moment (field-independent basis, Debye):
    X=             -0.6190    Y=             -0.2720    Z=              0.6139  Tot=              0.9133

 Test job not archived.
 1\1\GINC-SE220\SP\RHF\Aug-CC-pVDZ\C3H2F2N2O2\OHZDE\09-Apr-2025\0\\#t h
 f aug-cc-pvdz iop(5/13=1,5/36=2,99/5=2) pseudo=read geom=check guess=(
 read,tcheck) scf=(maxcycle=1)\\title\\0,1\F,0,1.610243,1.588677,0.0228
 47\F,0,-2.392278,-0.715085,0.180568\O,0,-1.228806,1.822477,0.003046\O,
 0,2.271022,-1.191867,-0.006716\N,0,-1.133811,-0.500314,-0.386506\N,0,0
 .736683,0.555183,0.098274\C,0,-0.643674,0.790697,-0.071561\C,0,-0.1742
 52,-1.529376,0.021524\H,0,-0.147753,-2.363695,-0.677406\H,0,-0.39387,-
 1.887854,1.032144\C,0,1.154945,-0.767946,0.026955\\Version=ES64L-G16Re

 Normal termination of Gaussian 16 at Wed Apr  9 00:54:06 2025.
