 Gaussian 16, Revision C.01,

 ----------------------------------------------------------------------
 #t hf aug-cc-pvdz symm=none int=(grid=ultrafine) guess=(read,tcheck) s
 table=(opt,rrhf)
 ----------------------------------------------------------------------
 -----
 title
 -----
 Symbolic Z-matrix:
 Charge =  0 Multiplicity = 1

 SCF Done:  E(RHF) =  -789.279862248     A.U. after   11 cycles
 Normal termination of Gaussian 16 at Tue Apr  8 23:47:15 2025.
 Gaussian 16:  ES64L-G16RevC.01  3-Jul-2019

 ----------------------------------------------------------------------
 #t hf aug-cc-pvdz iop(5/13=1,5/36=2,99/5=2) pseudo=read geom=check gue
 ss=(read,tcheck) scf=(maxcycle=1)
 ----------------------------------------------------------------------
 -----
 title
 -----
 Structure from the checkpoint file:  "BDE49_nonexpt_1788_mol1.chk"
 Charge =  0 Multiplicity = 1

                         Standard orientation:
 ---------------------------------------------------------------------
 Center     Atomic      Atomic             Coordinates (Angstroms)
 Number     Number       Type             X           Y           Z
 ---------------------------------------------------------------------
      1          6           0        1.785056   -0.680332    0.000001
      2         14           0        0.454152    0.626092    0.000002
      3          1           0        1.710578   -1.315302    0.886092
      4          1           0        2.771343   -0.205010    0.000006
      5          1           0        1.710584   -1.315296   -0.886094
      6         17           0       -1.429252   -0.281859   -0.000002
      7          1           0        0.518156    1.471961   -1.208860
      8          1           0        0.518153    1.471957    1.208866
 ---------------------------------------------------------------------

 SCF Done:  E(RHF) =  -789.901886668     A.U. after    2 cycles

 The electronic state is 1-A.
 Alpha  occ. eigenvalues --  -99.87656 -76.25582 -11.36428 -10.45058  -9.64949
 Alpha  occ. eigenvalues --   -9.64336  -9.64255  -5.59149  -2.22358  -2.21145
 Alpha  occ. eigenvalues --   -2.20860  -1.28133  -1.05472  -0.75824  -0.58624
 Alpha  occ. eigenvalues --   -0.58234  -0.53757  -0.53382  -0.53050  -0.46508
 Alpha  occ. eigenvalues --   -0.43013
 Alpha virt. eigenvalues --    0.03103   0.05137   0.05564   0.05863   0.07163
 Alpha virt. eigenvalues --    0.08204   0.08418   0.10553   0.11638   0.13424
 Alpha virt. eigenvalues --    0.14661   0.15410   0.15612   0.16699   0.17291

 Mulliken charges:
               1
     1  C   -4.693960
     2  Si   5.450371
     3  H    1.218986
     4  H    1.313655
     5  H    1.218986
     6  Cl  -0.852264
     7  H   -1.827886
     8  H   -1.827887
 Sum of Mulliken charges =  -0.00000

 Dipole moment (field-independent basis, Debye):
    X=              2.1725    Y=             -0.0113    Z=              0.0000  Tot=              2.1725

 Test job not archived.
 1\1\GINC-SE069\SP\RHF\Aug-CC-pVDZ\C1H5Cl1Si1\OHZDE\08-Apr-2025\0\\#t h
 f aug-cc-pvdz iop(5/13=1,5/36=2,99/5=2) pseudo=read geom=check guess=(
 read,tcheck) scf=(maxcycle=1)\\title\\0,1\C,0,1.785056,-0.680332,0.000
 001\Si,0,0.454152,0.626092,0.000002\H,0,1.710578,-1.315302,0.886092\H,
 0,2.771343,-0.20501,0.000006\H,0,1.710584,-1.315296,-0.886094\Cl,0,-1.
 429252,-0.281859,-0.000002\H,0,0.518156,1.471961,-1.20886\H,0,0.518153
 ,1.471957,1.208866\\Version=ES64L-G16RevC.01\State=1-A\HF=-789.9018867
 \RMSD=7.989e-02\Dipole=0.8547144,-0.0044311,0.000002\Quadrupole=0.7533

 Normal termination of Gaussian 16 at Tue Apr  8 23:47:16 2025.
