 Gaussian 16, Revision C.01,

 ----------------------------------------------------------------------
 #t hf aug-cc-pvdz symm=none int=(grid=ultrafine) guess=(read,tcheck) s
 table=(opt,rrhf)
 ----------------------------------------------------------------------
 -----
 title
 -----
 Symbolic Z-matrix:
 Charge =  0 Multiplicity = 1

 SCF Done:  E(RHF) =  -770.047141144     A.U. after   13 cycles
 Normal termination of Gaussian 16 at Wed Apr  9 00:11:10 2025.
 Gaussian 16:  ES64L-G16RevC.01  3-Jul-2019

 ----------------------------------------------------------------------
 #t hf aug-cc-pvdz iop(5/13=1,5/36=2,99/5=2) pseudo=read geom=check gue
 ss=(read,tcheck) scf=(maxcycle=1)
 ----------------------------------------------------------------------
 -----
 title
 -----
 Structure from the checkpoint file:  "BDE49_nonexpt_2365_mol1.chk"
 Charge =  0 Multiplicity = 1

                         Standard orientation:
 ---------------------------------------------------------------------
 Center     Atomic      Atomic             Coordinates (Angstroms)
 Number     Number       Type             X           Y           Z
 ---------------------------------------------------------------------
      1         14           0        0.418179    0.776449    0.121232
      2         14           0        2.443186   -0.426133    0.013870
      3          8           0       -0.728807   -0.364266   -0.354173
      4          1           0        0.419162    1.939007   -0.796929
      5          1           0        0.133949    1.262017    1.493433
      6          1           0        3.545850    0.474249    0.433474
      7          1           0        2.708298   -0.892583   -1.366835
      8          1           0        2.410817   -1.593212    0.926264
      9          8           0       -2.038458    0.312525   -0.363144
     10          6           0       -2.933381   -0.563948    0.298268
     11          1           0       -3.901341   -0.060742    0.233790
     12          1           0       -2.656373   -0.706108    1.347813
     13          1           0       -2.981062   -1.529424   -0.213514
 ---------------------------------------------------------------------

 SCF Done:  E(RHF) =  -771.184472310     A.U. after    2 cycles

 The electronic state is 1-A.
 Alpha  occ. eigenvalues --  -76.24027 -76.21797 -21.10304 -21.08260 -11.41016
 Alpha  occ. eigenvalues --   -5.57637  -5.55229  -2.23688  -2.19110  -2.18640
 Alpha  occ. eigenvalues --   -2.17298  -2.17292  -2.16345  -1.91572  -1.43921
 Alpha  occ. eigenvalues --   -0.96824  -0.80264  -0.71417  -0.63010  -0.62042
 Alpha  occ. eigenvalues --   -0.56123  -0.50806  -0.47865  -0.47184  -0.46011
 Alpha  occ. eigenvalues --   -0.43950  -0.35799  -0.34736  -0.28639
 Alpha virt. eigenvalues --    0.03902   0.04637   0.05403   0.06048   0.06279
 Alpha virt. eigenvalues --    0.06825   0.07494   0.08214   0.08963   0.09198
 Alpha virt. eigenvalues --    0.09560   0.09801   0.10100   0.10935   0.12000

 Mulliken charges:
               1
     1  Si   4.887550
     2  Si   4.299117
     3  O   -1.115474
     4  H   -1.752317
     5  H   -1.760845
     6  H   -1.506965
     7  H   -1.489591
     8  H   -1.490707
     9  O   -1.525562
    10  C   -2.487034
    11  H    1.252480
    12  H    1.352854
    13  H    1.336493
 Sum of Mulliken charges =  -0.00000

 Dipole moment (field-independent basis, Debye):
    X=             -0.9810    Y=             -0.4489    Z=              0.2792  Tot=              1.1144

 Test job not archived.
 1\1\GINC-SE105\SP\RHF\Aug-CC-pVDZ\C1H8O2Si2\OHZDE\09-Apr-2025\0\\#t hf
  aug-cc-pvdz iop(5/13=1,5/36=2,99/5=2) pseudo=read geom=check guess=(r
 ead,tcheck) scf=(maxcycle=1)\\title\\0,1\Si,0,0.418179,0.776449,0.1212
 32\Si,0,2.443186,-0.426133,0.01387\O,0,-0.728807,-0.364266,-0.354173\H
 ,0,0.419162,1.939007,-0.796929\H,0,0.133949,1.262017,1.493433\H,0,3.54
 585,0.474249,0.433474\H,0,2.708298,-0.892583,-1.366835\H,0,2.410817,-1
 .593212,0.926264\O,0,-2.038458,0.312525,-0.363144\C,0,-2.933381,-0.563
 948,0.298268\H,0,-3.901341,-0.060742,0.23379\H,0,-2.656373,-0.706108,1

 Normal termination of Gaussian 16 at Wed Apr  9 00:11:14 2025.
