 Gaussian 16, Revision C.01,

 ----------------------------------------------------------------------
 #t hf aug-cc-pvdz symm=none int=(grid=ultrafine) guess=(read,tcheck) s
 table=(opt,rrhf)
 ----------------------------------------------------------------------
 -----
 title
 -----
 Symbolic Z-matrix:
 Charge =  0 Multiplicity = 1

 SCF Done:  E(RHF) =  -838.897627522     A.U. after   14 cycles
 Normal termination of Gaussian 16 at Tue Apr  8 22:43:58 2025.
 Gaussian 16:  ES64L-G16RevC.01  3-Jul-2019

 ----------------------------------------------------------------------
 #t hf aug-cc-pvdz iop(5/13=1,5/36=2,99/5=2) pseudo=read geom=check gue
 ss=(read,tcheck) scf=(maxcycle=1)
 ----------------------------------------------------------------------
 -----
 title
 -----
 Structure from the checkpoint file:  "BDE49_expt_1397_mol1.chk"
 Charge =  0 Multiplicity = 1

                         Standard orientation:
 ---------------------------------------------------------------------
 Center     Atomic      Atomic             Coordinates (Angstroms)
 Number     Number       Type             X           Y           Z
 ---------------------------------------------------------------------
      1          6           0       -1.684162    0.180435    0.064885
      2          6           0       -1.152923   -1.102390    0.004863
      3          6           0        0.219655   -1.280324   -0.123548
      4          6           0       -0.839802    1.282035   -0.012496
      5          6           0        0.528630    1.093903   -0.157002
      6          6           0        1.085030   -0.186932   -0.215814
      7          9           0       -3.001636    0.354967    0.197008
      8          9           0       -1.963670   -2.161698    0.085766
      9          9           0        0.713364   -2.521403   -0.163326
     10          9           0       -1.348041    2.517032    0.040785
     11          9           0        1.327571    2.167893   -0.247543
     12          8           0        2.410573   -0.398085   -0.417679
     13          6           0        3.281073   -0.021776    0.665284
     14          1           0        4.283538   -0.300296    0.346322
     15          1           0        3.019672   -0.569721    1.575198
     16          1           0        3.238901    1.053870    0.848663
 ---------------------------------------------------------------------

 SCF Done:  E(RHF) =  -842.101494044     A.U. after    2 cycles

 The electronic state is 1-A.
 Alpha  occ. eigenvalues --  -29.32650 -29.32570 -29.32482 -29.32453 -29.32049
 Alpha  occ. eigenvalues --  -21.10001 -11.61654 -11.54423 -11.53987 -11.51817
 Alpha  occ. eigenvalues --  -11.51427 -11.46543 -11.43945  -1.81619  -1.46277
 Alpha  occ. eigenvalues --   -1.28760  -1.24306  -1.09254  -1.06593  -0.99469
 Alpha  occ. eigenvalues --   -0.91579  -0.83951  -0.77614  -0.76430  -0.71207
 Alpha  occ. eigenvalues --   -0.68428  -0.65491  -0.64124  -0.62249  -0.59168
 Alpha  occ. eigenvalues --   -0.56245  -0.52964  -0.45368  -0.44314  -0.43602
 Alpha  occ. eigenvalues --   -0.43398  -0.42432  -0.41789  -0.39886  -0.38217
 Alpha  occ. eigenvalues --   -0.35690  -0.31793  -0.31449  -0.31035  -0.30219
 Alpha  occ. eigenvalues --   -0.29643  -0.27876  -0.22018  -0.19222
 Alpha virt. eigenvalues --    0.03748   0.05703   0.06094   0.08018   0.10107
 Alpha virt. eigenvalues --    0.10559   0.11025   0.11498   0.11852   0.11956
 Alpha virt. eigenvalues --    0.12128   0.12547   0.13302   0.13779   0.14218

 Mulliken charges:
               1
     1  C    0.558615
     2  C   -1.876242
     3  C    1.602180
     4  C   -1.475689
     5  C    1.734853
     6  C   -2.107046
     7  F    1.096954
     8  F    1.159661
     9  F    1.005362
    10  F    1.147008
    11  F    0.963622
    12  O   -4.214782
    13  C   -3.470621
    14  H    1.236540
    15  H    1.298005
    16  H    1.341580
 Sum of Mulliken charges =   0.00000

 Dipole moment (field-independent basis, Debye):
    X=             -1.5567    Y=              0.5070    Z=              0.7613  Tot=              1.8055

 Test job not archived.
 1\1\GINC-SE402\SP\RHF\Aug-CC-pVDZ\C7H3F5O1\OHZDE\08-Apr-2025\0\\#t hf
 aug-cc-pvdz iop(5/13=1,5/36=2,99/5=2) pseudo=read geom=check guess=(re
 ad,tcheck) scf=(maxcycle=1)\\title\\0,1\C,0,-1.684162,0.180435,0.06488
 5\C,0,-1.152923,-1.10239,0.004863\C,0,0.219655,-1.280324,-0.123548\C,0
 ,-0.839802,1.282035,-0.012496\C,0,0.52863,1.093903,-0.157002\C,0,1.085
 03,-0.186932,-0.215814\F,0,-3.001636,0.354967,0.197008\F,0,-1.96367,-2
 .161698,0.085766\F,0,0.713364,-2.521403,-0.163326\F,0,-1.348041,2.5170
 32,0.040785\F,0,1.327571,2.167893,-0.247543\O,0,2.410573,-0.398085,-0.

 Normal termination of Gaussian 16 at Tue Apr  8 22:44:08 2025.
