 Gaussian 16, Revision C.01,

 ----------------------------------------------------------------------
 #t hf aug-cc-pvdz symm=none int=(grid=ultrafine) guess=(read,tcheck) s
 table=opt
 ----------------------------------------------------------------------
 -----
 title
 -----
 Symbolic Z-matrix:
 Charge =  0 Multiplicity = 2

 SCF Done:  E(UHF) =  -154.379039991     A.U. after   16 cycles
 Normal termination of Gaussian 16 at Tue Apr  8 22:54:33 2025.
 Gaussian 16:  ES64L-G16RevC.01  3-Jul-2019

 ----------------------------------------------------------------------
 #t hf aug-cc-pvdz iop(5/13=1,5/36=2,99/5=2) pseudo=read geom=check gue
 ss=(read,tcheck) scf=(maxcycle=1)
 ----------------------------------------------------------------------
 -----
 title
 -----
 Structure from the checkpoint file:  "BDE49_expt_1813_mol2.chk"
 Charge =  0 Multiplicity = 2

                         Standard orientation:
 ---------------------------------------------------------------------
 Center     Atomic      Atomic             Coordinates (Angstroms)
 Number     Number       Type             X           Y           Z
 ---------------------------------------------------------------------
      1          7           0        0.059993    0.716103    0.000000
      2          1           0       -0.959889    0.898256    0.000000
      3          9           0        0.059993   -0.656775    0.000000
 ---------------------------------------------------------------------

 SCF Done:  E(UHF) =  -154.924396666     A.U. after    2 cycles

 The electronic state is 2-A".
 Alpha  occ. eigenvalues --  -29.30010 -15.86210  -1.39338  -0.72810  -0.59944
 Alpha  occ. eigenvalues --   -0.59170  -0.39993  -0.25232  -0.23470
 Alpha virt. eigenvalues --    0.04366   0.14694   0.14807   0.15303   0.19779
 Alpha virt. eigenvalues --    0.25249   0.28517   0.30812   0.31035   0.34374
 Alpha virt. eigenvalues --    0.40866   0.47356   0.56692   0.59709   0.62731

  Beta  occ. eigenvalues --  -29.29656 -15.82818  -1.28562  -0.70579  -0.55782
  Beta  occ. eigenvalues --   -0.39315  -0.37080  -0.24648
  Beta virt. eigenvalues --    0.04494   0.10625   0.14893   0.15595   0.20391
  Beta virt. eigenvalues --    0.20963   0.25523   0.29085   0.31308   0.32712
  Beta virt. eigenvalues --    0.37354   0.40983   0.48241   0.56808   0.60873

 Mulliken charges and spin densities:
               1          2
     1  N   -1.024791   0.930829
     2  H    0.794513  -0.072771
     3  F    0.230279   0.141942
 Sum of Mulliken charges =   0.00000   1.00000

 Dipole moment (field-independent basis, Debye):
    X=             -1.1446    Y=             -1.6381    Z=              0.0000  Tot=              1.9984
                          Isotropic Fermi Contact Couplings
        Atom                 a.u.       MegaHertz       Gauss      10(-4) cm-1
     1  N(14)              0.19916      64.35098      22.96203      21.46518
     2  H(1)              -0.01877     -83.88274     -29.93145     -27.98027
     3  F(19)              0.03020     127.07982      45.34524      42.38927
 --------------------------------------------------------
       Center         ----  Spin Dipole Couplings  ----
                      3XX-RR        3YY-RR        3ZZ-RR
 --------------------------------------------------------
     1   Atom       -0.852245     -0.889477      1.741722

 Normal termination of Gaussian 16 at Tue Apr  8 22:54:34 2025.
