 Gaussian 16, Revision C.01,

 ----------------------------------------------------------------------
 #t hf aug-cc-pvdz symm=none int=(grid=ultrafine) guess=(read,tcheck) s
 table=(opt,rrhf)
 ----------------------------------------------------------------------
 -----
 title
 -----
 Symbolic Z-matrix:
 Charge =  0 Multiplicity = 1

 SCF Done:  E(RHF) =  -473.274114039     A.U. after   16 cycles
 Normal termination of Gaussian 16 at Tue Apr  8 22:40:56 2025.
 Gaussian 16:  ES64L-G16RevC.01  3-Jul-2019

 ----------------------------------------------------------------------
 #t hf aug-cc-pvdz iop(5/13=1,5/36=2,99/5=2) pseudo=read geom=check gue
 ss=(read,tcheck) scf=(maxcycle=1)
 ----------------------------------------------------------------------
 -----
 title
 -----
 Structure from the checkpoint file:  "BDE49_expt_1258_mol1.chk"
 Charge =  0 Multiplicity = 1

                         Standard orientation:
 ---------------------------------------------------------------------
 Center     Atomic      Atomic             Coordinates (Angstroms)
 Number     Number       Type             X           Y           Z
 ---------------------------------------------------------------------
      1          6           0        2.188565   -1.206403   -0.195975
      2          6           0        0.882399   -1.206983    0.284905
      3          6           0        2.843536    0.000002   -0.435757
      4          6           0        2.188561    1.206404   -0.195964
      5          6           0        0.882395    1.206975    0.284917
      6          6           0        0.223051   -0.000006    0.533612
      7          1           0        0.369727   -2.145400    0.464489
      8          7           0       -2.163370    0.000003   -0.148962
      9          8           0       -2.502918    1.087236   -0.585408
     10          8           0       -2.502955   -1.087218   -0.585407
     11          1           0        2.694363   -2.146652   -0.382822
     12          1           0        2.694357    2.146656   -0.382801
     13          1           0        3.861672    0.000006   -0.807902
     14          1           0        0.369721    2.145390    0.464509
     15          6           0       -1.197145   -0.000011    1.032735
     16          1           0       -1.433715    0.896518    1.601482
     17          1           0       -1.433716   -0.896553    1.601461
 ---------------------------------------------------------------------

 SCF Done:  E(RHF) =  -475.418366652     A.U. after    2 cycles

 The electronic state is 1-A.
 Alpha  occ. eigenvalues --  -21.09499 -21.09354 -15.98925 -11.53696 -11.48445
 Alpha  occ. eigenvalues --  -11.45186 -11.44941 -11.42692 -11.42115 -11.37955
 Alpha  occ. eigenvalues --   -1.99130  -1.68992  -1.37415  -1.21325  -1.10901
 Alpha  occ. eigenvalues --   -1.07858  -0.89883  -0.88322  -0.83555  -0.73163
 Alpha  occ. eigenvalues --   -0.69789  -0.68560  -0.67921  -0.63966  -0.59788
 Alpha  occ. eigenvalues --   -0.58829  -0.56211  -0.54395  -0.51723  -0.46281
 Alpha  occ. eigenvalues --   -0.46038  -0.37113  -0.34757  -0.32556  -0.31250
 Alpha  occ. eigenvalues --   -0.30921
 Alpha virt. eigenvalues --    0.03073   0.04541   0.04765   0.05285   0.06066
 Alpha virt. eigenvalues --    0.07040   0.07515   0.08877   0.10046   0.10653
 Alpha virt. eigenvalues --    0.11417   0.12209   0.12980   0.13393   0.13982

 Mulliken charges:
               1
     1  C   -1.170205
     2  C   -2.072567
     3  C   -2.772759
     4  C   -1.170285
     5  C   -2.072543
     6  C    3.247183
     7  H    1.783412
     8  N    5.429483
     9  O   -2.953203
    10  O   -2.953203
    11  H    1.484198
    12  H    1.484199
    13  H    1.548497
    14  H    1.783417
    15  C   -4.417364
    16  H    1.410866
    17  H    1.410875
 Sum of Mulliken charges =   0.00000

 Dipole moment (field-independent basis, Debye):
    X=              2.2812    Y=             -0.0000    Z=              1.3727  Tot=              2.6623

 Test job not archived.
 1\1\GINC-SE159\SP\RHF\Aug-CC-pVDZ\C7H7N1O2\OHZDE\08-Apr-2025\0\\#t hf
 aug-cc-pvdz iop(5/13=1,5/36=2,99/5=2) pseudo=read geom=check guess=(re
 ad,tcheck) scf=(maxcycle=1)\\title\\0,1\C,0,2.188565,-1.206403,-0.1959
 75\C,0,0.882399,-1.206983,0.284905\C,0,2.843536,0.000002,-0.435757\C,0
 ,2.188561,1.206404,-0.195964\C,0,0.882395,1.206975,0.284917\C,0,0.2230
 51,-0.000006,0.533612\H,0,0.369727,-2.1454,0.464489\N,0,-2.16337,0.000
 003,-0.148962\O,0,-2.502918,1.087236,-0.585408\O,0,-2.502955,-1.087218
 ,-0.585407\H,0,2.694363,-2.146652,-0.382822\H,0,2.694357,2.146656,-0.3

 Normal termination of Gaussian 16 at Tue Apr  8 22:41:08 2025.
