 Gaussian 16, Revision C.01,

 ----------------------------------------------------------------------
 #t hf aug-cc-pvdz symm=none int=(grid=ultrafine) guess=(read,tcheck) s
 table=opt
 ----------------------------------------------------------------------
 -----
 title
 -----
 Symbolic Z-matrix:
 Charge =  0 Multiplicity = 2

 SCF Done:  E(UHF) =  -655.646539235     A.U. after   15 cycles

 1\1\GINC-SE105\Stability\UHF\Aug-CC-pVDZ\H5O1Si2\OHZDE\09-Apr-2025\0\\
 #t hf aug-cc-pvdz symm=none int=(grid=ultrafine) guess=(read,tcheck) s
 table=opt\\title\\0,2\Si,0,0.659733,-0.527325,0.010869\O,0,1.74291,0.7
 28209,-0.079426\H,0,1.674243,1.443483,0.557282\Si,0,-1.606605,0.086001
 ,-0.014296\H,0,-2.059851,0.894528,-1.174894\H,0,-2.117276,0.700712,1.2
 39077\H,0,0.866435,-1.333993,1.240802\H,0,0.94939,-1.351876,-1.178883\
 \Version=ES64L-G16RevC.01\HF=-655.6465392\S2=0.759969\S2-1=0.\S2A=0.75
 0038\RMSD=4.625e-09\Dipole=-0.1822983,0.2213239,0.4046077\Quadrupole=-

 Normal termination of Gaussian 16 at Wed Apr  9 00:08:30 2025.
 Gaussian 16:  ES64L-G16RevC.01  3-Jul-2019

 ----------------------------------------------------------------------
 #t hf aug-cc-pvdz iop(5/13=1,5/36=2,99/5=2) pseudo=read geom=check gue
 ss=(read,tcheck) scf=(maxcycle=1)
 ----------------------------------------------------------------------
 -----
 title
 -----
 Structure from the checkpoint file:  "BDE49_nonexpt_2274_mol2.chk"
 Charge =  0 Multiplicity = 2

                         Standard orientation:
 ---------------------------------------------------------------------
 Center     Atomic      Atomic             Coordinates (Angstroms)
 Number     Number       Type             X           Y           Z
 ---------------------------------------------------------------------
      1         14           0        0.659733   -0.527325    0.010869
      2          8           0        1.742910    0.728209   -0.079426
      3          1           0        1.674243    1.443483    0.557282
      4         14           0       -1.606605    0.086001   -0.014296
      5          1           0       -2.059851    0.894528   -1.174894
      6          1           0       -2.117276    0.700712    1.239077
      7          1           0        0.866435   -1.333993    1.240802
      8          1           0        0.949390   -1.351876   -1.178883
 ---------------------------------------------------------------------

 SCF Done:  E(UHF) =  -656.257798793     A.U. after    2 cycles

 The electronic state is 2-A.
 Alpha  occ. eigenvalues --  -76.24400 -76.22725 -21.08111  -5.57982  -5.56139
 Alpha  occ. eigenvalues --   -2.24021  -2.19578  -2.18535  -2.18045  -2.17439
 Alpha  occ. eigenvalues --   -2.16413  -1.66197  -0.80454  -0.71345  -0.58058
 Alpha  occ. eigenvalues --   -0.49530  -0.46958  -0.45112  -0.39708  -0.35673
 Alpha  occ. eigenvalues --   -0.25377
 Alpha virt. eigenvalues --    0.03771   0.04788   0.06176   0.06760   0.07575
 Alpha virt. eigenvalues --    0.08011   0.08310   0.08617   0.09482   0.09797
 Alpha virt. eigenvalues --    0.10172   0.12416   0.13874   0.15197   0.15992

  Beta  occ. eigenvalues --  -76.24399 -76.22193 -21.07977  -5.57976  -5.55328
  Beta  occ. eigenvalues --   -2.24090  -2.19542  -2.18451  -2.17376  -2.16741
  Beta  occ. eigenvalues --   -2.12878  -1.65912  -0.78070  -0.68777  -0.57964
  Beta  occ. eigenvalues --   -0.49477  -0.46899  -0.44250  -0.39513  -0.33566
  Beta virt. eigenvalues --    0.02570   0.04005   0.04992   0.06834   0.07347
  Beta virt. eigenvalues --    0.07685   0.08313   0.08474   0.09594   0.09957
  Beta virt. eigenvalues --    0.10290   0.10579   0.14031   0.14346   0.16218

 Mulliken charges and spin densities:
               1          2
     1  Si   4.615887  -0.059363
     2  O   -2.532809  -0.053891
     3  H    1.039939  -0.006311
     4  Si   2.691137   1.227192
     5  H   -1.346034  -0.044465
     6  H   -1.323248  -0.058045
     7  H   -1.552986  -0.000283
     8  H   -1.591885  -0.004833
 Sum of Mulliken charges =  -0.00000   1.00000

 Dipole moment (field-independent basis, Debye):
    X=              0.4116    Y=              0.6263    Z=              0.2999  Tot=              0.8072
                          Isotropic Fermi Contact Couplings
        Atom                 a.u.       MegaHertz       Gauss      10(-4) cm-1
     1  Si(29)             0.01562     -13.88482      -4.95445      -4.63148
     2  O(17)              0.01581      -9.58598      -3.42052      -3.19754
     3  H(1)              -0.00031      -1.37680      -0.49128      -0.45925
     4  Si(29)             0.32448    -288.37385    -102.89896     -96.19116
     5  H(1)              -0.00432     -19.28940      -6.88294      -6.43425
     6  H(1)              -0.00510     -22.78531      -8.13036      -7.60036
     7  H(1)              -0.00118      -5.25942      -1.87669      -1.75435
     8  H(1)              -0.00155      -6.92752      -2.47191      -2.31077

 Normal termination of Gaussian 16 at Wed Apr  9 00:08:32 2025.
