 Gaussian 16, Revision C.01,

 ----------------------------------------------------------------------
 #t hf aug-cc-pvdz symm=none int=(grid=ultrafine) guess=(read,tcheck) s
 table=(opt,rrhf)
 ----------------------------------------------------------------------
 -----
 title
 -----
 Symbolic Z-matrix:
 Charge =  0 Multiplicity = 1

 SCF Done:  E(RHF) =  -1750.69023019     A.U. after   16 cycles
 Normal termination of Gaussian 16 at Wed Apr  9 00:54:12 2025.
 Gaussian 16:  ES64L-G16RevC.01  3-Jul-2019

 ----------------------------------------------------------------------
 #t hf aug-cc-pvdz iop(5/13=1,5/36=2,99/5=2) pseudo=read geom=check gue
 ss=(read,tcheck) scf=(maxcycle=1)
 ----------------------------------------------------------------------
 -----
 title
 -----
 Structure from the checkpoint file:  "BDE49_nonexpt_931_mol1.chk"
 Charge =  0 Multiplicity = 1

                         Standard orientation:
 ---------------------------------------------------------------------
 Center     Atomic      Atomic             Coordinates (Angstroms)
 Number     Number       Type             X           Y           Z
 ---------------------------------------------------------------------
      1         17           0       -1.701458    1.446484   -1.164929
      2         17           0       -1.701458   -1.446484   -1.164929
      3         16           0       -0.618044    0.000000    1.167358
      4          8           0       -0.854076   -1.263782    1.805675
      5          8           0       -0.854076    1.263782    1.805675
      6          7           0       -1.844945    0.000000   -0.159273
      7          6           0        1.610358   -1.220105    0.144458
      8          6           0        2.878266   -1.210613   -0.427547
      9          6           0        3.507296   -0.000000   -0.715532
     10          6           0        2.878266    1.210613   -0.427547
     11          6           0        1.610359    1.220105    0.144458
     12          6           0        0.989107   -0.000000    0.416447
     13          1           0        1.113222   -2.147509    0.393910
     14          1           0        3.376698   -2.148352   -0.641674
     15          1           0        4.496365   -0.000000   -1.158922
     16          1           0        3.376699    2.148352   -0.641674
     17          1           0        1.113223    2.147509    0.393910
 ---------------------------------------------------------------------

 SCF Done:  E(RHF) =  -1753.42713003     A.U. after    2 cycles

 The electronic state is 1-A.
 Alpha  occ. eigenvalues --  -99.94319 -99.94313 -75.92946 -21.07645 -21.07606
 Alpha  occ. eigenvalues --  -15.85741 -13.56791 -13.44990 -13.37791 -11.55632
 Alpha  occ. eigenvalues --  -11.47504 -11.47426 -11.45348 -11.44155 -11.40452
 Alpha  occ. eigenvalues --  -10.51392 -10.51360  -9.71394  -9.71079  -9.70496
 Alpha  occ. eigenvalues --   -9.70424  -9.70346  -9.70295  -8.28082  -1.86635
 Alpha  occ. eigenvalues --   -1.68428  -1.51440  -1.38171  -1.32275  -1.18373
 Alpha  occ. eigenvalues --   -1.13620  -1.13194  -0.98102  -0.90598  -0.86308
 Alpha  occ. eigenvalues --   -0.75949  -0.72217  -0.70259  -0.67336  -0.66372
 Alpha  occ. eigenvalues --   -0.62310  -0.61678  -0.61510  -0.55936  -0.55690
 Alpha  occ. eigenvalues --   -0.53313  -0.52605  -0.50781  -0.49287  -0.45668
 Alpha  occ. eigenvalues --   -0.45572  -0.42142  -0.42071  -0.38846  -0.38267
 Alpha  occ. eigenvalues --   -0.37204  -0.36292
 Alpha virt. eigenvalues --   -0.00334   0.02442   0.04382   0.04529   0.04878
 Alpha virt. eigenvalues --    0.06661   0.06785   0.07022   0.08389   0.08989
 Alpha virt. eigenvalues --    0.09427   0.11075   0.11485   0.12279   0.12690

 Mulliken charges:
               1
     1  Cl   0.295251
     2  Cl   0.295251
     3  S    6.669852
     4  O   -2.821218
     5  O   -2.821218
     6  N   -1.670548
     7  C   -3.553975
     8  C   -0.446467
     9  C   -2.714404
    10  C   -0.446441
    11  C   -3.553945
    12  C    2.529256
    13  H    1.802795
    14  H    1.533138
    15  H    1.566738
    16  H    1.533139
    17  H    1.802795
 Sum of Mulliken charges =  -0.00000

 Dipole moment (field-independent basis, Debye):
    X=              4.0967    Y=             -0.0000    Z=             -0.4067  Tot=              4.1168

 Test job not archived.
 1\1\GINC-SE253\SP\RHF\Aug-CC-pVDZ\C6H5Cl2N1O2S1\OHZDE\09-Apr-2025\0\\#
 t hf aug-cc-pvdz iop(5/13=1,5/36=2,99/5=2) pseudo=read geom=check gues
 s=(read,tcheck) scf=(maxcycle=1)\\title\\0,1\Cl,0,-1.701458,1.446484,-
 1.164929\Cl,0,-1.701458,-1.446484,-1.164929\S,0,-0.618044,0.,1.167358\
 O,0,-0.854076,-1.263782,1.805675\O,0,-0.854076,1.263782,1.805675\N,0,-
 1.844945,0.,-0.159273\C,0,1.610358,-1.220105,0.144458\C,0,2.878266,-1.
 210613,-0.427547\C,0,3.507296,0.,-0.715532\C,0,2.878266,1.210613,-0.42
 7547\C,0,1.610359,1.220105,0.144458\C,0,0.989107,0.,0.416447\H,0,1.113

 Normal termination of Gaussian 16 at Wed Apr  9 00:54:29 2025.
