 Gaussian 16, Revision C.01,

 ----------------------------------------------------------------------
 #t hf aug-cc-pvdz symm=none int=(grid=ultrafine) guess=(read,tcheck) s
 table=(opt,rrhf)
 ----------------------------------------------------------------------
 -----
 title
 -----
 Symbolic Z-matrix:
 Charge =  0 Multiplicity = 1

 SCF Done:  E(RHF) =  -648.418844293     A.U. after   16 cycles
 Normal termination of Gaussian 16 at Wed Apr  9 00:33:34 2025.
 Gaussian 16:  ES64L-G16RevC.01  3-Jul-2019

 ----------------------------------------------------------------------
 #t hf aug-cc-pvdz iop(5/13=1,5/36=2,99/5=2) pseudo=read geom=check gue
 ss=(read,tcheck) scf=(maxcycle=1)
 ----------------------------------------------------------------------
 -----
 title
 -----
 Structure from the checkpoint file:  "BDE49_nonexpt_323_mol1.chk"
 Charge =  0 Multiplicity = 1

                         Standard orientation:
 ---------------------------------------------------------------------
 Center     Atomic      Atomic             Coordinates (Angstroms)
 Number     Number       Type             X           Y           Z
 ---------------------------------------------------------------------
      1          6           0        0.964040   -1.374827   -0.131315
      2          6           0       -0.425169   -1.401891   -0.120607
      3          6           0        1.581875   -0.138662   -0.018699
      4          6           0        0.856969    1.041142    0.093251
      5          6           0       -0.538512    1.012413    0.089864
      6          6           0       -1.200370   -0.234880   -0.014540
      7          1           0       -0.918331   -2.363720   -0.224061
      8          5           0       -2.769062   -0.396393   -0.032941
      9          8           0       -3.395403   -1.482000    0.522827
     10          8           0       -3.551393    0.536458   -0.642776
     11          1           0        1.560170   -2.271396   -0.223549
     12          1           0        1.395009    1.975442    0.179758
     13          6           0       -1.293644    2.315790    0.210589
     14          1           0       -0.603167    3.154348    0.312110
     15          1           0       -1.954527    2.313250    1.081781
     16          1           0       -1.927091    2.485043   -0.661554
     17          7           0        3.062134   -0.073170   -0.017968
     18          8           0        3.582403    1.029558    0.081896
     19          8           0        3.674557   -1.127925   -0.116716
     20          1           0       -4.485683    0.303445   -0.597644
     21          1           0       -2.808461   -2.065486    1.010547
 ---------------------------------------------------------------------

 SCF Done:  E(RHF) =  -651.272691781     A.U. after    2 cycles

 The electronic state is 1-A.
 Alpha  occ. eigenvalues --  -21.09512 -21.09386 -21.07885 -21.06963 -16.00023
 Alpha  occ. eigenvalues --  -11.54950 -11.48636 -11.46743 -11.45371 -11.44693
 Alpha  occ. eigenvalues --  -11.40254 -11.38761  -7.68747  -1.99809  -1.83907
 Alpha  occ. eigenvalues --   -1.69079  -1.67253  -1.38487  -1.19992  -1.15404
 Alpha  occ. eigenvalues --   -1.02393  -1.01131  -0.88492  -0.83462  -0.77961
 Alpha  occ. eigenvalues --   -0.73423  -0.68481  -0.67589  -0.66019  -0.64455
 Alpha  occ. eigenvalues --   -0.62014  -0.59545  -0.58747  -0.57516  -0.53889
 Alpha  occ. eigenvalues --   -0.52731  -0.51347  -0.49404  -0.46540  -0.44049
 Alpha  occ. eigenvalues --   -0.38776  -0.38192  -0.35918  -0.35670  -0.34539
 Alpha  occ. eigenvalues --   -0.31225  -0.31137
 Alpha virt. eigenvalues --    0.02590   0.04049   0.04173   0.04831   0.05850
 Alpha virt. eigenvalues --    0.06170   0.06417   0.06789   0.06968   0.08233
 Alpha virt. eigenvalues --    0.08594   0.08838   0.09164   0.10848   0.11265

 Mulliken charges:
               1
     1  C   -4.125767
     2  C    0.417716
     3  C    3.701771
     4  C   -1.826441
     5  C    7.158516
     6  C   -3.662478
     7  H    1.842061
     8  B    5.343746
     9  O   -4.934129
    10  O   -4.775086
    11  H    1.911082
    12  H    2.084321
    13  C   -6.474591
    14  H    1.256078
    15  H    1.010774
    16  H    1.231656
    17  N    3.455425
    18  O   -3.000898
    19  O   -3.126731
    20  H    1.137092
    21  H    1.375882
 Sum of Mulliken charges =   0.00000

 Dipole moment (field-independent basis, Debye):
    X=             -3.3948    Y=             -0.3603    Z=              0.3806  Tot=              3.4350

 Test job not archived.
 1\1\GINC-SE084\SP\RHF\Aug-CC-pVDZ\C7H8B1N1O4\OHZDE\09-Apr-2025\0\\#t h
 f aug-cc-pvdz iop(5/13=1,5/36=2,99/5=2) pseudo=read geom=check guess=(
 read,tcheck) scf=(maxcycle=1)\\title\\0,1\C,0,0.96404,-1.374827,-0.131
 315\C,0,-0.425169,-1.401891,-0.120607\C,0,1.581875,-0.138662,-0.018699
 \C,0,0.856969,1.041142,0.093251\C,0,-0.538512,1.012413,0.089864\C,0,-1
 .20037,-0.23488,-0.01454\H,0,-0.918331,-2.36372,-0.224061\B,0,-2.76906
 2,-0.396393,-0.032941\O,0,-3.395403,-1.482,0.522827\O,0,-3.551393,0.53
 6458,-0.642776\H,0,1.56017,-2.271396,-0.223549\H,0,1.395009,1.975442,0

 Normal termination of Gaussian 16 at Wed Apr  9 00:33:50 2025.
