 Gaussian 16, Revision C.01,

 ----------------------------------------------------------------------
 #t hf aug-cc-pvdz symm=none int=(grid=ultrafine) guess=(read,tcheck) s
 table=(opt,rrhf)
 ----------------------------------------------------------------------
 -----
 title
 -----
 Symbolic Z-matrix:
 Charge =  0 Multiplicity = 1

 SCF Done:  E(RHF) =  -421.775422927     A.U. after   15 cycles
 Normal termination of Gaussian 16 at Tue Apr  8 23:21:22 2025.
 Gaussian 16:  ES64L-G16RevC.01  3-Jul-2019

 ----------------------------------------------------------------------
 #t hf aug-cc-pvdz iop(5/13=1,5/36=2,99/5=2) pseudo=read geom=check gue
 ss=(read,tcheck) scf=(maxcycle=1)
 ----------------------------------------------------------------------
 -----
 title
 -----
 Structure from the checkpoint file:  "BDE49_nonexpt_1141_mol1.chk"
 Charge =  0 Multiplicity = 1

                         Standard orientation:
 ---------------------------------------------------------------------
 Center     Atomic      Atomic             Coordinates (Angstroms)
 Number     Number       Type             X           Y           Z
 ---------------------------------------------------------------------
      1          9           0        2.378701   -0.585341    0.329998
      2          8           0        0.920709   -0.553335    0.625236
      3          6           0        0.292528    0.044685   -0.531304
      4          8           0        0.769723    1.332619   -0.732685
      5          7           0       -1.077869    0.056753   -0.218513
      6          6           0       -1.551765    0.951829    0.833570
      7          1           0       -0.902271    1.823027    0.875886
      8          1           0       -1.573811    0.470215    1.819445
      9          1           0       -2.564542    1.283694    0.586962
     10          6           0       -1.821811   -1.181068   -0.387150
     11          1           0       -1.432397   -1.730514   -1.246396
     12          1           0       -2.871612   -0.944382   -0.582786
     13          1           0       -1.774760   -1.836419    0.492961
     14          1           0        0.490345   -0.611552   -1.386917
     15          1           0        1.728655    1.289786   -0.630645
 ---------------------------------------------------------------------

 SCF Done:  E(RHF) =  -423.564771988     A.U. after    2 cycles

 The electronic state is 1-A.
 Alpha  occ. eigenvalues --  -29.28275 -21.15490 -21.09325 -15.72887 -11.49464
 Alpha  occ. eigenvalues --  -11.40268 -11.39203  -1.84334  -1.69900  -1.41936
 Alpha  occ. eigenvalues --   -1.05462  -1.02264  -0.83844  -0.74490  -0.70057
 Alpha  occ. eigenvalues --   -0.65768  -0.62179  -0.60639  -0.56851  -0.55294
 Alpha  occ. eigenvalues --   -0.52050  -0.51255  -0.48576  -0.40840  -0.37294
 Alpha  occ. eigenvalues --   -0.35155  -0.31729  -0.24910  -0.22653
 Alpha virt. eigenvalues --    0.03814   0.05367   0.05532   0.05922   0.06322
 Alpha virt. eigenvalues --    0.06716   0.07383   0.08840   0.11030   0.12984
 Alpha virt. eigenvalues --    0.13805   0.14374   0.15443   0.16014   0.16470

 Mulliken charges:
               1
     1  F   -0.396250
     2  O   -1.046582
     3  C    3.525444
     4  O   -2.837653
     5  N   -3.244930
     6  C   -3.512440
     7  H    1.428543
     8  H    1.435174
     9  H    1.358503
    10  C   -3.330457
    11  H    1.335965
    12  H    1.418402
    13  H    1.399980
    14  H    1.837148
    15  H    0.629152
 Sum of Mulliken charges =  -0.00000

 Dipole moment (field-independent basis, Debye):
    X=              0.3600    Y=             -0.2912    Z=             -0.1374  Tot=              0.4830

 Test job not archived.
 1\1\GINC-SE363\SP\RHF\Aug-CC-pVDZ\C3H8F1N1O2\OHZDE\08-Apr-2025\0\\#t h
 f aug-cc-pvdz iop(5/13=1,5/36=2,99/5=2) pseudo=read geom=check guess=(
 read,tcheck) scf=(maxcycle=1)\\title\\0,1\F,0,2.378701,-0.585341,0.329
 998\O,0,0.920709,-0.553335,0.625236\C,0,0.292528,0.044685,-0.531304\O,
 0,0.769723,1.332619,-0.732685\N,0,-1.077869,0.056753,-0.218513\C,0,-1.
 551765,0.951829,0.83357\H,0,-0.902271,1.823027,0.875886\H,0,-1.573811,
 0.470215,1.819445\H,0,-2.564542,1.283694,0.586962\C,0,-1.821811,-1.181
 068,-0.38715\H,0,-1.432397,-1.730514,-1.246396\H,0,-2.871612,-0.944382

 Normal termination of Gaussian 16 at Tue Apr  8 23:21:27 2025.
