 Gaussian 16, Revision C.01,

 ----------------------------------------------------------------------
 #t hf aug-cc-pvdz symm=none int=(grid=ultrafine) guess=(read,tcheck) s
 table=(opt,rrhf)
 ----------------------------------------------------------------------
 -----
 title
 -----
 Symbolic Z-matrix:
 Charge =  0 Multiplicity = 1

 SCF Done:  E(RHF) =  -1897.76958679     A.U. after   14 cycles
 Normal termination of Gaussian 16 at Tue Apr  8 23:50:39 2025.
 Gaussian 16:  ES64L-G16RevC.01  3-Jul-2019

 ----------------------------------------------------------------------
 #t hf aug-cc-pvdz iop(5/13=1,5/36=2,99/5=2) pseudo=read geom=check gue
 ss=(read,tcheck) scf=(maxcycle=1)
 ----------------------------------------------------------------------
 -----
 title
 -----
 Structure from the checkpoint file:  "BDE49_nonexpt_1825_mol1.chk"
 Charge =  0 Multiplicity = 1

                         Standard orientation:
 ---------------------------------------------------------------------
 Center     Atomic      Atomic             Coordinates (Angstroms)
 Number     Number       Type             X           Y           Z
 ---------------------------------------------------------------------
      1          6           0       -1.639896    1.208485   -0.025811
      2          6           0       -3.031405    1.206723    0.000333
      3          6           0       -3.727890   -0.000001    0.013870
      4          6           0       -3.031404   -1.206723    0.000333
      5          6           0       -1.639895   -1.208484   -0.025811
      6          6           0       -0.925819    0.000001   -0.039217
      7          1           0       -1.110882    2.154503   -0.043055
      8          1           0       -3.570775    2.146928    0.006799
      9         14           0        0.925458    0.000000   -0.007827
     10          1           0       -1.110880   -2.154501   -0.043055
     11         17           0        1.683041   -1.673519   -0.945509
     12         17           0        1.645486   -0.000022    1.926754
     13         17           0        1.683041    1.673540   -0.945472
     14          1           0       -3.570773   -2.146931    0.006798
     15          1           0       -4.811919   -0.000002    0.031750
 ---------------------------------------------------------------------

 SCF Done:  E(RHF) =  -1899.75322706     A.U. after    2 cycles

 The electronic state is 1-A.
 Alpha  occ. eigenvalues --  -99.90266 -99.90262 -99.89878 -76.33874 -11.53164
 Alpha  occ. eigenvalues --  -11.44818 -11.44455 -11.42325 -11.42279 -11.38116
 Alpha  occ. eigenvalues --  -10.47761 -10.47701 -10.47319  -9.67641  -9.67605
 Alpha  occ. eigenvalues --   -9.67223  -9.67077  -9.67059  -9.66968  -9.66904
 Alpha  occ. eigenvalues --   -9.66596  -9.66548  -5.67670  -2.31254  -2.30442
 Alpha  occ. eigenvalues --   -2.29282  -1.36550  -1.32369  -1.29714  -1.29381
 Alpha  occ. eigenvalues --   -1.11138  -1.11115  -0.88496  -0.88256  -0.79219
 Alpha  occ. eigenvalues --   -0.72487  -0.65778  -0.62570  -0.61829  -0.60666
 Alpha  occ. eigenvalues --   -0.60178  -0.58633  -0.56513  -0.55699  -0.53389
 Alpha  occ. eigenvalues --   -0.53157  -0.52728  -0.51587  -0.51212  -0.46584
 Alpha  occ. eigenvalues --   -0.42768  -0.35913  -0.34731
 Alpha virt. eigenvalues --    0.02634   0.04698   0.04749   0.05670   0.06307
 Alpha virt. eigenvalues --    0.06883   0.07141   0.07247   0.08129   0.08980
 Alpha virt. eigenvalues --    0.09368   0.09775   0.11021   0.12380   0.12495

 Mulliken charges:
               1
     1  C   -2.537916
     2  C   -0.265070
     3  C   -2.096715
     4  C   -0.265071
     5  C   -2.537919
     6  C   -0.254387
     7  H    1.704206
     8  H    1.550116
     9  Si   2.401217
    10  H    1.704205
    11  Cl  -0.815578
    12  Cl  -0.847752
    13  Cl  -0.815577
    14  H    1.550112
    15  H    1.526129
 Sum of Mulliken charges =  -0.00000

 Dipole moment (field-independent basis, Debye):
    X=             -3.5879    Y=              0.0000    Z=             -0.1118  Tot=              3.5896

 Test job not archived.
 1\1\GINC-SE364\SP\RHF\Aug-CC-pVDZ\C6H5Cl3Si1\OHZDE\08-Apr-2025\0\\#t h
 f aug-cc-pvdz iop(5/13=1,5/36=2,99/5=2) pseudo=read geom=check guess=(
 read,tcheck) scf=(maxcycle=1)\\title\\0,1\C,0,-1.639896,1.208485,-0.02
 5811\C,0,-3.031405,1.206723,0.000333\C,0,-3.72789,0.,0.01387\C,0,-3.03
 1404,-1.206723,0.000333\C,0,-1.639895,-1.208484,-0.025811\C,0,-0.92581
 9,0.000001,-0.039217\H,0,-1.110882,2.154503,-0.043055\H,0,-3.570775,2.
 146929,0.006799\Si,0,0.925458,0.,-0.007827\H,0,-1.11088,-2.154501,-0.0
 43055\Cl,0,1.683041,-1.673519,-0.945509\Cl,0,1.645486,-0.000022,1.9267

 Normal termination of Gaussian 16 at Tue Apr  8 23:50:47 2025.
