 Gaussian 16, Revision C.01,

 ----------------------------------------------------------------------
 #t hf aug-cc-pvdz symm=none int=(grid=ultrafine) guess=(read,tcheck) s
 table=(opt,rrhf)
 ----------------------------------------------------------------------
 -----
 title
 -----
 Symbolic Z-matrix:
 Charge =  0 Multiplicity = 1

 SCF Done:  E(RHF) =  -610.205229138     A.U. after   15 cycles
 Normal termination of Gaussian 16 at Tue Apr  8 23:32:41 2025.
 Gaussian 16:  ES64L-G16RevC.01  3-Jul-2019

 ----------------------------------------------------------------------
 #t hf aug-cc-pvdz iop(5/13=1,5/36=2,99/5=2) pseudo=read geom=check gue
 ss=(read,tcheck) scf=(maxcycle=1)
 ----------------------------------------------------------------------
 -----
 title
 -----
 Structure from the checkpoint file:  "BDE49_nonexpt_1387_mol1.chk"
 Charge =  0 Multiplicity = 1

                         Standard orientation:
 ---------------------------------------------------------------------
 Center     Atomic      Atomic             Coordinates (Angstroms)
 Number     Number       Type             X           Y           Z
 ---------------------------------------------------------------------
      1          6           0        1.258838   -1.131520   -0.220230
      2          6           0        1.701912    0.083397    0.607258
      3         15           0       -0.595209   -1.411931   -0.196218
      4          1           0        1.727831   -2.049034    0.145981
      5          1           0        1.566561   -1.029147   -1.266313
      6          6           0       -1.129559    0.388494   -0.012899
      7          6           0       -0.177493    1.381827   -0.654179
      8          6           0        1.209003    1.434432    0.043384
      9          1           0       -0.650898    2.365756   -0.663143
     10          1           0       -0.043518    1.065040   -1.695872
     11          1           0        1.170270    2.162679    0.857376
     12          1           0        1.932983    1.819825   -0.680374
     13          1           0        2.794520    0.109356    0.679181
     14          1           0        1.331355   -0.044001    1.629636
     15          8           0       -2.167979    0.693004    0.521877
     16          1           0       -0.733338   -1.705314    1.181771
 ---------------------------------------------------------------------

 SCF Done:  E(RHF) =  -611.667985102     A.U. after    2 cycles

 The electronic state is 1-A.
 Alpha  occ. eigenvalues -- -105.17956 -21.05861 -11.48707 -11.45570 -11.42252
 Alpha  occ. eigenvalues --  -11.39359 -11.37028  -2.75746  -1.71150  -1.48410
 Alpha  occ. eigenvalues --   -1.46869  -1.44756  -1.25331  -1.09281  -0.97522
 Alpha  occ. eigenvalues --   -0.84205  -0.78229  -0.67169  -0.65724  -0.63515
 Alpha  occ. eigenvalues --   -0.57789  -0.55402  -0.52475  -0.50662  -0.47498
 Alpha  occ. eigenvalues --   -0.46031  -0.41922  -0.38367  -0.23863  -0.16037
 Alpha  occ. eigenvalues --   -0.02069
 Alpha virt. eigenvalues --    0.03643   0.05231   0.05301   0.05398   0.05887
 Alpha virt. eigenvalues --    0.05954   0.07017   0.07918   0.08641   0.09937
 Alpha virt. eigenvalues --    0.11367   0.11807   0.12432   0.12971   0.13258

 Mulliken charges:
               1
     1  C   -3.458900
     2  C   -2.900110
     3  P    3.749651
     4  H    1.303822
     5  H    1.339219
     6  C    2.301886
     7  C   -3.725350
     8  C   -2.584697
     9  H    1.163659
    10  H    1.391127
    11  H    1.389578
    12  H    1.336088
    13  H    1.136158
    14  H    1.424803
    15  O   -3.244013
    16  H   -0.622920
 Sum of Mulliken charges =   0.00000

 Dipole moment (field-independent basis, Debye):
    X=              1.5656    Y=             -0.9417    Z=             -0.9155  Tot=              2.0436

 Test job not archived.
 1\1\GINC-SE118\SP\RHF\Aug-CC-pVDZ\C5H9O1P1\OHZDE\08-Apr-2025\0\\#t hf
 aug-cc-pvdz iop(5/13=1,5/36=2,99/5=2) pseudo=read geom=check guess=(re
 ad,tcheck) scf=(maxcycle=1)\\title\\0,1\C,0,1.258836,-1.131522,-0.2202
 3\C,0,1.701912,0.083395,0.607258\P,0,-0.595211,-1.41193,-0.196218\H,0,
 1.727828,-2.049036,0.145981\H,0,1.56656,-1.029149,-1.266313\C,0,-1.129
 558,0.388496,-0.012899\C,0,-0.177491,1.381827,-0.654179\C,0,1.209005,1
 .43443,0.043384\H,0,-0.650894,2.365757,-0.663143\H,0,-0.043516,1.06504
 ,-1.695872\H,0,1.170273,2.162677,0.857376\H,0,1.932986,1.819822,-0.680

 Normal termination of Gaussian 16 at Tue Apr  8 23:32:48 2025.
