 Gaussian 16, Revision C.01,

 ----------------------------------------------------------------------
 #t hf aug-cc-pvdz symm=none int=(grid=ultrafine) guess=(read,tcheck) s
 table=(opt,rrhf)
 ----------------------------------------------------------------------
 -----
 title
 -----
 Symbolic Z-matrix:
 Charge =  0 Multiplicity = 1

 SCF Done:  E(RHF) =  -720.156280850     A.U. after   12 cycles
 Normal termination of Gaussian 16 at Tue Apr  8 23:39:33 2025.
 Gaussian 16:  ES64L-G16RevC.01  3-Jul-2019

 ----------------------------------------------------------------------
 #t hf aug-cc-pvdz iop(5/13=1,5/36=2,99/5=2) pseudo=read geom=check gue
 ss=(read,tcheck) scf=(maxcycle=1)
 ----------------------------------------------------------------------
 -----
 title
 -----
 Structure from the checkpoint file:  "BDE49_nonexpt_1592_mol1.chk"
 Charge =  0 Multiplicity = 1

                         Standard orientation:
 ---------------------------------------------------------------------
 Center     Atomic      Atomic             Coordinates (Angstroms)
 Number     Number       Type             X           Y           Z
 ---------------------------------------------------------------------
      1          6           0        1.718060    0.408814    0.201034
      2          8           0        0.653105   -0.446961   -0.296499
      3         15           0       -0.877097   -0.125410   -0.091154
      4          8           0       -1.784605   -1.127469   -0.640900
      5          8           0       -1.073422    0.135295    1.487431
      6          6           0        3.036117   -0.273647   -0.097488
      7          1           0        1.572656    0.554319    1.274497
      8          1           0        1.641966    1.376727   -0.299138
      9          1           0        3.090527   -1.244782    0.398498
     10          1           0        3.862887    0.346205    0.260031
     11          1           0        3.156157   -0.426648   -1.171703
     12          8           0       -0.963843    1.364254   -0.665701
     13          1           0       -1.867965    1.696649   -0.700815
     14          1           0       -1.474708   -0.633270    1.910012
 ---------------------------------------------------------------------

 SCF Done:  E(RHF) =  -721.994597826     A.U. after    2 cycles

 The electronic state is 1-A.
 Alpha  occ. eigenvalues -- -105.32308 -21.11932 -21.11615 -21.08050 -21.02165
 Alpha  occ. eigenvalues --  -11.45422 -11.37871  -2.95741  -2.01105  -1.93385
 Alpha  occ. eigenvalues --   -1.90533  -1.75201  -1.43105  -1.41066  -1.25492
 Alpha  occ. eigenvalues --   -1.11737  -0.88670  -0.70761  -0.66906  -0.61029
 Alpha  occ. eigenvalues --   -0.59722  -0.55737  -0.53656  -0.52439  -0.47234
 Alpha  occ. eigenvalues --   -0.44730  -0.42523  -0.37242  -0.35859  -0.34292
 Alpha  occ. eigenvalues --   -0.29408  -0.26210  -0.15775
 Alpha virt. eigenvalues --    0.03445   0.04913   0.05592   0.05908   0.06160
 Alpha virt. eigenvalues --    0.07020   0.07088   0.10770   0.11476   0.12022
 Alpha virt. eigenvalues --    0.12643   0.14215   0.14756   0.15250   0.16787

 Mulliken charges:
               1
     1  C   -1.825037
     2  O   -3.566175
     3  P    9.136635
     4  O   -2.809992
     5  O   -2.769861
     6  C   -3.946195
     7  H    1.568465
     8  H    1.569772
     9  H    1.249617
    10  H    1.127933
    11  H    1.234315
    12  O   -2.803166
    13  H    0.927732
    14  H    0.905957
 Sum of Mulliken charges =  -0.00000

 Dipole moment (field-independent basis, Debye):
    X=              1.9518    Y=              2.3047    Z=              1.5583  Tot=              3.3984

 Test job not archived.
 1\1\GINC-SE073\SP\RHF\Aug-CC-pVDZ\C2H7O4P1\OHZDE\08-Apr-2025\0\\#t hf
 aug-cc-pvdz iop(5/13=1,5/36=2,99/5=2) pseudo=read geom=check guess=(re
 ad,tcheck) scf=(maxcycle=1)\\title\\0,1\C,0,1.71806,0.408814,0.201034\
 O,0,0.653105,-0.446961,-0.296499\P,0,-0.877097,-0.12541,-0.091154\O,0,
 -1.784605,-1.127469,-0.6409\O,0,-1.073422,0.135295,1.487431\C,0,3.0361
 17,-0.273647,-0.097488\H,0,1.572656,0.554319,1.274497\H,0,1.641966,1.3
 76727,-0.299138\H,0,3.090527,-1.244782,0.398498\H,0,3.862887,0.346205,
 0.260031\H,0,3.156157,-0.426648,-1.171703\O,0,-0.963843,1.364254,-0.66

 Normal termination of Gaussian 16 at Tue Apr  8 23:39:38 2025.
