 Gaussian 16, Revision C.01,

 ----------------------------------------------------------------------
 #t hf aug-cc-pvdz symm=none int=(grid=ultrafine) guess=(read,tcheck) s
 table=(opt,rrhf)
 ----------------------------------------------------------------------
 -----
 title
 -----
 Symbolic Z-matrix:
 Charge =  0 Multiplicity = 1

 SCF Done:  E(RHF) =  -724.610535639     A.U. after   14 cycles

 1\1\GINC-SE367\Stability\RHF\Aug-CC-pVDZ\C1F4Si1\OHZDE\08-Apr-2025\0\\
 #t hf aug-cc-pvdz symm=none int=(grid=ultrafine) guess=(read,tcheck) s
 table=(opt,rrhf)\\title\\0,1\Si,0,0.458089,-0.74125,0.\F,0,-0.13323,-1
 .509127,1.28058\C,0,-0.269491,0.996788,0.\F,0,-0.13323,-1.509127,-1.28
 058\F,0,-0.13323,1.753393,1.069537\F,0,-0.13323,1.753393,-1.069537\\Ve
 rsion=ES64L-G16RevC.01\HF=-724.6105356\RMSD=3.265e-09\Dipole=0.1465426
 ,0.3991194,0.\Quadrupole=1.841592,-0.3648501,-1.4767418,-1.8948098,0.,
 0.\PG=Unknown\\@

 Normal termination of Gaussian 16 at Tue Apr  8 23:56:20 2025.
 Gaussian 16:  ES64L-G16RevC.01  3-Jul-2019

 ----------------------------------------------------------------------
 #t hf aug-cc-pvdz iop(5/13=1,5/36=2,99/5=2) pseudo=read geom=check gue
 ss=(read,tcheck) scf=(maxcycle=1)
 ----------------------------------------------------------------------
 -----
 title
 -----
 Structure from the checkpoint file:  "BDE49_nonexpt_2000_mol1.chk"
 Charge =  0 Multiplicity = 1

                         Standard orientation:
 ---------------------------------------------------------------------
 Center     Atomic      Atomic             Coordinates (Angstroms)
 Number     Number       Type             X           Y           Z
 ---------------------------------------------------------------------
      1         14           0        0.458089   -0.741250   -0.000000
      2          9           0       -0.133230   -1.509127    1.280580
      3          6           0       -0.269491    0.996788    0.000000
      4          9           0       -0.133230   -1.509127   -1.280580
      5          9           0       -0.133230    1.753393    1.069537
      6          9           0       -0.133230    1.753393   -1.069537
 ---------------------------------------------------------------------

 SCF Done:  E(RHF) =  -726.272894923     A.U. after    2 cycles

 The electronic state is 1-A'.
 Alpha  occ. eigenvalues --  -76.30445 -29.36905 -29.36855 -29.29339 -29.29337
 Alpha  occ. eigenvalues --  -11.56876  -5.65758  -2.30323  -2.28779  -2.23900
 Alpha  occ. eigenvalues --   -1.31726  -0.95003  -0.86741  -0.71153  -0.70464
 Alpha  occ. eigenvalues --   -0.60030  -0.50335  -0.44652  -0.44194  -0.42059
 Alpha  occ. eigenvalues --   -0.41169  -0.36496  -0.35465  -0.34517  -0.30947
 Alpha  occ. eigenvalues --   -0.29867  -0.27850  -0.19299
 Alpha virt. eigenvalues --    0.04240   0.06690   0.07893   0.08692   0.09096
 Alpha virt. eigenvalues --    0.12383   0.14920   0.15024   0.17682   0.19334
 Alpha virt. eigenvalues --    0.22513   0.22716   0.24094   0.25392   0.26692

 Mulliken charges:
               1
     1  Si   2.382724
     2  F   -0.819563
     3  C   -1.947005
     4  F   -0.819563
     5  F    0.601703
     6  F    0.601703
 Sum of Mulliken charges =  -0.00000

 Dipole moment (field-independent basis, Debye):
    X=             -1.9289    Y=              1.7879    Z=             -0.0000  Tot=              2.6301

 Test job not archived.
 1\1\GINC-SE367\SP\RHF\Aug-CC-pVDZ\C1F4Si1\OHZDE\08-Apr-2025\0\\#t hf a
 ug-cc-pvdz iop(5/13=1,5/36=2,99/5=2) pseudo=read geom=check guess=(rea
 d,tcheck) scf=(maxcycle=1)\\title\\0,1\Si,0,0.458089,-0.74125,0.\F,0,-
 0.13323,-1.509127,1.28058\C,0,-0.269491,0.996788,0.\F,0,-0.13323,-1.50
 9127,-1.28058\F,0,-0.13323,1.753393,1.069537\F,0,-0.13323,1.753393,-1.
 069537\\Version=ES64L-G16RevC.01\State=1-A'\HF=-726.2728949\RMSD=4.743
 e-02\Dipole=-0.7588965,0.7034168,0.\Quadrupole=-6.2534407,4.9907432,1.
 2626975,-0.141459,0.,0.\PG=CS [SG(C1Si1),X(F4)]\\@

 Normal termination of Gaussian 16 at Tue Apr  8 23:56:22 2025.
