 Gaussian 16, Revision C.01,

 ----------------------------------------------------------------------
 #t hf aug-cc-pvdz symm=none int=(grid=ultrafine) guess=(read,tcheck) s
 table=(opt,rrhf)
 ----------------------------------------------------------------------
 -----
 title
 -----
 Symbolic Z-matrix:
 Charge =  0 Multiplicity = 1

 SCF Done:  E(RHF) =  -913.322055607     A.U. after   13 cycles
 Normal termination of Gaussian 16 at Tue Apr  8 23:57:23 2025.
 Gaussian 16:  ES64L-G16RevC.01  3-Jul-2019

 ----------------------------------------------------------------------
 #t hf aug-cc-pvdz iop(5/13=1,5/36=2,99/5=2) pseudo=read geom=check gue
 ss=(read,tcheck) scf=(maxcycle=1)
 ----------------------------------------------------------------------
 -----
 title
 -----
 Structure from the checkpoint file:  "BDE49_nonexpt_2037_mol1.chk"
 Charge =  0 Multiplicity = 1

                         Standard orientation:
 ---------------------------------------------------------------------
 Center     Atomic      Atomic             Coordinates (Angstroms)
 Number     Number       Type             X           Y           Z
 ---------------------------------------------------------------------
      1         14           0        1.747754    0.048726    0.007337
      2         16           0       -0.474873   -0.146840    0.062130
      3          8           0       -0.867601   -1.299749   -0.704737
      4          8           0       -0.968163    0.076189    1.405749
      5          8           0       -0.913008    1.178921   -0.814428
      6          1           0       -1.352172    1.791182   -0.204790
      7          1           0        2.248854   -1.118928    0.753084
      8          1           0        2.076719    1.322233    0.672415
      9          1           0        2.146180    0.029898   -1.410178
 ---------------------------------------------------------------------

 SCF Done:  E(RHF) =  -914.678566584     A.U. after    2 cycles

 The electronic state is 1-A.
 Alpha  occ. eigenvalues --  -76.28420 -75.91146 -21.13226 -21.06559 -21.06380
 Alpha  occ. eigenvalues --  -13.53787 -13.42405 -13.34554  -8.26182  -5.61802
 Alpha  occ. eigenvalues --   -2.24154  -2.23946  -2.23920  -1.89300  -1.71727
 Alpha  occ. eigenvalues --   -1.66636  -0.98294  -0.81253  -0.66101  -0.61379
 Alpha  occ. eigenvalues --   -0.57313  -0.52885  -0.51991  -0.47255  -0.43794
 Alpha  occ. eigenvalues --   -0.39625  -0.38507  -0.36717  -0.33609
 Alpha virt. eigenvalues --    0.02606   0.04183   0.05380   0.05685   0.06947
 Alpha virt. eigenvalues --    0.08794   0.09030   0.10955   0.12293   0.13332
 Alpha virt. eigenvalues --    0.13925   0.14522   0.15408   0.16236   0.17115

 Mulliken charges:
               1
     1  Si   5.635833
     2  S    5.439845
     3  O   -2.447295
     4  O   -2.425579
     5  O   -2.320175
     6  H    0.843229
     7  H   -1.564717
     8  H   -1.576393
     9  H   -1.584749
 Sum of Mulliken charges =   0.00000

 Dipole moment (field-independent basis, Debye):
    X=              1.5445    Y=              1.5453    Z=             -0.3496  Tot=              2.2126

 Test job not archived.
 1\1\GINC-SE460\SP\RHF\Aug-CC-pVDZ\H4O3S1Si1\OHZDE\08-Apr-2025\0\\#t hf
  aug-cc-pvdz iop(5/13=1,5/36=2,99/5=2) pseudo=read geom=check guess=(r
 ead,tcheck) scf=(maxcycle=1)\\title\\0,1\Si,0,-1.747754,-0.048726,0.00
 7337\S,0,0.474873,0.14684,0.06213\O,0,0.867601,1.299749,-0.704737\O,0,
 0.968163,-0.076189,1.405749\O,0,0.913008,-1.178921,-0.814428\H,0,1.352
 173,-1.791182,-0.20479\H,0,-2.248854,1.118927,0.753084\H,0,-2.076719,-
 1.322234,0.672415\H,0,-2.14618,-0.029899,-1.410178\\Version=ES64L-G16R
 evC.01\State=1-A\HF=-914.6785666\RMSD=7.251e-02\Dipole=-0.6076505,-0.6

 Normal termination of Gaussian 16 at Tue Apr  8 23:57:26 2025.
