 Gaussian 16, Revision C.01,

 ----------------------------------------------------------------------
 #t hf aug-cc-pvdz symm=none int=(grid=ultrafine) guess=(read,tcheck) s
 table=(opt,rrhf)
 ----------------------------------------------------------------------
 -----
 title
 -----
 Symbolic Z-matrix:
 Charge =  0 Multiplicity = 1

 SCF Done:  E(RHF) =  -1189.94594359     A.U. after   14 cycles
 Normal termination of Gaussian 16 at Wed Apr  9 00:12:14 2025.
 Gaussian 16:  ES64L-G16RevC.01  3-Jul-2019

 ----------------------------------------------------------------------
 #t hf aug-cc-pvdz iop(5/13=1,5/36=2,99/5=2) pseudo=read geom=check gue
 ss=(read,tcheck) scf=(maxcycle=1)
 ----------------------------------------------------------------------
 -----
 title
 -----
 Structure from the checkpoint file:  "BDE49_nonexpt_237_mol1.chk"
 Charge =  0 Multiplicity = 1

                         Standard orientation:
 ---------------------------------------------------------------------
 Center     Atomic      Atomic             Coordinates (Angstroms)
 Number     Number       Type             X           Y           Z
 ---------------------------------------------------------------------
      1         17           0        2.074017    1.508458   -0.000052
      2          5           0        1.142763    0.002359    0.000108
      3         17           0        2.066230   -1.505034   -0.000044
      4          6           0       -0.400384    0.013444    0.000065
      5          6           0       -1.139227    1.210667    0.000043
      6          6           0       -1.147006   -1.182068    0.000047
      7          7           0       -2.478306   -1.245079    0.000013
      8          6           0       -2.525133    1.162639    0.000007
      9          6           0       -3.145238   -0.085998   -0.000007
     10          1           0       -0.625631    2.164800    0.000055
     11          1           0       -3.119410    2.068385   -0.000010
     12          1           0       -0.633651   -2.138256    0.000063
     13          1           0       -4.229253   -0.161483   -0.000035
 ---------------------------------------------------------------------

 SCF Done:  E(RHF) =  -1191.68453983     A.U. after    2 cycles

 The electronic state is 1-A.
 Alpha  occ. eigenvalues --  -99.90184 -99.90099 -15.75156 -11.49805 -11.47145
 Alpha  occ. eigenvalues --  -11.46053 -11.42515 -11.38917 -10.47586 -10.47321
 Alpha  occ. eigenvalues --   -9.67567  -9.67298  -9.67039  -9.66974  -9.66806
 Alpha  occ. eigenvalues --   -9.66692  -7.74246  -1.47190  -1.39344  -1.29897
 Alpha  occ. eigenvalues --   -1.20713  -1.13585  -0.92912  -0.90892  -0.80649
 Alpha  occ. eigenvalues --   -0.74351  -0.66195  -0.65435  -0.62475  -0.58854
 Alpha  occ. eigenvalues --   -0.58620  -0.56760  -0.55098  -0.52740  -0.52278
 Alpha  occ. eigenvalues --   -0.50146  -0.45853  -0.39015  -0.36822  -0.36380
 Alpha virt. eigenvalues --    0.02631   0.03122   0.04319   0.04478   0.04958
 Alpha virt. eigenvalues --    0.05409   0.05930   0.07830   0.09538   0.09955
 Alpha virt. eigenvalues --    0.11233   0.11593   0.12498   0.12788   0.13531

 Mulliken charges:
               1
     1  Cl  -1.445616
     2  B    1.645816
     3  Cl  -1.348177
     4  C    0.353561
     5  C   -0.048695
     6  C   -0.819675
     7  N   -3.377866
     8  C   -0.414948
     9  C   -1.076069
    10  H    1.875080
    11  H    1.472483
    12  H    1.636869
    13  H    1.547235
 Sum of Mulliken charges =   0.00000

 Dipole moment (field-independent basis, Debye):
    X=             -1.8700    Y=              1.5761    Z=              0.0002  Tot=              2.4456

 Test job not archived.
 1\1\GINC-SE454\SP\RHF\Aug-CC-pVDZ\C5H4B1Cl2N1\OHZDE\09-Apr-2025\0\\#t
 hf aug-cc-pvdz iop(5/13=1,5/36=2,99/5=2) pseudo=read geom=check guess=
 (read,tcheck) scf=(maxcycle=1)\\title\\0,1\Cl,0,-2.074017,1.508458,0.0
 00052\B,0,-1.142763,0.002359,-0.000108\Cl,0,-2.06623,-1.505034,0.00004
 4\C,0,0.400384,0.013444,-0.000065\C,0,1.139227,1.210667,-0.000043\C,0,
 1.147006,-1.182068,-0.000047\N,0,2.478306,-1.245079,-0.000013\C,0,2.52
 5133,1.162639,-0.000007\C,0,3.145238,-0.085998,0.000007\H,0,0.625631,2
 .1648,-0.000055\H,0,3.11941,2.068385,0.00001\H,0,0.633651,-2.138256,-0

 Normal termination of Gaussian 16 at Wed Apr  9 00:12:20 2025.
