 Gaussian 16, Revision C.01,

 ----------------------------------------------------------------------
 #t hf aug-cc-pvdz symm=none int=(grid=ultrafine) guess=(read,tcheck) s
 table=(opt,rrhf)
 ----------------------------------------------------------------------
 -----
 title
 -----
 Symbolic Z-matrix:
 Charge =  0 Multiplicity = 1

 SCF Done:  E(RHF) =  -719.454393983     A.U. after   14 cycles
 Normal termination of Gaussian 16 at Tue Apr  8 23:15:12 2025.
 Gaussian 16:  ES64L-G16RevC.01  3-Jul-2019

 ----------------------------------------------------------------------
 #t hf aug-cc-pvdz iop(5/13=1,5/36=2,99/5=2) pseudo=read geom=check gue
 ss=(read,tcheck) scf=(maxcycle=1)
 ----------------------------------------------------------------------
 -----
 title
 -----
 Structure from the checkpoint file:  "BDE49_expt_842_mol1.chk"
 Charge =  0 Multiplicity = 1

                         Standard orientation:
 ---------------------------------------------------------------------
 Center     Atomic      Atomic             Coordinates (Angstroms)
 Number     Number       Type             X           Y           Z
 ---------------------------------------------------------------------
      1          6           0        1.038623    0.062329    0.973565
      2          6           0       -0.372887    0.590102    0.685413
      3          7           0       -0.462326    1.795932   -0.144807
      4          6           0       -1.265209   -0.513600    0.071010
      5          1           0       -0.841138    0.819991    1.651074
      6          8           0       -1.143821   -1.679795    0.340445
      7          8           0       -2.199476   -0.040914   -0.758360
      8          1           0       -2.011203    0.921273   -0.832414
      9          1           0        0.244539    1.762117   -0.876900
     10          1           0       -0.318639    2.640430    0.396280
     11         16           0        2.034204   -0.272615   -0.534737
     12          1           0        0.981682   -0.847747    1.567720
     13          1           0        1.609764    0.806953    1.531356
     14          1           0        1.367208   -1.380021   -0.904286
 ---------------------------------------------------------------------

 SCF Done:  E(RHF) =  -721.106546599     A.U. after    2 cycles

 The electronic state is 1-A.
 Alpha  occ. eigenvalues --  -75.69733 -21.11086 -21.04825 -15.77106 -13.14817
 Alpha  occ. eigenvalues --  -13.11147 -13.05218 -11.53022 -11.47035 -11.41918
 Alpha  occ. eigenvalues --   -8.03615  -1.82293  -1.65637  -1.38921  -1.19860
 Alpha  occ. eigenvalues --   -1.05565  -0.92576  -0.77419  -0.73617  -0.68804
 Alpha  occ. eigenvalues --   -0.64301  -0.60297  -0.58511  -0.52891  -0.50726
 Alpha  occ. eigenvalues --   -0.48641  -0.45123  -0.40840  -0.39159  -0.33129
 Alpha  occ. eigenvalues --   -0.29258  -0.25699
 Alpha virt. eigenvalues --    0.02613   0.04286   0.04566   0.05209   0.05755
 Alpha virt. eigenvalues --    0.06786   0.07672   0.10075   0.10860   0.11545
 Alpha virt. eigenvalues --    0.12691   0.13446   0.13757   0.14255   0.14492

 Mulliken charges:
               1
     1  C   -3.457450
     2  C   -0.187706
     3  N   -2.850822
     4  C    5.805425
     5  H    1.626407
     6  O   -3.172350
     7  O   -3.179941
     8  H    1.127643
     9  H    0.670079
    10  H    0.526018
    11  S   -0.655284
    12  H    1.320954
    13  H    1.428485
    14  H    0.998542
 Sum of Mulliken charges =  -0.00000

 Dipole moment (field-independent basis, Debye):
    X=              2.2380    Y=              3.3911    Z=              0.5341  Tot=              4.0980

 Test job not archived.
 1\1\GINC-SE461\SP\RHF\Aug-CC-pVDZ\C3H7N1O2S1\OHZDE\08-Apr-2025\0\\#t h
 f aug-cc-pvdz iop(5/13=1,5/36=2,99/5=2) pseudo=read geom=check guess=(
 read,tcheck) scf=(maxcycle=1)\\title\\0,1\C,0,1.038623,0.062329,0.9735
 65\C,0,-0.372887,0.590102,0.685413\N,0,-0.462326,1.795932,-0.144807\C,
 0,-1.265209,-0.5136,0.07101\H,0,-0.841138,0.819991,1.651074\O,0,-1.143
 821,-1.679795,0.340445\O,0,-2.199476,-0.040914,-0.75836\H,0,-2.011203,
 0.921273,-0.832414\H,0,0.244539,1.762117,-0.8769\H,0,-0.318639,2.64043
 ,0.39628\S,0,2.034204,-0.272615,-0.534737\H,0,0.981682,-0.847747,1.567

 Normal termination of Gaussian 16 at Tue Apr  8 23:15:16 2025.
