 Gaussian 16, Revision C.01,

 ----------------------------------------------------------------------
 #t hf aug-cc-pvdz symm=none int=(grid=ultrafine) guess=(read,tcheck) s
 table=(opt,rrhf)
 ----------------------------------------------------------------------
 -----
 title
 -----
 Symbolic Z-matrix:
 Charge =  0 Multiplicity = 1

 SCF Done:  E(RHF) =  -593.985238252     A.U. after   12 cycles
 Normal termination of Gaussian 16 at Wed Apr  9 00:08:49 2025.
 Gaussian 16:  ES64L-G16RevC.01  3-Jul-2019

 ----------------------------------------------------------------------
 #t hf aug-cc-pvdz iop(5/13=1,5/36=2,99/5=2) pseudo=read geom=check gue
 ss=(read,tcheck) scf=(maxcycle=1)
 ----------------------------------------------------------------------
 -----
 title
 -----
 Structure from the checkpoint file:  "BDE49_nonexpt_2275_mol1.chk"
 Charge =  0 Multiplicity = 1

                         Standard orientation:
 ---------------------------------------------------------------------
 Center     Atomic      Atomic             Coordinates (Angstroms)
 Number     Number       Type             X           Y           Z
 ---------------------------------------------------------------------
      1         14           0       -0.025155    0.272008    0.667300
      2          8           0        0.069902    1.550746   -0.385937
      3          1           0        0.940842    1.639270   -0.790519
      4          6           0        1.266374   -0.977616    0.071978
      5          8           0        2.369713   -0.165350   -0.383234
      6          1           0        0.847107   -1.576181   -0.747371
      7          1           0        1.575414   -1.663365    0.872006
      8          1           0        3.048476   -0.739506   -0.750130
      9          6           0       -1.784798   -0.367568    0.460047
     10          8           0       -2.057197   -0.550358   -0.940145
     11          1           0       -2.517173    0.305957    0.928863
     12          1           0       -1.914787   -1.344401    0.935423
     13          1           0       -1.830226    0.279515   -1.375616
     14          1           0        0.253719    0.681399    2.067530
 ---------------------------------------------------------------------

 SCF Done:  E(RHF) =  -595.469809680     A.U. after    2 cycles

 The electronic state is 1-A.
 Alpha  occ. eigenvalues --  -76.21794 -21.08437 -21.06580 -21.06555 -11.39147
 Alpha  occ. eigenvalues --  -11.38173  -5.56081  -2.22645  -2.20061  -2.18540
 Alpha  occ. eigenvalues --   -1.71461  -1.69530  -1.64958  -0.99637  -0.95618
 Alpha  occ. eigenvalues --   -0.72069  -0.65449  -0.62957  -0.61926  -0.56901
 Alpha  occ. eigenvalues --   -0.53619  -0.53364  -0.46443  -0.42515  -0.39348
 Alpha  occ. eigenvalues --   -0.38973  -0.36782  -0.33605  -0.29831
 Alpha virt. eigenvalues --    0.03576   0.04842   0.05435   0.06181   0.06521
 Alpha virt. eigenvalues --    0.06704   0.07143   0.07769   0.08361   0.08961
 Alpha virt. eigenvalues --    0.11301   0.13316   0.13831   0.14431   0.15044

 Mulliken charges:
               1
     1  Si   6.130272
     2  O   -2.869992
     3  H    1.278883
     4  C   -2.441424
     5  O   -2.289117
     6  H    1.348695
     7  H    1.402319
     8  H    0.809332
     9  C   -2.480956
    10  O   -2.373565
    11  H    1.422877
    12  H    1.288380
    13  H    0.908598
    14  H   -2.134303
 Sum of Mulliken charges =  -0.00000

 Dipole moment (field-independent basis, Debye):
    X=              0.8458    Y=             -0.6328    Z=             -0.3669  Tot=              1.1182

 Test job not archived.
 1\1\GINC-SE150\SP\RHF\Aug-CC-pVDZ\C2H8O3Si1\OHZDE\09-Apr-2025\0\\#t hf
  aug-cc-pvdz iop(5/13=1,5/36=2,99/5=2) pseudo=read geom=check guess=(r
 ead,tcheck) scf=(maxcycle=1)\\title\\0,1\Si,0,-0.025155,0.272008,0.667
 3\O,0,0.069902,1.550746,-0.385937\H,0,0.940842,1.63927,-0.790519\C,0,1
 .266374,-0.977616,0.071978\O,0,2.369713,-0.16535,-0.383234\H,0,0.84710
 7,-1.576181,-0.747371\H,0,1.575414,-1.663365,0.872006\H,0,3.048476,-0.
 739506,-0.75013\C,0,-1.784798,-0.367568,0.460047\O,0,-2.057197,-0.5503
 58,-0.940145\H,0,-2.517173,0.305957,0.928863\H,0,-1.914787,-1.344401,0

 Normal termination of Gaussian 16 at Wed Apr  9 00:08:53 2025.
