 Gaussian 16, Revision C.01,

 ----------------------------------------------------------------------
 #t hf aug-cc-pvdz symm=none int=(grid=ultrafine) guess=(read,tcheck) s
 table=(opt,rrhf)
 ----------------------------------------------------------------------
 -----
 title
 -----
 Symbolic Z-matrix:
 Charge =  0 Multiplicity = 1

 SCF Done:  E(RHF) =  -1195.96405417     A.U. after   15 cycles
 Normal termination of Gaussian 16 at Tue Apr  8 23:18:58 2025.
 Gaussian 16:  ES64L-G16RevC.01  3-Jul-2019

 ----------------------------------------------------------------------
 #t hf aug-cc-pvdz iop(5/13=1,5/36=2,99/5=2) pseudo=read geom=check gue
 ss=(read,tcheck) scf=(maxcycle=1)
 ----------------------------------------------------------------------
 -----
 title
 -----
 Structure from the checkpoint file:  "BDE49_nonexpt_1063_mol1.chk"
 Charge =  0 Multiplicity = 1

                         Standard orientation:
 ---------------------------------------------------------------------
 Center     Atomic      Atomic             Coordinates (Angstroms)
 Number     Number       Type             X           Y           Z
 ---------------------------------------------------------------------
      1         17           0        2.159633    0.424893   -0.016325
      2          8           0        0.747873   -0.044057    0.886298
      3         16           0       -0.521822   -0.607368   -0.027572
      4          8           0       -1.454262   -0.933168    1.003577
      5          8           0       -0.968548    0.700720   -0.806675
      6          6           0       -1.559970    1.784304   -0.033178
      7          1           0       -1.851560    2.520469   -0.777708
      8          1           0       -0.816853    2.199766    0.647584
      9          1           0       -2.427132    1.418504    0.514169
     10          8           0       -0.063719   -1.517226   -1.016488
 ---------------------------------------------------------------------

 SCF Done:  E(RHF) =  -1197.91065951     A.U. after    2 cycles

 The electronic state is 1-A.
 Alpha  occ. eigenvalues --  -99.97904 -75.97047 -21.16315 -21.13368 -21.09518
 Alpha  occ. eigenvalues --  -21.09384 -13.61121 -13.51600 -13.44309 -11.45490
 Alpha  occ. eigenvalues --  -10.54548  -9.74397  -9.73604  -9.73482  -8.32392
 Alpha  occ. eigenvalues --   -1.97935  -1.80964  -1.76056  -1.70310  -1.28969
 Alpha  occ. eigenvalues --   -1.07133  -0.91502  -0.71466  -0.69011  -0.67356
 Alpha  occ. eigenvalues --   -0.65358  -0.62719  -0.60209  -0.54559  -0.54361
 Alpha  occ. eigenvalues --   -0.46704  -0.46106  -0.44519  -0.40891  -0.40376
 Alpha  occ. eigenvalues --   -0.40057  -0.38816
 Alpha virt. eigenvalues --    0.00494   0.02805   0.05438   0.05972   0.07725
 Alpha virt. eigenvalues --    0.09735   0.10575   0.11231   0.12298   0.13691
 Alpha virt. eigenvalues --    0.13925   0.15280   0.16140   0.16580   0.17830

 Mulliken charges:
               1
     1  Cl   0.500882
     2  O   -2.061533
     3  S    8.311843
     4  O   -2.435727
     5  O   -3.022186
     6  C   -2.887515
     7  H    1.299381
     8  H    1.348704
     9  H    1.416372
    10  O   -2.470221
 Sum of Mulliken charges =  -0.00000

 Dipole moment (field-independent basis, Debye):
    X=             -2.0725    Y=              2.0957    Z=              0.6090  Tot=              3.0097

 Test job not archived.
 1\1\GINC-SE363\SP\RHF\Aug-CC-pVDZ\C1H3Cl1O4S1\OHZDE\08-Apr-2025\0\\#t
 hf aug-cc-pvdz iop(5/13=1,5/36=2,99/5=2) pseudo=read geom=check guess=
 (read,tcheck) scf=(maxcycle=1)\\title\\0,1\Cl,0,2.159633,0.424892,-0.0
 16325\O,0,0.747873,-0.044057,0.886298\S,0,-0.521822,-0.607368,-0.02757
 2\O,0,-1.454262,-0.933168,1.003577\O,0,-0.968548,0.70072,-0.806675\C,0
 ,-1.55997,1.784304,-0.033178\H,0,-1.851559,2.520469,-0.777708\H,0,-0.8
 16852,2.199766,0.647584\H,0,-2.427132,1.418505,0.514169\O,0,-0.063719,
 -1.517226,-1.016488\\Version=ES64L-G16RevC.01\State=1-A\HF=-1197.91065

 Normal termination of Gaussian 16 at Tue Apr  8 23:19:02 2025.
