 Gaussian 16, Revision C.01,

 ----------------------------------------------------------------------
 #t hf aug-cc-pvdz symm=none int=(grid=ultrafine) guess=(read,tcheck) s
 table=opt
 ----------------------------------------------------------------------
 -----
 title
 -----
 Symbolic Z-matrix:
 Charge =  0 Multiplicity = 2

 SCF Done:  E(UHF) =  -419.957252923     A.U. after   14 cycles
 Normal termination of Gaussian 16 at Tue Apr  8 23:28:01 2025.
 Gaussian 16:  ES64L-G16RevC.01  3-Jul-2019

 ----------------------------------------------------------------------
 #t hf aug-cc-pvdz iop(5/13=1,5/36=2,99/5=2) pseudo=read geom=check gue
 ss=(read,tcheck) scf=(maxcycle=1)
 ----------------------------------------------------------------------
 -----
 title
 -----
 Structure from the checkpoint file:  "BDE49_nonexpt_1296_mol3.chk"
 Charge =  0 Multiplicity = 2

                         Standard orientation:
 ---------------------------------------------------------------------
 Center     Atomic      Atomic             Coordinates (Angstroms)
 Number     Number       Type             X           Y           Z
 ---------------------------------------------------------------------
      1         15           0       -0.000000   -0.000000    0.704938
      2          6           0        0.000000    1.408246   -0.504227
      3          6           0       -0.000000   -1.408246   -0.504227
      4          1           0        0.885603   -1.376601   -1.148491
      5          1           0       -0.885603   -1.376600   -1.148491
      6          1           0       -0.000000   -2.357400    0.035305
      7          1           0       -0.885603    1.376601   -1.148491
      8          1           0        0.885603    1.376600   -1.148491
      9          1           0        0.000000    2.357400    0.035305
 ---------------------------------------------------------------------

 SCF Done:  E(UHF) =  -420.548724260     A.U. after    2 cycles

 The electronic state is 2-B.
 Alpha  occ. eigenvalues -- -105.15750 -11.36640 -11.36516  -2.74653  -1.46839
 Alpha  occ. eigenvalues --   -1.44709  -1.43962  -1.03153  -0.96501  -0.63125
 Alpha  occ. eigenvalues --   -0.57310  -0.56918  -0.55440  -0.54746  -0.19746
 Alpha  occ. eigenvalues --   -0.06332   0.03670
 Alpha virt. eigenvalues --    0.04749   0.05378   0.06507   0.06751   0.07366
 Alpha virt. eigenvalues --    0.07680   0.09114   0.11483   0.12469   0.15859
 Alpha virt. eigenvalues --    0.17134   0.17357   0.17433   0.17572   0.19324

  Beta  occ. eigenvalues -- -105.15119 -11.36773 -11.36649  -2.72726  -1.44782
  Beta  occ. eigenvalues --   -1.43507  -1.19893  -1.02718  -0.96338  -0.58564
  Beta  occ. eigenvalues --   -0.57183  -0.55904  -0.54633  -0.54629  -0.20843
  Beta  occ. eigenvalues --   -0.03899
  Beta virt. eigenvalues --    0.04757   0.05409   0.06395   0.06821   0.07368
  Beta virt. eigenvalues --    0.07686   0.09619   0.09723   0.11596   0.12959
  Beta virt. eigenvalues --    0.15973   0.17356   0.17557   0.17665   0.18520

 Mulliken charges and spin densities:
               1          2
     1  P    3.888052   1.706136
     2  C   -5.314208  -0.346064
     3  C   -5.314208  -0.346064
     4  H    1.054349   0.007147
     5  H    1.054349   0.007147
     6  H    1.261484  -0.021297
     7  H    1.054349   0.007147
     8  H    1.054349   0.007147
     9  H    1.261484  -0.021297
 Sum of Mulliken charges =  -0.00000   1.00000

 Dipole moment (field-independent basis, Debye):
    X=              0.0000    Y=              0.0000    Z=              1.4429  Tot=              1.4429
                          Isotropic Fermi Contact Couplings
        Atom                 a.u.       MegaHertz       Gauss      10(-4) cm-1
     1  P(31)              0.31247     565.90993     201.93074     188.76723
     2  C(13)             -0.00371      -4.16880      -1.48753      -1.39056
     3  C(13)             -0.00371      -4.16880      -1.48753      -1.39056
     4  H(1)               0.00632      28.25156      10.08086       9.42371
     5  H(1)               0.00632      28.25154      10.08085       9.42370
     6  H(1)               0.00020       0.87588       0.31254       0.29216
     7  H(1)               0.00632      28.25156      10.08086       9.42371
     8  H(1)               0.00632      28.25154      10.08085       9.42370

 Normal termination of Gaussian 16 at Tue Apr  8 23:28:03 2025.
