 Gaussian 16, Revision C.01,

 ----------------------------------------------------------------------
 #t hf aug-cc-pvdz symm=none int=(grid=ultrafine) guess=(read,tcheck) s
 table=(opt,rrhf)
 ----------------------------------------------------------------------
 -----
 title
 -----
 Symbolic Z-matrix:
 Charge =  0 Multiplicity = 1

 SCF Done:  E(RHF) =  -867.775947405     A.U. after   15 cycles
 Normal termination of Gaussian 16 at Wed Apr  9 00:47:12 2025.
 Gaussian 16:  ES64L-G16RevC.01  3-Jul-2019

 ----------------------------------------------------------------------
 #t hf aug-cc-pvdz iop(5/13=1,5/36=2,99/5=2) pseudo=read geom=check gue
 ss=(read,tcheck) scf=(maxcycle=1)
 ----------------------------------------------------------------------
 -----
 title
 -----
 Structure from the checkpoint file:  "BDE49_nonexpt_812_mol1.chk"
 Charge =  0 Multiplicity = 1

                         Standard orientation:
 ---------------------------------------------------------------------
 Center     Atomic      Atomic             Coordinates (Angstroms)
 Number     Number       Type             X           Y           Z
 ---------------------------------------------------------------------
      1         14           0        0.107182   -0.623862    0.000193
      2          5           0       -1.690872    0.316028    0.000050
      3          7           0        1.460673    0.679982    0.000197
      4          8           0       -1.767317    1.661342    0.000408
      5          8           0       -2.781255   -0.483638   -0.000411
      6          8           0        1.067769    1.860121   -0.000742
      7          8           0        2.630205    0.348694   -0.000425
      8          9           0        0.446497   -1.488120    1.288119
      9          9           0        0.446627   -1.488273   -1.287598
     10          1           0       -3.613612    0.007361   -0.000461
     11          1           0       -0.890614    2.082069    0.000799
 ---------------------------------------------------------------------

 SCF Done:  E(RHF) =  -870.139448487     A.U. after    2 cycles

 The electronic state is 1-A.
 Alpha  occ. eigenvalues --  -76.34461 -29.32326 -29.32324 -21.13144 -21.11612
 Alpha  occ. eigenvalues --  -21.09846 -21.08819 -15.98690  -7.69464  -5.70205
 Alpha  occ. eigenvalues --   -2.35301  -2.33694  -2.31592  -2.00076  -1.84441
 Alpha  occ. eigenvalues --   -1.71180  -1.69548  -1.07907  -0.91890  -0.79224
 Alpha  occ. eigenvalues --   -0.75011  -0.72972  -0.67467  -0.66585  -0.64113
 Alpha  occ. eigenvalues --   -0.61235  -0.53051  -0.48664  -0.45811  -0.44719
 Alpha  occ. eigenvalues --   -0.43298  -0.39769  -0.38898  -0.38513  -0.35186
 Alpha  occ. eigenvalues --   -0.33215  -0.32843  -0.32587  -0.31623
 Alpha virt. eigenvalues --    0.03197   0.05077   0.05110   0.06275   0.08037
 Alpha virt. eigenvalues --    0.08379   0.08970   0.09337   0.09806   0.10179
 Alpha virt. eigenvalues --    0.13125   0.14377   0.15940   0.17888   0.19174

 Mulliken charges:
               1
     1  Si   2.258260
     2  B    4.820724
     3  N    4.463433
     4  O   -4.182540
     5  O   -3.701190
     6  O   -2.336261
     7  O   -2.626964
     8  F   -0.851162
     9  F   -0.851238
    10  H    1.166028
    11  H    1.840909
 Sum of Mulliken charges =  -0.00000

 Dipole moment (field-independent basis, Debye):
    X=             -0.6510    Y=             -3.3588    Z=              0.0004  Tot=              3.4214

 Test job not archived.
 1\1\GINC-SE162\SP\RHF\Aug-CC-pVDZ\B1F2H2N1O4Si1\OHZDE\09-Apr-2025\0\\#
 t hf aug-cc-pvdz iop(5/13=1,5/36=2,99/5=2) pseudo=read geom=check gues
 s=(read,tcheck) scf=(maxcycle=1)\\title\\0,1\Si,0,-0.107182,-0.623862,
 -0.000193\B,0,1.690872,0.316028,-0.00005\N,0,-1.460673,0.679982,-0.000
 197\O,0,1.767317,1.661342,-0.000408\O,0,2.781255,-0.483638,0.000411\O,
 0,-1.067769,1.860121,0.000742\O,0,-2.630205,0.348694,0.000425\F,0,-0.4
 46497,-1.48812,-1.288119\F,0,-0.446627,-1.488273,1.287598\H,0,3.613612
 ,0.00736,0.000461\H,0,0.890614,2.082069,-0.000799\\Version=ES64L-G16Re

 Normal termination of Gaussian 16 at Wed Apr  9 00:47:18 2025.
