 Gaussian 16, Revision C.01,

 ----------------------------------------------------------------------
 #t hf aug-cc-pvdz symm=none int=(grid=ultrafine) guess=(read,tcheck) s
 table=(opt,rrhf)
 ----------------------------------------------------------------------
 -----
 title
 -----
 Symbolic Z-matrix:
 Charge =  0 Multiplicity = 1

 SCF Done:  E(RHF) =  -749.727541766     A.U. after   12 cycles
 Normal termination of Gaussian 16 at Tue Apr  8 23:41:33 2025.
 Gaussian 16:  ES64L-G16RevC.01  3-Jul-2019

 ----------------------------------------------------------------------
 #t hf aug-cc-pvdz iop(5/13=1,5/36=2,99/5=2) pseudo=read geom=check gue
 ss=(read,tcheck) scf=(maxcycle=1)
 ----------------------------------------------------------------------
 -----
 title
 -----
 Structure from the checkpoint file:  "BDE49_nonexpt_1638_mol1.chk"
 Charge =  0 Multiplicity = 1

                         Standard orientation:
 ---------------------------------------------------------------------
 Center     Atomic      Atomic             Coordinates (Angstroms)
 Number     Number       Type             X           Y           Z
 ---------------------------------------------------------------------
      1         15           0       -1.917349   -0.136421   -0.000000
      2         14           0        0.371442    0.008678    0.000000
      3          6           0        0.984261    1.790731    0.000000
      4          1           0        0.632899    2.330950    0.883537
      5          1           0        0.632899    2.330950   -0.883537
      6          6           0        0.984261   -0.879582   -1.544943
      7          1           0        2.079247    1.823805    0.000000
      8          1           0        2.078689   -0.879641   -1.579767
      9          1           0        0.648918   -1.920258   -1.565949
     10          1           0        0.623849   -0.393051   -2.456027
     11          6           0        0.984261   -0.879582    1.544943
     12          1           0        0.623849   -0.393051    2.456027
     13          1           0        2.078689   -0.879641    1.579767
     14          1           0        0.648918   -1.920258    1.565949
     15          1           0       -2.102302    0.817809   -1.036336
     16          1           0       -2.102302    0.817809    1.036336
 ---------------------------------------------------------------------

 SCF Done:  E(RHF) =  -750.728436807     A.U. after    2 cycles

 The electronic state is 1-A'.
 Alpha  occ. eigenvalues -- -105.16113 -76.20168 -11.34714 -11.34671 -11.34564
 Alpha  occ. eigenvalues --   -5.54159  -2.72747  -2.17662  -2.17625  -2.15906
 Alpha  occ. eigenvalues --   -1.42834  -1.42708  -1.40529  -1.07513  -1.01050
 Alpha  occ. eigenvalues --   -1.01048  -0.73621  -0.61213  -0.56593  -0.56546
 Alpha  occ. eigenvalues --   -0.56335  -0.54677  -0.54676  -0.53469  -0.39724
 Alpha  occ. eigenvalues --   -0.39626  -0.25372  -0.13908  -0.02508
 Alpha virt. eigenvalues --    0.03046   0.05455   0.05714   0.06132   0.06680
 Alpha virt. eigenvalues --    0.06783   0.07061   0.07249   0.07609   0.08157
 Alpha virt. eigenvalues --    0.09907   0.10506   0.10714   0.10893   0.11858

 Mulliken charges:
               1
     1  P    1.494554
     2  Si   5.774371
     3  C   -5.611247
     4  H    1.163750
     5  H    1.163750
     6  C   -5.608853
     7  H    1.331460
     8  H    1.240813
     9  H    1.161970
    10  H    1.233668
    11  C   -5.608853
    12  H    1.233668
    13  H    1.240813
    14  H    1.161970
    15  H   -0.685917
    16  H   -0.685917
 Sum of Mulliken charges =  -0.00000

 Dipole moment (field-independent basis, Debye):
    X=             -2.7409    Y=             -4.5917    Z=             -0.0000  Tot=              5.3475

 Test job not archived.
 1\1\GINC-SE253\SP\RHF\Aug-CC-pVDZ\C3H11P1Si1\OHZDE\08-Apr-2025\0\\#t h
 f aug-cc-pvdz iop(5/13=1,5/36=2,99/5=2) pseudo=read geom=check guess=(
 read,tcheck) scf=(maxcycle=1)\\title\\0,1\P,0,-1.917349,-0.136421,0.\S
 i,0,0.371442,0.008678,0.\C,0,0.984261,1.790731,0.\H,0,0.632899,2.33095
 ,0.883537\H,0,0.632899,2.33095,-0.883537\C,0,0.984261,-0.879582,-1.544
 943\H,0,2.079247,1.823805,0.\H,0,2.078689,-0.879641,-1.579767\H,0,0.64
 8918,-1.920258,-1.565949\H,0,0.623849,-0.393051,-2.456027\C,0,0.984261
 ,-0.879582,1.544943\H,0,0.623849,-0.393051,2.456027\H,0,2.078689,-0.87

 Normal termination of Gaussian 16 at Tue Apr  8 23:41:37 2025.
