 Gaussian 16, Revision C.01,

 ----------------------------------------------------------------------
 #t hf aug-cc-pvdz symm=none int=(grid=ultrafine) guess=(read,tcheck) s
 table=(opt,rrhf)
 ----------------------------------------------------------------------
 -----
 title
 -----
 Symbolic Z-matrix:
 Charge =  0 Multiplicity = 1

 SCF Done:  E(RHF) =  -496.924061264     A.U. after   13 cycles
 Normal termination of Gaussian 16 at Wed Apr  9 00:07:31 2025.
 Gaussian 16:  ES64L-G16RevC.01  3-Jul-2019

 ----------------------------------------------------------------------
 #t hf aug-cc-pvdz iop(5/13=1,5/36=2,99/5=2) pseudo=read geom=check gue
 ss=(read,tcheck) scf=(maxcycle=1)
 ----------------------------------------------------------------------
 -----
 title
 -----
 Structure from the checkpoint file:  "BDE49_nonexpt_2261_mol1.chk"
 Charge =  0 Multiplicity = 1

                         Standard orientation:
 ---------------------------------------------------------------------
 Center     Atomic      Atomic             Coordinates (Angstroms)
 Number     Number       Type             X           Y           Z
 ---------------------------------------------------------------------
      1         14           0       -1.662679   -0.409724    0.065832
      2          8           0       -0.522955    0.695180   -0.434589
      3          6           0        0.697204    0.995229    0.203686
      4          6           0        1.703989   -0.068058    0.041187
      5          1           0        0.562014    1.176468    1.278109
      6          1           0        1.091342    1.912722   -0.240219
      7          7           0        2.485007   -0.906296   -0.080624
      8          1           0       -2.847899   -0.140657   -0.766153
      9          1           0       -1.957494   -0.195162    1.503682
     10          1           0       -1.189025   -1.797627   -0.125232
 ---------------------------------------------------------------------

 SCF Done:  E(RHF) =  -497.986433111     A.U. after    2 cycles

 The electronic state is 1-A.
 Alpha  occ. eigenvalues --  -76.25408 -21.07745 -15.77335 -11.50226 -11.43535
 Alpha  occ. eigenvalues --   -5.58966  -2.25442  -2.20802  -2.20498  -1.73958
 Alpha  occ. eigenvalues --   -1.31509  -1.07453  -0.78413  -0.72723  -0.67894
 Alpha  occ. eigenvalues --   -0.59272  -0.53754  -0.50414  -0.49858  -0.45481
 Alpha  occ. eigenvalues --   -0.44592  -0.39161  -0.38162
 Alpha virt. eigenvalues --    0.02913   0.04603   0.05688   0.05928   0.06427
 Alpha virt. eigenvalues --    0.07617   0.08802   0.09199   0.09859   0.11778
 Alpha virt. eigenvalues --    0.12481   0.13322   0.13663   0.14767   0.15340

 Mulliken charges:
               1
     1  Si   6.426449
     2  O   -2.927347
     3  C   -1.190661
     4  C    2.082983
     5  H    1.496083
     6  H    1.331727
     7  N   -2.264100
     8  H   -1.612829
     9  H   -1.673291
    10  H   -1.669015
 Sum of Mulliken charges =   0.00000

 Dipole moment (field-independent basis, Debye):
    X=             -1.9815    Y=              2.4449    Z=              0.3512  Tot=              3.1666

 Test job not archived.
 1\1\GINC-SE331\SP\RHF\Aug-CC-pVDZ\C2H5N1O1Si1\OHZDE\09-Apr-2025\0\\#t
 hf aug-cc-pvdz iop(5/13=1,5/36=2,99/5=2) pseudo=read geom=check guess=
 (read,tcheck) scf=(maxcycle=1)\\title\\0,1\Si,0,-1.662679,-0.409724,0.
 065832\O,0,-0.522955,0.69518,-0.434589\C,0,0.697204,0.995229,0.203686\
 C,0,1.703989,-0.068058,0.041187\H,0,0.562014,1.176468,1.278109\H,0,1.0
 91342,1.912722,-0.240219\N,0,2.485007,-0.906296,-0.080624\H,0,-2.84789
 9,-0.140657,-0.766153\H,0,-1.957494,-0.195162,1.503682\H,0,-1.189025,-
 1.797627,-0.125232\\Version=ES64L-G16RevC.01\State=1-A\HF=-497.9864331

 Normal termination of Gaussian 16 at Wed Apr  9 00:07:33 2025.
