 Gaussian 16, Revision C.01,

 ----------------------------------------------------------------------
 #t hf aug-cc-pvdz symm=none int=(grid=ultrafine) guess=(read,tcheck) s
 table=(opt,rrhf)
 ----------------------------------------------------------------------
 -----
 title
 -----
 Symbolic Z-matrix:
 Charge =  0 Multiplicity = 1

 SCF Done:  E(RHF) =  -1381.72298855     A.U. after   14 cycles
 Normal termination of Gaussian 16 at Wed Apr  9 00:40:46 2025.
 Gaussian 16:  ES64L-G16RevC.01  3-Jul-2019

 ----------------------------------------------------------------------
 #t hf aug-cc-pvdz iop(5/13=1,5/36=2,99/5=2) pseudo=read geom=check gue
 ss=(read,tcheck) scf=(maxcycle=1)
 ----------------------------------------------------------------------
 -----
 title
 -----
 Structure from the checkpoint file:  "BDE49_nonexpt_635_mol1.chk"
 Charge =  0 Multiplicity = 1

                         Standard orientation:
 ---------------------------------------------------------------------
 Center     Atomic      Atomic             Coordinates (Angstroms)
 Number     Number       Type             X           Y           Z
 ---------------------------------------------------------------------
      1          8           0        1.174517    0.633278   -0.465204
      2          5           0        2.349337   -0.059357   -0.104971
      3          8           0        3.396411    0.769931    0.109688
      4          8           0        2.435057   -1.405810    0.006105
      5          8           0        0.103988   -0.326356   -0.695852
      6          6           0       -0.936607   -0.017323    0.152811
      7          9           0       -0.548981   -0.098936    1.439851
      8         17           0       -2.142104   -1.287287   -0.182974
      9         17           0       -1.615014    1.610219   -0.119174
     10          1           0        4.196629    0.289695    0.341354
     11          1           0        1.608376   -1.856737   -0.193392
 ---------------------------------------------------------------------

 SCF Done:  E(RHF) =  -1384.01545984     A.U. after    2 cycles

 The electronic state is 1-A.
 Alpha  occ. eigenvalues --  -99.93224 -99.92352 -29.33312 -21.16617 -21.11918
 Alpha  occ. eigenvalues --  -21.08161 -21.07546 -11.61104 -10.50672 -10.49786
 Alpha  occ. eigenvalues --   -9.70557  -9.69725  -9.69645  -9.69562  -9.68801
 Alpha  occ. eigenvalues --   -9.68736  -7.69154  -2.05443  -1.83863  -1.69204
 Alpha  occ. eigenvalues --   -1.56584  -1.38892  -1.32838  -1.09458  -0.82968
 Alpha  occ. eigenvalues --   -0.79117  -0.75812  -0.72092  -0.66895  -0.64127
 Alpha  occ. eigenvalues --   -0.59154  -0.56405  -0.55299  -0.53856  -0.52193
 Alpha  occ. eigenvalues --   -0.51792  -0.44639  -0.44463  -0.43041  -0.39005
 Alpha  occ. eigenvalues --   -0.38009  -0.36664  -0.33160  -0.30480
 Alpha virt. eigenvalues --    0.02428   0.03503   0.05087   0.05889   0.06231
 Alpha virt. eigenvalues --    0.06598   0.07616   0.08286   0.09907   0.10459
 Alpha virt. eigenvalues --    0.12145   0.13350   0.14809   0.14920   0.15492

 Mulliken charges:
               1
     1  O   -2.531481
     2  B    8.090865
     3  O   -3.708340
     4  O   -3.825472
     5  O   -1.587660
     6  C    0.389290
     7  F    0.875562
     8  Cl  -0.024264
     9  Cl   0.102926
    10  H    0.851709
    11  H    1.366866
 Sum of Mulliken charges =  -0.00000

 Dipole moment (field-independent basis, Debye):
    X=              2.9215    Y=             -1.4039    Z=              3.1568  Tot=              4.5245

 Test job not archived.
 1\1\GINC-SE159\SP\RHF\Aug-CC-pVDZ\C1H2B1Cl2F1O4\OHZDE\09-Apr-2025\0\\#
 t hf aug-cc-pvdz iop(5/13=1,5/36=2,99/5=2) pseudo=read geom=check gues
 s=(read,tcheck) scf=(maxcycle=1)\\title\\0,1\O,0,1.174517,0.633278,-0.
 465204\B,0,2.349337,-0.059357,-0.104971\O,0,3.396411,0.769931,0.109688
 \O,0,2.435057,-1.40581,0.006105\O,0,0.103988,-0.326356,-0.695852\C,0,-
 0.936607,-0.017323,0.152811\F,0,-0.548981,-0.098936,1.439851\Cl,0,-2.1
 42104,-1.287286,-0.182974\Cl,0,-1.615014,1.610219,-0.119174\H,0,4.1966
 29,0.289694,0.341354\H,0,1.608376,-1.856737,-0.193392\\Version=ES64L-G

 Normal termination of Gaussian 16 at Wed Apr  9 00:40:52 2025.
