 Gaussian 16, Revision C.01,

 ----------------------------------------------------------------------
 #t hf aug-cc-pvdz symm=none int=(grid=ultrafine) guess=(read,tcheck) s
 table=(opt,rrhf)
 ----------------------------------------------------------------------
 -----
 title
 -----
 Symbolic Z-matrix:
 Charge =  0 Multiplicity = 1

 SCF Done:  E(RHF) =  -156.125911390     A.U. after   11 cycles
 Normal termination of Gaussian 16 at Tue Apr  8 23:06:46 2025.
 Gaussian 16:  ES64L-G16RevC.01  3-Jul-2019

 ----------------------------------------------------------------------
 #t hf aug-cc-pvdz iop(5/13=1,5/36=2,99/5=2) pseudo=read geom=check gue
 ss=(read,tcheck) scf=(maxcycle=1)
 ----------------------------------------------------------------------
 -----
 title
 -----
 Structure from the checkpoint file:  "BDE49_expt_39_mol1.chk"
 Charge =  0 Multiplicity = 1

                         Standard orientation:
 ---------------------------------------------------------------------
 Center     Atomic      Atomic             Coordinates (Angstroms)
 Number     Number       Type             X           Y           Z
 ---------------------------------------------------------------------
      1          6           0       -0.000000    0.663468    0.667202
      2          6           0       -0.000000    0.663468   -0.667202
      3          6           0        0.000000   -0.521741    1.589833
      4          1           0       -0.000000    1.631382    1.165003
      5          1           0       -0.878133   -0.503254    2.245325
      6          1           0        0.878135   -0.503256    2.245323
      7          1           0       -0.000002   -1.475235    1.059771
      8          6           0        0.000000   -0.521741   -1.589833
      9          1           0       -0.878133   -0.503254   -2.245325
     10          1           0       -0.000002   -1.475235   -1.059771
     11          1           0        0.878135   -0.503256   -2.245323
     12          1           0       -0.000000    1.631382   -1.165003
 ---------------------------------------------------------------------

 SCF Done:  E(RHF) =  -156.932456921     A.U. after    2 cycles

 The electronic state is 1-A'.
 Alpha  occ. eigenvalues --  -11.42512 -11.38767 -11.38343 -11.35084  -1.22215
 Alpha  occ. eigenvalues --   -1.06196  -0.93721  -0.74279  -0.65052  -0.56627
 Alpha  occ. eigenvalues --   -0.54859  -0.54703  -0.53125  -0.47818  -0.44336
 Alpha  occ. eigenvalues --   -0.32399
 Alpha virt. eigenvalues --    0.03410   0.05567   0.05943   0.06006   0.06154
 Alpha virt. eigenvalues --    0.06688   0.07131   0.09421   0.11635   0.12862
 Alpha virt. eigenvalues --    0.13853   0.14005   0.14621   0.15315   0.15630

 Mulliken charges:
               1
     1  C   -0.674982
     2  C   -0.674982
     3  C   -4.393207
     4  H    1.391931
     5  H    1.147565
     6  H    1.147565
     7  H    1.381128
     8  C   -4.393207
     9  H    1.147565
    10  H    1.381128
    11  H    1.147565
    12  H    1.391931
 Sum of Mulliken charges =  -0.00000

 Dipole moment (field-independent basis, Debye):
    X=             -0.0000    Y=             -0.1738    Z=              0.0000  Tot=              0.1738

 Test job not archived.
 1\1\GINC-SE435\SP\RHF\Aug-CC-pVDZ\C4H8\OHZDE\08-Apr-2025\0\\#t hf aug-
 cc-pvdz iop(5/13=1,5/36=2,99/5=2) pseudo=read geom=check guess=(read,t
 check) scf=(maxcycle=1)\\title\\0,1\C,0,0.,0.663468,0.667202\C,0,0.,0.
 663468,-0.667202\C,0,0.,-0.521741,1.589833\H,0,0.,1.631382,1.165003\H,
 0,-0.878133,-0.503254,2.245325\H,0,0.878135,-0.503256,2.245323\H,0,-0.
 000002,-1.475235,1.059771\C,0,0.,-0.521741,-1.589833\H,0,-0.878133,-0.
 503254,-2.245325\H,0,-0.000002,-1.475235,-1.059771\H,0,0.878135,-0.503
 256,-2.245323\H,0,0.,1.631382,-1.165003\\Version=ES64L-G16RevC.01\Stat

 Normal termination of Gaussian 16 at Tue Apr  8 23:06:48 2025.
