 Gaussian 16, Revision C.01,

 ----------------------------------------------------------------------
 #t hf aug-cc-pvdz symm=none int=(grid=ultrafine) guess=(read,tcheck) s
 table=(opt,rrhf)
 ----------------------------------------------------------------------
 -----
 title
 -----
 Symbolic Z-matrix:
 Charge =  0 Multiplicity = 1

 SCF Done:  E(RHF) =  -1465.04616151     A.U. after   13 cycles
 Normal termination of Gaussian 16 at Tue Apr  8 23:37:12 2025.
 Gaussian 16:  ES64L-G16RevC.01  3-Jul-2019

 ----------------------------------------------------------------------
 #t hf aug-cc-pvdz iop(5/13=1,5/36=2,99/5=2) pseudo=read geom=check gue
 ss=(read,tcheck) scf=(maxcycle=1)
 ----------------------------------------------------------------------
 -----
 title
 -----
 Structure from the checkpoint file:  "BDE49_nonexpt_1513_mol1.chk"
 Charge =  0 Multiplicity = 1

                         Standard orientation:
 ---------------------------------------------------------------------
 Center     Atomic      Atomic             Coordinates (Angstroms)
 Number     Number       Type             X           Y           Z
 ---------------------------------------------------------------------
      1         15           0        0.218944    0.112645   -0.813622
      2          7           0       -1.095060   -0.796029   -0.108197
      3          8           0       -1.117730   -0.851117    1.294967
      4          8           0       -2.264085   -0.109972   -0.555689
      5         17           0        0.318162    1.851400    0.360944
      6         17           0        1.768869   -1.017357    0.021007
      7          1           0       -2.808604   -0.816081   -0.926461
      8          1           0       -1.235125   -1.791413    1.480784
 ---------------------------------------------------------------------

 SCF Done:  E(RHF) =  -1466.56309759     A.U. after    2 cycles

 The electronic state is 1-A.
 Alpha  occ. eigenvalues -- -105.29967 -99.90608 -99.89922 -21.13218 -21.12861
 Alpha  occ. eigenvalues --  -15.83273 -10.47958 -10.47234  -9.67798  -9.67112
 Alpha  occ. eigenvalues --   -9.67073  -9.66982  -9.66379  -9.66321  -2.88125
 Alpha  occ. eigenvalues --   -1.89470  -1.71446  -1.60400  -1.56092  -1.54468
 Alpha  occ. eigenvalues --   -1.26410  -1.22596  -1.05164  -0.75438  -0.69593
 Alpha  occ. eigenvalues --   -0.65339  -0.56614  -0.55605  -0.53565  -0.51671
 Alpha  occ. eigenvalues --   -0.51270  -0.51056  -0.45980  -0.35747  -0.35202
 Alpha  occ. eigenvalues --   -0.33822  -0.10785
 Alpha virt. eigenvalues --    0.03732   0.05764   0.08127   0.08320   0.09098
 Alpha virt. eigenvalues --    0.12170   0.13204   0.14115   0.15020   0.15372
 Alpha virt. eigenvalues --    0.16396   0.16683   0.18005   0.18196   0.19145

 Mulliken charges:
               1
     1  P    3.455380
     2  N    1.934765
     3  O   -2.347054
     4  O   -2.192384
     5  Cl  -1.225981
     6  Cl  -1.209691
     7  H    0.801488
     8  H    0.783478
 Sum of Mulliken charges =   0.00000

 Dipole moment (field-independent basis, Debye):
    X=             -3.1232    Y=             -1.3592    Z=             -4.6765  Tot=              5.7854

 Test job not archived.
 1\1\GINC-SE229\SP\RHF\Aug-CC-pVDZ\Cl2H2N1O2P1\OHZDE\08-Apr-2025\0\\#t
 hf aug-cc-pvdz iop(5/13=1,5/36=2,99/5=2) pseudo=read geom=check guess=
 (read,tcheck) scf=(maxcycle=1)\\title\\0,1\P,0,0.218944,0.112645,-0.81
 3622\N,0,-1.09506,-0.796029,-0.108197\O,0,-1.11773,-0.851117,1.294967\
 O,0,-2.264085,-0.109972,-0.555689\Cl,0,0.318162,1.8514,0.360944\Cl,0,1
 .768869,-1.017357,0.021007\H,0,-2.808604,-0.816081,-0.926461\H,0,-1.23
 5125,-1.791413,1.480784\\Version=ES64L-G16RevC.01\State=1-A\HF=-1466.5
 630976\RMSD=6.988e-02\Dipole=-1.2287577,-0.5347405,-1.8398794\Quadrupo

 Normal termination of Gaussian 16 at Tue Apr  8 23:37:16 2025.
