 Gaussian 16, Revision C.01,

 ----------------------------------------------------------------------
 #t hf aug-cc-pvdz symm=none int=(grid=ultrafine) guess=(read,tcheck) s
 table=(opt,rrhf)
 ----------------------------------------------------------------------
 -----
 title
 -----
 Symbolic Z-matrix:
 Charge =  0 Multiplicity = 1

 SCF Done:  E(RHF) =  -737.033240671     A.U. after   15 cycles
 Normal termination of Gaussian 16 at Tue Apr  8 22:58:43 2025.
 Gaussian 16:  ES64L-G16RevC.01  3-Jul-2019

 ----------------------------------------------------------------------
 #t hf aug-cc-pvdz iop(5/13=1,5/36=2,99/5=2) pseudo=read geom=check gue
 ss=(read,tcheck) scf=(maxcycle=1)
 ----------------------------------------------------------------------
 -----
 title
 -----
 Structure from the checkpoint file:  "BDE49_expt_1916_mol1.chk"
 Charge =  0 Multiplicity = 1

                         Standard orientation:
 ---------------------------------------------------------------------
 Center     Atomic      Atomic             Coordinates (Angstroms)
 Number     Number       Type             X           Y           Z
 ---------------------------------------------------------------------
      1          8           0       -0.947455   -0.421886   -0.789321
      2         16           0        0.462031   -0.150926    0.074850
      3          6           0        0.619564    1.618004   -0.066311
      4          1           0        0.778347    1.860941   -1.114927
      5          1           0        1.477270    1.908070    0.540317
      6          1           0       -0.296395    2.063694    0.316990
      7          8           0        1.446661   -0.815094   -0.725697
      8          8           0        0.207916   -0.499627    1.445614
      9          8           0       -2.061006    0.161375   -0.072387
     10          1           0       -2.238029   -0.524049    0.592209
 ---------------------------------------------------------------------

 SCF Done:  E(RHF) =  -738.734418948     A.U. after    2 cycles

 The electronic state is 1-A.
 Alpha  occ. eigenvalues --  -75.93199 -21.16504 -21.14717 -21.07817 -21.07734
 Alpha  occ. eigenvalues --  -13.56595 -13.45848 -13.37751 -11.44367  -8.28387
 Alpha  occ. eigenvalues --   -2.00908  -1.84501  -1.68310  -1.47496  -1.16382
 Alpha  occ. eigenvalues --   -0.90386  -0.69514  -0.67500  -0.65273  -0.60166
 Alpha  occ. eigenvalues --   -0.57911  -0.56503  -0.46855  -0.44720  -0.40831
 Alpha  occ. eigenvalues --   -0.40695  -0.38922  -0.37969  -0.33846
 Alpha virt. eigenvalues --    0.02818   0.04719   0.05457   0.05963   0.09534
 Alpha virt. eigenvalues --    0.11633   0.11887   0.13007   0.13413   0.15105
 Alpha virt. eigenvalues --    0.15627   0.16597   0.18116   0.19292   0.21123

 Mulliken charges:
               1
     1  O   -1.470171
     2  S    7.065203
     3  C   -4.646522
     4  H    1.339974
     5  H    1.354827
     6  H    1.434252
     7  O   -2.544891
     8  O   -2.547678
     9  O   -0.873416
    10  H    0.888423
 Sum of Mulliken charges =   0.00000

 Dipole moment (field-independent basis, Debye):
    X=             -1.2500    Y=              1.7247    Z=              0.1487  Tot=              2.1352

 Test job not archived.
 1\1\GINC-SE082\SP\RHF\Aug-CC-pVDZ\C1H4O4S1\OHZDE\08-Apr-2025\0\\#t hf
 aug-cc-pvdz iop(5/13=1,5/36=2,99/5=2) pseudo=read geom=check guess=(re
 ad,tcheck) scf=(maxcycle=1)\\title\\0,1\O,0,-0.947455,-0.421886,-0.789
 321\S,0,0.462031,-0.150926,0.07485\C,0,0.619564,1.618004,-0.066311\H,0
 ,0.778347,1.860941,-1.114927\H,0,1.47727,1.90807,0.540317\H,0,-0.29639
 5,2.063694,0.31699\O,0,1.446661,-0.815094,-0.725697\O,0,0.207916,-0.49
 9627,1.445614\O,0,-2.061006,0.161375,-0.072387\H,0,-2.238029,-0.524049
 ,0.592209\\Version=ES64L-G16RevC.01\State=1-A\HF=-738.7344189\RMSD=9.0

 Normal termination of Gaussian 16 at Tue Apr  8 22:58:46 2025.
