 Gaussian 16, Revision C.01,

 ----------------------------------------------------------------------
 #t hf aug-cc-pvdz symm=none int=(grid=ultrafine) guess=(read,tcheck) s
 table=(opt,rrhf)
 ----------------------------------------------------------------------
 -----
 title
 -----
 Symbolic Z-matrix:
 Charge =  0 Multiplicity = 1

 SCF Done:  E(RHF) =  -643.690235946     A.U. after   12 cycles
 Normal termination of Gaussian 16 at Wed Apr  9 00:32:23 2025.
 Gaussian 16:  ES64L-G16RevC.01  3-Jul-2019

 ----------------------------------------------------------------------
 #t hf aug-cc-pvdz iop(5/13=1,5/36=2,99/5=2) pseudo=read geom=check gue
 ss=(read,tcheck) scf=(maxcycle=1)
 ----------------------------------------------------------------------
 -----
 title
 -----
 Structure from the checkpoint file:  "BDE49_nonexpt_362_mol1.chk"
 Charge =  0 Multiplicity = 1

                         Standard orientation:
 ---------------------------------------------------------------------
 Center     Atomic      Atomic             Coordinates (Angstroms)
 Number     Number       Type             X           Y           Z
 ---------------------------------------------------------------------
      1          9           0       -1.773900    1.131653    0.110949
      2          9           0       -1.773902   -1.131652    0.110947
      3          5           0       -1.089527   -0.000000   -0.035482
      4         15           0        0.740075   -0.000001   -0.597366
      5          6           0        1.413035   -1.461111    0.339691
      6          6           0        1.413035    1.461111    0.339690
      7          1           0        0.871744   -2.355683    0.026057
      8          1           0        1.322977   -1.356725    1.423057
      9          1           0        2.465433   -1.597037    0.083158
     10          1           0        0.871744    2.355682    0.026055
     11          1           0        2.465434    1.597036    0.083156
     12          1           0        1.322978    1.356726    1.423055
 ---------------------------------------------------------------------

 SCF Done:  E(RHF) =  -645.079881013     A.U. after    2 cycles

 The electronic state is 1-A.
 Alpha  occ. eigenvalues -- -105.16267 -29.25939 -29.25850 -11.38321 -11.38079
 Alpha  occ. eigenvalues --   -7.70270  -2.74983  -1.50730  -1.48026  -1.43982
 Alpha  occ. eigenvalues --   -1.09475  -1.02839  -0.97441  -0.74696  -0.67723
 Alpha  occ. eigenvalues --   -0.58200  -0.57489  -0.56717  -0.55876  -0.49573
 Alpha  occ. eigenvalues --   -0.44518  -0.44291  -0.39956  -0.33943  -0.33337
 Alpha  occ. eigenvalues --   -0.20829  -0.12229  -0.01316
 Alpha virt. eigenvalues --    0.03518   0.04954   0.05379   0.05813   0.07037
 Alpha virt. eigenvalues --    0.07502   0.07826   0.08035   0.09793   0.09824
 Alpha virt. eigenvalues --    0.11694   0.11988   0.14095   0.16169   0.16700

 Mulliken charges:
               1
     1  F   -0.147719
     2  F   -0.147712
     3  B    0.011963
     4  P    5.432295
     5  C   -6.017737
     6  C   -6.017734
     7  H    1.147322
     8  H    1.172473
     9  H    1.123525
    10  H    1.147323
    11  H    1.123525
    12  H    1.172475
 Sum of Mulliken charges =   0.00000

 Dipole moment (field-independent basis, Debye):
    X=             -2.2594    Y=             -0.0000    Z=              0.3298  Tot=              2.2833

 Test job not archived.
 1\1\GINC-SE044\SP\RHF\Aug-CC-pVDZ\C2H6B1F2P1\OHZDE\09-Apr-2025\0\\#t h
 f aug-cc-pvdz iop(5/13=1,5/36=2,99/5=2) pseudo=read geom=check guess=(
 read,tcheck) scf=(maxcycle=1)\\title\\0,1\F,0,1.7739,-1.131653,0.11094
 9\F,0,1.773902,1.131652,0.110947\B,0,1.089527,0.,-0.035482\P,0,-0.7400
 75,0.000001,-0.597366\C,0,-1.413035,1.461111,0.339691\C,0,-1.413035,-1
 .461111,0.33969\H,0,-0.871744,2.355683,0.026057\H,0,-1.322977,1.356725
 ,1.423057\H,0,-2.465433,1.597037,0.083158\H,0,-0.871744,-2.355682,0.02
 6055\H,0,-2.465434,-1.597036,0.083156\H,0,-1.322978,-1.356726,1.423055

 Normal termination of Gaussian 16 at Wed Apr  9 00:32:27 2025.
