 Gaussian 16, Revision C.01,

 ----------------------------------------------------------------------
 #t hf aug-cc-pvdz symm=none int=(grid=ultrafine) guess=(read,tcheck) s
 table=(opt,rrhf)
 ----------------------------------------------------------------------
 -----
 title
 -----
 Symbolic Z-matrix:
 Charge =  0 Multiplicity = 1

 SCF Done:  E(RHF) =  -780.561111339     A.U. after   12 cycles
 Normal termination of Gaussian 16 at Tue Apr  8 23:58:22 2025.
 Gaussian 16:  ES64L-G16RevC.01  3-Jul-2019

 ----------------------------------------------------------------------
 #t hf aug-cc-pvdz iop(5/13=1,5/36=2,99/5=2) pseudo=read geom=check gue
 ss=(read,tcheck) scf=(maxcycle=1)
 ----------------------------------------------------------------------
 -----
 title
 -----
 Structure from the checkpoint file:  "BDE49_nonexpt_2053_mol1.chk"
 Charge =  0 Multiplicity = 1

                         Standard orientation:
 ---------------------------------------------------------------------
 Center     Atomic      Atomic             Coordinates (Angstroms)
 Number     Number       Type             X           Y           Z
 ---------------------------------------------------------------------
      1         14           0       -2.172662    0.000002    0.000003
      2          7           0       -0.452849   -0.000002   -0.000007
      3          6           0        0.738682   -0.000013   -0.000014
      4         16           0        2.317535    0.000003    0.000005
      5          1           0       -2.641801    1.389720   -0.163567
      6          1           0       -2.641813   -0.553196    1.285315
      7          1           0       -2.641829   -0.836514   -1.121731
 ---------------------------------------------------------------------

 SCF Done:  E(RHF) =  -781.356082302     A.U. after    2 cycles

 The electronic state is 1-A.
 Alpha  occ. eigenvalues --  -76.26990 -75.69225 -15.78064 -13.22285 -13.00470
 Alpha  occ. eigenvalues --  -13.00470 -11.54904  -8.03512  -5.60446  -2.25982
 Alpha  occ. eigenvalues --   -2.22274  -2.22274  -1.39431  -1.15135  -0.87106
 Alpha  occ. eigenvalues --   -0.65341  -0.56790  -0.56790  -0.54086  -0.48761
 Alpha  occ. eigenvalues --   -0.48761  -0.27371  -0.27371
 Alpha virt. eigenvalues --    0.03150   0.04157   0.05872   0.05872   0.06893
 Alpha virt. eigenvalues --    0.08643   0.08643   0.10985   0.11279   0.11279
 Alpha virt. eigenvalues --    0.13927   0.14206   0.14571   0.14571   0.17637

 Mulliken charges:
               1
     1  Si   5.591295
     2  N   -3.501323
     3  C    0.817169
     4  S    1.622485
     5  H   -1.509873
     6  H   -1.509878
     7  H   -1.509875
 Sum of Mulliken charges =  -0.00000

 Dipole moment (field-independent basis, Debye):
    X=              1.9359    Y=              0.0000    Z=              0.0001  Tot=              1.9359

 Test job not archived.
 1\1\GINC-SE333\SP\RHF\Aug-CC-pVDZ\C1H3N1S1Si1\OHZDE\08-Apr-2025\0\\#t
 hf aug-cc-pvdz iop(5/13=1,5/36=2,99/5=2) pseudo=read geom=check guess=
 (read,tcheck) scf=(maxcycle=1)\\title\\0,1\Si,0,2.172662,0.000002,-0.0
 00003\N,0,0.452849,-0.000002,0.000007\C,0,-0.738682,-0.000013,0.000014
 \S,0,-2.317535,0.000003,-0.000005\H,0,2.641801,1.38574,0.194425\H,0,2.
 641813,-0.524483,-1.297296\H,0,2.641829,-0.861247,1.102856\\Version=ES
 64L-G16RevC.01\State=1-A\HF=-781.3560823\RMSD=2.625e-01\Dipole=-0.7616
 316,0.0000186,-0.0000248\Quadrupole=7.1860929,-3.5930541,-3.5930388,-0

 Normal termination of Gaussian 16 at Tue Apr  8 23:58:25 2025.
