 Gaussian 16, Revision C.01,

 ----------------------------------------------------------------------
 #t hf aug-cc-pvdz symm=none int=(grid=ultrafine) guess=(read,tcheck) s
 table=(opt,rrhf)
 ----------------------------------------------------------------------
 -----
 title
 -----
 Symbolic Z-matrix:
 Charge =  0 Multiplicity = 1

 SCF Done:  E(RHF) =  -429.144077031     A.U. after   11 cycles
 Normal termination of Gaussian 16 at Tue Apr  8 23:57:19 2025.
 Gaussian 16:  ES64L-G16RevC.01  3-Jul-2019

 ----------------------------------------------------------------------
 #t hf aug-cc-pvdz iop(5/13=1,5/36=2,99/5=2) pseudo=read geom=check gue
 ss=(read,tcheck) scf=(maxcycle=1)
 ----------------------------------------------------------------------
 -----
 title
 -----
 Structure from the checkpoint file:  "BDE49_nonexpt_2016_mol1.chk"
 Charge =  0 Multiplicity = 1

                         Standard orientation:
 ---------------------------------------------------------------------
 Center     Atomic      Atomic             Coordinates (Angstroms)
 Number     Number       Type             X           Y           Z
 ---------------------------------------------------------------------
      1         14           0        1.093808   -0.097220    0.000001
      2          6           0       -0.663253    0.619657    0.000002
      3          9           0       -1.586412   -0.444099   -0.000004
      4          1           0       -0.853594    1.233558   -0.886057
      5          1           0       -0.853597    1.233551    0.886064
      6          1           0        1.293391   -0.925642   -1.209180
      7          1           0        1.293387   -0.925652    1.209177
      8          1           0        2.064334    1.024218    0.000008
 ---------------------------------------------------------------------

 SCF Done:  E(RHF) =  -429.853337264     A.U. after    2 cycles

 The electronic state is 1-A.
 Alpha  occ. eigenvalues --  -76.22227 -29.25156 -11.41784  -5.55835  -2.19345
 Alpha  occ. eigenvalues --   -2.18023  -2.17968  -1.14089  -0.77480  -0.67156
 Alpha  occ. eigenvalues --   -0.63660  -0.50706  -0.47761  -0.47588  -0.36527
 Alpha  occ. eigenvalues --   -0.25122  -0.22807
 Alpha virt. eigenvalues --    0.03890   0.04833   0.05353   0.07070   0.07836
 Alpha virt. eigenvalues --    0.07949   0.09469   0.09837   0.13087   0.15307
 Alpha virt. eigenvalues --    0.15951   0.16456   0.16691   0.19486   0.19717

 Mulliken charges:
               1
     1  Si   5.920633
     2  C   -3.831649
     3  F    0.113823
     4  H    1.370731
     5  H    1.370731
     6  H   -1.666602
     7  H   -1.666601
     8  H   -1.611066
 Sum of Mulliken charges =  -0.00000

 Dipole moment (field-independent basis, Debye):
    X=             -1.3127    Y=             -0.5650    Z=             -0.0000  Tot=              1.4292

 Test job not archived.
 1\1\GINC-SE398\SP\RHF\Aug-CC-pVDZ\C1H5F1Si1\OHZDE\08-Apr-2025\0\\#t hf
  aug-cc-pvdz iop(5/13=1,5/36=2,99/5=2) pseudo=read geom=check guess=(r
 ead,tcheck) scf=(maxcycle=1)\\title\\0,1\Si,0,-1.093808,-0.09722,-0.00
 0001\C,0,0.663253,0.619657,-0.000002\F,0,1.586412,-0.444099,0.000004\H
 ,0,0.853594,1.233558,0.886057\H,0,0.853597,1.233551,-0.886064\H,0,-1.2
 93391,-0.925642,1.20918\H,0,-1.293387,-0.925652,-1.209177\H,0,-2.06433
 4,1.024218,-0.000008\\Version=ES64L-G16RevC.01\State=1-A\HF=-429.85333
 73\RMSD=8.830e-02\Dipole=0.5164709,-0.2222805,0.0000033\Quadrupole=0.2

 Normal termination of Gaussian 16 at Tue Apr  8 23:57:22 2025.
