 Gaussian 16, Revision C.01,

 ----------------------------------------------------------------------
 #t hf aug-cc-pvdz symm=none int=(grid=ultrafine) guess=(read,tcheck) s
 table=opt
 ----------------------------------------------------------------------
 -----
 title
 -----
 Symbolic Z-matrix:
 Charge =  0 Multiplicity = 2

 SCF Done:  E(UHF) =  -826.074098286     A.U. after   19 cycles
 Normal termination of Gaussian 16 at Tue Apr  8 23:44:50 2025.
 Gaussian 16:  ES64L-G16RevC.01  3-Jul-2019

 ----------------------------------------------------------------------
 #t hf aug-cc-pvdz iop(5/13=1,5/36=2,99/5=2) pseudo=read geom=check gue
 ss=(read,tcheck) scf=(maxcycle=1)
 ----------------------------------------------------------------------
 -----
 title
 -----
 Structure from the checkpoint file:  "BDE49_nonexpt_172_mol2.chk"
 Charge =  0 Multiplicity = 2

                         Standard orientation:
 ---------------------------------------------------------------------
 Center     Atomic      Atomic             Coordinates (Angstroms)
 Number     Number       Type             X           Y           Z
 ---------------------------------------------------------------------
      1         17           0        1.636816   -0.092134   -0.000059
      2          5           0        0.084069    0.675410    0.053180
      3         15           0       -1.625529   -0.092586   -0.118219
      4          1           0       -2.333766    0.774797    0.741208
      5          1           0       -1.529517   -1.196780    0.767183
 ---------------------------------------------------------------------

 SCF Done:  E(UHF) =  -826.594221103     A.U. after    2 cycles

 The electronic state is 2-A.
 Alpha  occ. eigenvalues -- -105.18586 -99.91048 -10.48305  -9.68190  -9.67825
 Alpha  occ. eigenvalues --   -9.67585  -7.69395  -2.76103  -1.51803  -1.45528
 Alpha  occ. eigenvalues --   -1.43215  -1.34480  -0.82563  -0.69470  -0.57086
 Alpha  occ. eigenvalues --   -0.55628  -0.40228  -0.27013  -0.17810  -0.06077
 Alpha virt. eigenvalues --    0.04219   0.04348   0.04720   0.05794   0.06759
 Alpha virt. eigenvalues --    0.09947   0.10275   0.11841   0.12796   0.13751
 Alpha virt. eigenvalues --    0.16353   0.17086   0.18078   0.19012   0.20060

  Beta  occ. eigenvalues -- -105.18560 -99.90981 -10.48229  -9.68160  -9.67609
  Beta  occ. eigenvalues --   -9.67497  -7.67484  -2.75998  -1.50512  -1.45503
  Beta  occ. eigenvalues --   -1.43175  -1.33770  -0.80024  -0.67748  -0.55630
  Beta  occ. eigenvalues --   -0.54656  -0.26477  -0.23218  -0.06670
  Beta virt. eigenvalues --    0.03388   0.04606   0.04678   0.05557   0.07669
  Beta virt. eigenvalues --    0.08717   0.10211   0.10840   0.11983   0.13902
  Beta virt. eigenvalues --    0.14421   0.16553   0.17236   0.18246   0.19907

 Mulliken charges and spin densities:
               1          2
     1  Cl  -0.959471   0.061192
     2  B    0.063681   1.146718
     3  P    1.835806  -0.158314
     4  H   -0.398000  -0.060119
     5  H   -0.542016   0.010523
 Sum of Mulliken charges =  -0.00000   1.00000

 Dipole moment (field-independent basis, Debye):
    X=             -7.6232    Y=             -3.3119    Z=             -5.4433  Tot=              9.9354
                          Isotropic Fermi Contact Couplings
        Atom                 a.u.       MegaHertz       Gauss      10(-4) cm-1
     1  Cl(35)            -0.00246      -1.07679      -0.38422      -0.35918
     2  B(11)              0.08687     124.59725      44.45940      41.56117
     3  P(31)             -0.02206     -39.95485     -14.25688     -13.32750
     4  H(1)               0.00030       1.32390       0.47240       0.44160
     5  H(1)               0.00811      36.23439      12.92933      12.08649
 --------------------------------------------------------
       Center         ----  Spin Dipole Couplings  ----
                      3XX-RR        3YY-RR        3ZZ-RR

 Normal termination of Gaussian 16 at Tue Apr  8 23:44:52 2025.
