 Gaussian 16, Revision C.01,

 ----------------------------------------------------------------------
 #t hf aug-cc-pvdz symm=none int=(grid=ultrafine) guess=(read,tcheck) s
 table=opt
 ----------------------------------------------------------------------
 -----
 title
 -----
 Symbolic Z-matrix:
 Charge =  0 Multiplicity = 2

 SCF Done:  E(UHF) =  -361.470709031     A.U. after   17 cycles
 Normal termination of Gaussian 16 at Wed Apr  9 00:31:16 2025.
 Gaussian 16:  ES64L-G16RevC.01  3-Jul-2019

 ----------------------------------------------------------------------
 #t hf aug-cc-pvdz iop(5/13=1,5/36=2,99/5=2) pseudo=read geom=check gue
 ss=(read,tcheck) scf=(maxcycle=1)
 ----------------------------------------------------------------------
 -----
 title
 -----
 Structure from the checkpoint file:  "BDE49_nonexpt_358_mol2.chk"
 Charge =  0 Multiplicity = 2

                         Standard orientation:
 ---------------------------------------------------------------------
 Center     Atomic      Atomic             Coordinates (Angstroms)
 Number     Number       Type             X           Y           Z
 ---------------------------------------------------------------------
      1          9           0       -2.068045   -0.074731    0.084292
      2          5           0       -0.923161   -0.429417   -0.435529
      3          6           0        0.453442   -0.049841    0.298620
      4          9           0        1.471772   -0.879152   -0.075895
      5          9           0        0.760923    1.230142   -0.120455
      6          1           0        0.413304   -0.040195    1.394455
 ---------------------------------------------------------------------

 SCF Done:  E(UHF) =  -362.733726823     A.U. after    2 cycles

 The electronic state is 2-A.
 Alpha  occ. eigenvalues --  -29.29336 -29.29312 -29.29227 -11.49630  -7.71373
 Alpha  occ. eigenvalues --   -1.31285  -0.99580  -0.80103  -0.74754  -0.69042
 Alpha  occ. eigenvalues --   -0.51515  -0.46401  -0.45184  -0.42515  -0.38840
 Alpha  occ. eigenvalues --   -0.32798  -0.30698  -0.28273  -0.23428  -0.21910
 Alpha virt. eigenvalues --    0.03236   0.04443   0.05457   0.06569   0.11024
 Alpha virt. eigenvalues --    0.12593   0.14016   0.15251   0.15835   0.20866
 Alpha virt. eigenvalues --    0.21794   0.22515   0.24014   0.24831   0.25687

  Beta  occ. eigenvalues --  -29.29323 -29.29265 -29.29057 -11.49311  -7.69375
  Beta  occ. eigenvalues --   -1.30182  -0.96468  -0.79670  -0.74003  -0.67055
  Beta  occ. eigenvalues --   -0.45805  -0.45270  -0.44035  -0.41789  -0.38772
  Beta  occ. eigenvalues --   -0.30999  -0.30632  -0.24068  -0.23138
  Beta virt. eigenvalues --    0.03318   0.03893   0.05411   0.05919   0.09557
  Beta virt. eigenvalues --    0.11255   0.13635   0.14771   0.15958   0.17764
  Beta virt. eigenvalues --    0.21475   0.22071   0.23628   0.24309   0.25047

 Mulliken charges and spin densities:
               1          2
     1  F   -0.101152  -0.095244
     2  B    1.150323   1.053847
     3  C   -2.662581   0.024683
     4  F    0.245283  -0.010444
     5  F    0.127779   0.014994
     6  H    1.240348   0.012163
 Sum of Mulliken charges =  -0.00000   1.00000

 Dipole moment (field-independent basis, Debye):
    X=             -1.6357    Y=              1.5126    Z=              1.0232  Tot=              2.4516
                          Isotropic Fermi Contact Couplings
        Atom                 a.u.       MegaHertz       Gauss      10(-4) cm-1
     1  F(19)              0.05265     221.54052      79.05117      73.89796
     2  B(11)              0.21307     305.62268     109.05377     101.94475
     3  C(13)              0.05883      66.14080      23.60068      22.06219
     4  F(19)              0.00328      13.78911       4.92030       4.59955
     5  F(19)             -0.00063      -2.65821      -0.94851      -0.88668
     6  H(1)               0.00397      17.73894       6.32970       5.91707
 --------------------------------------------------------
       Center         ----  Spin Dipole Couplings  ----

 Normal termination of Gaussian 16 at Wed Apr  9 00:31:19 2025.
