 Gaussian 16, Revision C.01,

 ----------------------------------------------------------------------
 #t hf aug-cc-pvdz symm=none int=(grid=ultrafine) guess=(read,tcheck) s
 table=(opt,rrhf)
 ----------------------------------------------------------------------
 -----
 title
 -----
 Symbolic Z-matrix:
 Charge =  0 Multiplicity = 1

 SCF Done:  E(RHF) =  -1435.51382719     A.U. after   14 cycles
 Normal termination of Gaussian 16 at Wed Apr  9 00:42:26 2025.
 Gaussian 16:  ES64L-G16RevC.01  3-Jul-2019

 ----------------------------------------------------------------------
 #t hf aug-cc-pvdz iop(5/13=1,5/36=2,99/5=2) pseudo=read geom=check gue
 ss=(read,tcheck) scf=(maxcycle=1)
 ----------------------------------------------------------------------
 -----
 title
 -----
 Structure from the checkpoint file:  "BDE49_nonexpt_702_mol1.chk"
 Charge =  0 Multiplicity = 1

                         Standard orientation:
 ---------------------------------------------------------------------
 Center     Atomic      Atomic             Coordinates (Angstroms)
 Number     Number       Type             X           Y           Z
 ---------------------------------------------------------------------
      1         15           0        0.334960    0.220361    0.843890
      2          5           0       -1.378417   -0.365242    0.022923
      3          8           0       -1.488134   -1.368968   -0.872842
      4          8           0       -2.450460    0.320552    0.479275
      5         17           0        1.550717   -1.306972   -0.001951
      6         17           0        0.643181    1.814650   -0.503467
      7          1           0       -3.280395    0.047844    0.068709
      8          1           0       -0.639423   -1.770241   -1.101038
 ---------------------------------------------------------------------

 SCF Done:  E(RHF) =  -1436.89074666     A.U. after    2 cycles

 The electronic state is 1-A.
 Alpha  occ. eigenvalues -- -105.27163 -99.90841 -99.90563 -21.08587 -21.08525
 Alpha  occ. eigenvalues --  -10.48082 -10.47797  -9.67938  -9.67645  -9.67422
 Alpha  occ. eigenvalues --   -9.67198  -9.67014  -9.66925  -7.68512  -2.84527
 Alpha  occ. eigenvalues --   -1.84248  -1.69132  -1.53704  -1.53130  -1.51683
 Alpha  occ. eigenvalues --   -1.26161  -1.22614  -0.80301  -0.73545  -0.65434
 Alpha  occ. eigenvalues --   -0.57267  -0.56271  -0.55340  -0.52464  -0.51590
 Alpha  occ. eigenvalues --   -0.50852  -0.46429  -0.45026  -0.39010  -0.30591
 Alpha  occ. eigenvalues --   -0.06194
 Alpha virt. eigenvalues --    0.03913   0.05025   0.05387   0.06115   0.08110
 Alpha virt. eigenvalues --    0.09076   0.09342   0.10988   0.12023   0.13283
 Alpha virt. eigenvalues --    0.14211   0.14738   0.15296   0.16939   0.17147

 Mulliken charges:
               1
     1  P    2.139587
     2  B    4.731630
     3  O   -2.910484
     4  O   -3.657212
     5  Cl  -1.342504
     6  Cl  -1.266823
     7  H    0.984575
     8  H    1.321233
 Sum of Mulliken charges =  -0.00000

 Dipole moment (field-independent basis, Debye):
    X=             -0.8908    Y=             -0.1151    Z=              5.2401  Tot=              5.3166

 Test job not archived.
 1\1\GINC-SE273\SP\RHF\Aug-CC-pVDZ\B1Cl2H2O2P1\OHZDE\09-Apr-2025\0\\#t
 hf aug-cc-pvdz iop(5/13=1,5/36=2,99/5=2) pseudo=read geom=check guess=
 (read,tcheck) scf=(maxcycle=1)\\title\\0,1\P,0,0.33496,0.220361,0.8438
 9\B,0,-1.378417,-0.365241,0.022923\O,0,-1.488135,-1.368967,-0.872842\O
 ,0,-2.45046,0.320553,0.479275\Cl,0,1.550716,-1.306973,-0.001951\Cl,0,0
 .643182,1.81465,-0.503467\H,0,-3.280395,0.047846,0.068709\H,0,-0.63942
 4,-1.770241,-1.101038\\Version=ES64L-G16RevC.01\State=1-A\HF=-1436.890
 7467\RMSD=1.564e-01\Dipole=-0.3504563,-0.0453011,2.0616333\Quadrupole=

 Normal termination of Gaussian 16 at Wed Apr  9 00:42:30 2025.
