 Gaussian 16, Revision C.01,

 ----------------------------------------------------------------------
 #t hf aug-cc-pvdz symm=none int=(grid=ultrafine) guess=(read,tcheck) s
 table=(opt,rrhf)
 ----------------------------------------------------------------------
 -----
 title
 -----
 Symbolic Z-matrix:
 Charge =  0 Multiplicity = 1

 SCF Done:  E(RHF) =  -1749.25056041     A.U. after   17 cycles
 Normal termination of Gaussian 16 at Wed Apr  9 00:30:19 2025.
 Gaussian 16:  ES64L-G16RevC.01  3-Jul-2019

 ----------------------------------------------------------------------
 #t hf aug-cc-pvdz iop(5/13=1,5/36=2,99/5=2) pseudo=read geom=check gue
 ss=(read,tcheck) scf=(maxcycle=1)
 ----------------------------------------------------------------------
 -----
 title
 -----
 Structure from the checkpoint file:  "BDE49_nonexpt_2723_mol1.chk"
 Charge =  0 Multiplicity = 1

                         Standard orientation:
 ---------------------------------------------------------------------
 Center     Atomic      Atomic             Coordinates (Angstroms)
 Number     Number       Type             X           Y           Z
 ---------------------------------------------------------------------
      1          6           0        0.967785    0.199217   -0.394285
      2          8           0        0.383001    1.140516   -0.852450
      3         16           0        0.060964   -1.305161    0.195223
      4         16           0       -1.853587   -0.878421   -0.455564
      5          6           0       -2.357460    0.351069    0.793439
      6          8           0       -1.679137    0.702030    1.713094
      7          6           0        2.443257    0.140143   -0.196694
      8          6           0        3.158096    1.336904   -0.342756
      9          6           0        4.536320    1.350391   -0.174181
     10          6           0        5.213596    0.170393    0.134513
     11          6           0        4.509225   -1.024096    0.272685
     12          6           0        3.128142   -1.041936    0.107906
     13          1           0        2.593102   -1.979328    0.201355
     14          1           0        2.613891    2.240690   -0.585721
     15          1           0        5.084316    2.279047   -0.283401
     16          1           0        6.289815    0.181446    0.264598
     17          1           0        5.035440   -1.942554    0.504352
     18          6           0       -3.716393    0.999645    0.552227
     19         17           0       -4.830053    0.083669   -0.526041
     20          1           0       -3.543294    1.972068    0.090601
     21          1           0       -4.206726    1.132827    1.514092
 ---------------------------------------------------------------------

 SCF Done:  E(RHF) =  -1752.17337997     A.U. after    2 cycles

 The electronic state is 1-A.
 Alpha  occ. eigenvalues --  -99.90286 -75.73382 -75.72802 -21.08644 -21.07656
 Alpha  occ. eigenvalues --  -13.21319 -13.15650 -13.14803 -13.12917 -13.07470
 Alpha  occ. eigenvalues --  -13.06480 -11.53927 -11.53389 -11.53012 -11.46447
 Alpha  occ. eigenvalues --  -11.45689 -11.45093 -11.43481 -11.42708 -11.38731
 Alpha  occ. eigenvalues --  -10.47547  -9.67434  -9.66813  -9.66631  -8.07383
 Alpha  occ. eigenvalues --   -8.06829  -1.74755  -1.73836  -1.36607  -1.35549
 Alpha  occ. eigenvalues --   -1.24775  -1.14514  -1.11434  -1.09419  -1.03427
 Alpha  occ. eigenvalues --   -0.92169  -0.88484  -0.80261  -0.76747  -0.72042
 Alpha  occ. eigenvalues --   -0.68228  -0.65359  -0.64149  -0.62267  -0.61665
 Alpha  occ. eigenvalues --   -0.60346  -0.59031  -0.55888  -0.53160  -0.52087
 Alpha  occ. eigenvalues --   -0.51335  -0.50369  -0.48465  -0.47828  -0.46687
 Alpha  occ. eigenvalues --   -0.45684  -0.37920  -0.34982  -0.33901  -0.30172
 Alpha  occ. eigenvalues --   -0.29265  -0.26896  -0.25616
 Alpha virt. eigenvalues --    0.02814   0.03503   0.04859   0.04953   0.06099
 Alpha virt. eigenvalues --    0.06437   0.06552   0.07254   0.07518   0.07955
 Alpha virt. eigenvalues --    0.08506   0.10190   0.10469   0.10768   0.11180

 Mulliken charges:
               1
     1  C    0.927945
     2  O   -3.599574
     3  S   -0.346070
     4  S    0.092673
     5  C    3.842212
     6  O   -3.039191
     7  C    4.517549
     8  C   -3.191971
     9  C   -1.115296
    10  C   -2.913111
    11  C   -2.631065
    12  C    0.026409
    13  H    2.095630
    14  H    1.714228
    15  H    1.478568
    16  H    1.526539
    17  H    1.506632
    18  C   -4.407537
    19  Cl   0.201496
    20  H    1.623938
    21  H    1.689995
 Sum of Mulliken charges =   0.00000

 Dipole moment (field-independent basis, Debye):
    X=              2.7190    Y=             -0.4185    Z=              0.4791  Tot=              2.7925

 Test job not archived.
 1\1\GINC-SE222\SP\RHF\Aug-CC-pVDZ\C9H7Cl1O2S2\OHZDE\09-Apr-2025\0\\#t
 hf aug-cc-pvdz iop(5/13=1,5/36=2,99/5=2) pseudo=read geom=check guess=
 (read,tcheck) scf=(maxcycle=1)\\title\\0,1\C,0,0.967785,0.199217,-0.39
 4285\O,0,0.383001,1.140516,-0.85245\S,0,0.060964,-1.305161,0.195223\S,
 0,-1.853587,-0.878421,-0.455564\C,0,-2.35746,0.351069,0.793439\O,0,-1.
 679137,0.70203,1.713094\C,0,2.443257,0.140143,-0.196694\C,0,3.158096,1
 .336904,-0.342756\C,0,4.53632,1.350391,-0.174181\C,0,5.213596,0.170393
 ,0.134513\C,0,4.509225,-1.024096,0.272685\C,0,3.128142,-1.041936,0.107

 Normal termination of Gaussian 16 at Wed Apr  9 00:30:37 2025.
