 Gaussian 16, Revision C.01,

 ----------------------------------------------------------------------
 #t hf aug-cc-pvdz symm=none int=(grid=ultrafine) guess=(read,tcheck) s
 table=(opt,rrhf)
 ----------------------------------------------------------------------
 -----
 title
 -----
 Symbolic Z-matrix:
 Charge =  0 Multiplicity = 1

 SCF Done:  E(RHF) =  -540.965834156     A.U. after   14 cycles
 Normal termination of Gaussian 16 at Tue Apr  8 23:20:53 2025.
 Gaussian 16:  ES64L-G16RevC.01  3-Jul-2019

 ----------------------------------------------------------------------
 #t hf aug-cc-pvdz iop(5/13=1,5/36=2,99/5=2) pseudo=read geom=check gue
 ss=(read,tcheck) scf=(maxcycle=1)
 ----------------------------------------------------------------------
 -----
 title
 -----
 Structure from the checkpoint file:  "BDE49_nonexpt_113_mol1.chk"
 Charge =  0 Multiplicity = 1

                         Standard orientation:
 ---------------------------------------------------------------------
 Center     Atomic      Atomic             Coordinates (Angstroms)
 Number     Number       Type             X           Y           Z
 ---------------------------------------------------------------------
      1          5           0       -3.072448   -0.622246    0.000016
      2          5           0       -1.944987    0.601378    0.000014
      3          7           0       -0.551583    0.370930    0.000022
      4          6           0        0.616061    0.130037   -0.000057
      5         16           0        2.162052   -0.180342    0.000019
      6          1           0       -2.305070    1.746419   -0.000293
      7          1           0       -3.518237   -1.066384    1.015710
      8          1           0       -3.517634   -1.066954   -1.015693
 ---------------------------------------------------------------------

 SCF Done:  E(RHF) =  -541.825197451     A.U. after    2 cycles

 The electronic state is 1-A.
 Alpha  occ. eigenvalues --  -75.69929 -15.77488 -13.23485 -13.01512 -13.01088
 Alpha  occ. eigenvalues --  -11.55155  -8.04205  -7.65142  -7.61496  -1.43012
 Alpha  occ. eigenvalues --   -1.17322  -0.98224  -0.82739  -0.62066  -0.57333
 Alpha  occ. eigenvalues --   -0.56421  -0.54243  -0.49305  -0.41517  -0.29024
 Alpha  occ. eigenvalues --   -0.25584
 Alpha virt. eigenvalues --    0.01521   0.02253   0.02482   0.04057   0.06010
 Alpha virt. eigenvalues --    0.06358   0.07918   0.08521   0.09274   0.10136
 Alpha virt. eigenvalues --    0.10857   0.12276   0.12764   0.12965   0.13993

 Mulliken charges:
               1
     1  B    3.431814
     2  B    4.462258
     3  N   -4.542102
     4  C    2.449830
     5  S    1.711304
     6  H   -3.215212
     7  H   -2.148899
     8  H   -2.148992
 Sum of Mulliken charges =   0.00000

 Dipole moment (field-independent basis, Debye):
    X=              2.2317    Y=             -0.6427    Z=              0.0003  Tot=              2.3224

 Test job not archived.
 1\1\GINC-SE453\SP\RHF\Aug-CC-pVDZ\C1H3B2N1S1\OHZDE\08-Apr-2025\0\\#t h
 f aug-cc-pvdz iop(5/13=1,5/36=2,99/5=2) pseudo=read geom=check guess=(
 read,tcheck) scf=(maxcycle=1)\\title\\0,1\B,0,3.072448,-0.622246,-0.00
 0016\B,0,1.944987,0.601378,-0.000014\N,0,0.551583,0.37093,-0.000022\C,
 0,-0.616061,0.130037,0.000057\S,0,-2.162052,-0.180342,-0.000019\H,0,2.
 30507,1.746419,0.000293\H,0,3.518237,-1.066384,-1.01571\H,0,3.517634,-
 1.066954,1.015693\\Version=ES64L-G16RevC.01\State=1-A\HF=-541.8251975\
 RMSD=3.454e-01\Dipole=-0.8780231,-0.2528708,-0.0001329\Quadrupole=5.67

 Normal termination of Gaussian 16 at Tue Apr  8 23:20:55 2025.
