 Gaussian 16, Revision C.01,

 ----------------------------------------------------------------------
 #t hf aug-cc-pvdz symm=none int=(grid=ultrafine) guess=(read,tcheck) s
 table=opt
 ----------------------------------------------------------------------
 -----
 title
 -----
 Symbolic Z-matrix:
 Charge =  0 Multiplicity = 2

 SCF Done:  E(UHF) =  -1147.19185370     A.U. after   27 cycles
 Normal termination of Gaussian 16 at Wed Apr  9 00:16:34 2025.
 Gaussian 16:  ES64L-G16RevC.01  3-Jul-2019

 ----------------------------------------------------------------------
 #t hf aug-cc-pvdz iop(5/13=1,5/36=2,99/5=2) pseudo=read geom=check gue
 ss=(read,tcheck) scf=(maxcycle=1)
 ----------------------------------------------------------------------
 -----
 title
 -----
 Structure from the checkpoint file:  "BDE49_nonexpt_2533_mol2.chk"
 Charge =  0 Multiplicity = 2

                         Standard orientation:
 ---------------------------------------------------------------------
 Center     Atomic      Atomic             Coordinates (Angstroms)
 Number     Number       Type             X           Y           Z
 ---------------------------------------------------------------------
      1         16           0       -1.716753   -0.455229   -0.000030
      2         14           0       -0.008733    0.839913   -0.000016
      3         17           0        1.615148   -0.459740    0.000024
      4          1           0        0.067017    1.670372   -1.214648
      5          1           0        0.065767    1.670081    1.214955
 ---------------------------------------------------------------------

 SCF Done:  E(UHF) =  -1147.77585199     A.U. after    2 cycles

 The electronic state is 2-A.
 Alpha  occ. eigenvalues --  -99.89689 -76.29737 -75.72326 -13.09710 -13.07084
 Alpha  occ. eigenvalues --  -13.05145 -10.47096  -9.66986  -9.66311  -9.66256
 Alpha  occ. eigenvalues --   -8.05978  -5.63105  -2.25030  -2.24537  -2.24415
 Alpha  occ. eigenvalues --   -1.30408  -1.11804  -0.77750  -0.57681  -0.56625
 Alpha  occ. eigenvalues --   -0.54676  -0.49023  -0.38121  -0.34722  -0.29779
 Alpha virt. eigenvalues --    0.03867   0.04171   0.05074   0.05593   0.09995
 Alpha virt. eigenvalues --    0.10337   0.10833   0.12314   0.12974   0.14010
 Alpha virt. eigenvalues --    0.14091   0.15786   0.16116   0.17844   0.19548

  Beta  occ. eigenvalues --  -99.89644 -76.29769 -75.71378 -13.09166 -13.04579
  Beta  occ. eigenvalues --  -13.01325 -10.47046  -9.66865  -9.66228  -9.66225
  Beta  occ. eigenvalues --   -8.04922  -5.63155  -2.25077  -2.24570  -2.24558
  Beta  occ. eigenvalues --   -1.30005  -1.02487  -0.76848  -0.56723  -0.56555
  Beta  occ. eigenvalues --   -0.54467  -0.48959  -0.36685  -0.28138
  Beta virt. eigenvalues --   -0.00824   0.04050   0.04333   0.05605   0.06103
  Beta virt. eigenvalues --    0.10095   0.10367   0.11513   0.12783   0.13120
  Beta virt. eigenvalues --    0.14177   0.14361   0.16190   0.16531   0.19027

 Mulliken charges and spin densities:
               1          2
     1  S   -1.172009   1.111751
     2  Si   5.479751  -0.144458
     3  Cl  -0.855525   0.032735
     4  H   -1.726107  -0.000392
     5  H   -1.726111   0.000365
 Sum of Mulliken charges =  -0.00000   1.00000

 Dipole moment (field-independent basis, Debye):
    X=             -2.5499    Y=             -0.1629    Z=              0.0023  Tot=              2.5551
                          Isotropic Fermi Contact Couplings
        Atom                 a.u.       MegaHertz       Gauss      10(-4) cm-1
     1  S(33)              0.22236      76.37511      27.25254      25.47599
     2  Si(29)            -0.03326      29.55616      10.54637       9.85887
     3  Cl(35)             0.04568      20.02963       7.14707       6.68116
     4  H(1)               0.00003       0.12450       0.04443       0.04153
     5  H(1)               0.00015       0.67577       0.24113       0.22541
 --------------------------------------------------------
       Center         ----  Spin Dipole Couplings  ----
                      3XX-RR        3YY-RR        3ZZ-RR

 Normal termination of Gaussian 16 at Wed Apr  9 00:16:36 2025.
