 Gaussian 16, Revision C.01,

 ----------------------------------------------------------------------
 #t hf aug-cc-pvdz symm=none int=(grid=ultrafine) guess=(read,tcheck) s
 table=(opt,rrhf)
 ----------------------------------------------------------------------
 -----
 title
 -----
 Symbolic Z-matrix:
 Charge =  0 Multiplicity = 1

 SCF Done:  E(RHF) =  -595.693247069     A.U. after   13 cycles
 Normal termination of Gaussian 16 at Wed Apr  9 00:42:07 2025.
 Gaussian 16:  ES64L-G16RevC.01  3-Jul-2019

 ----------------------------------------------------------------------
 #t hf aug-cc-pvdz iop(5/13=1,5/36=2,99/5=2) pseudo=read geom=check gue
 ss=(read,tcheck) scf=(maxcycle=1)
 ----------------------------------------------------------------------
 -----
 title
 -----
 Structure from the checkpoint file:  "BDE49_nonexpt_685_mol1.chk"
 Charge =  0 Multiplicity = 1

                         Standard orientation:
 ---------------------------------------------------------------------
 Center     Atomic      Atomic             Coordinates (Angstroms)
 Number     Number       Type             X           Y           Z
 ---------------------------------------------------------------------
      1         15           0       -0.250038   -1.166251   -0.289938
      2          5           0        1.179989    0.128918   -0.050397
      3          8           0        1.079469    1.324403   -0.696679
      4          8           0        2.332064   -0.133789    0.642888
      5          6           0       -1.769340   -0.077196   -0.398435
      6          6           0       -2.024060    0.889063    0.760609
      7          1           0       -1.207644    1.607799    0.855711
      8          1           0       -2.119235    0.353914    1.709462
      9          1           0       -2.949600    1.452754    0.602286
     10          1           0       -2.621677   -0.749583   -0.533976
     11          1           0       -1.660075    0.474209   -1.337117
     12          1           0        1.876039    1.858976   -0.590033
     13          1           0        2.343317   -0.989829    1.078401
     14          1           0       -0.342362   -1.555189    1.073610
 ---------------------------------------------------------------------

 SCF Done:  E(RHF) =  -597.025153003     A.U. after    2 cycles

 The electronic state is 1-A.
 Alpha  occ. eigenvalues -- -105.15376 -21.06889 -21.05966 -11.39844 -11.35685
 Alpha  occ. eigenvalues --   -7.64782  -2.73063  -1.82001  -1.66038  -1.46812
 Alpha  occ. eigenvalues --   -1.44396  -1.41572  -1.12714  -0.88048  -0.75762
 Alpha  occ. eigenvalues --   -0.68839  -0.62833  -0.60351  -0.55795  -0.50304
 Alpha  occ. eigenvalues --   -0.49647  -0.48660  -0.48173  -0.42781  -0.37040
 Alpha  occ. eigenvalues --   -0.22999  -0.14833  -0.01623
 Alpha virt. eigenvalues --    0.03916   0.04330   0.05145   0.06141   0.06609
 Alpha virt. eigenvalues --    0.07216   0.07733   0.08198   0.08641   0.09107
 Alpha virt. eigenvalues --    0.10036   0.11323   0.12373   0.12400   0.13919

 Mulliken charges:
               1
     1  P    2.028388
     2  B    5.541395
     3  O   -3.460129
     4  O   -3.606786
     5  C   -4.530247
     6  C   -3.960509
     7  H    1.442026
     8  H    1.324234
     9  H    1.099248
    10  H    1.206236
    11  H    1.462019
    12  H    1.326826
    13  H    1.277314
    14  H   -1.150015
 Sum of Mulliken charges =   0.00000

 Dipole moment (field-independent basis, Debye):
    X=             -1.2078    Y=             -1.6791    Z=             -1.4162  Tot=              2.5068

 Test job not archived.
 1\1\GINC-SE340\SP\RHF\Aug-CC-pVDZ\C2H8B1O2P1\OHZDE\09-Apr-2025\0\\#t h
 f aug-cc-pvdz iop(5/13=1,5/36=2,99/5=2) pseudo=read geom=check guess=(
 read,tcheck) scf=(maxcycle=1)\\title\\0,1\P,0,-0.250038,-1.166251,-0.2
 89938\B,0,1.179989,0.128918,-0.050397\O,0,1.079469,1.324403,-0.696679\
 O,0,2.332064,-0.133789,0.642888\C,0,-1.76934,-0.077196,-0.398435\C,0,-
 2.02406,0.889063,0.760609\H,0,-1.207644,1.607799,0.855711\H,0,-2.11923
 5,0.353914,1.709462\H,0,-2.9496,1.452754,0.602286\H,0,-2.621677,-0.749
 583,-0.533976\H,0,-1.660075,0.474209,-1.337117\H,0,1.876039,1.858976,-

 Normal termination of Gaussian 16 at Wed Apr  9 00:42:10 2025.
