 Gaussian 16, Revision C.01,

 ----------------------------------------------------------------------
 #t hf aug-cc-pvdz symm=none int=(grid=ultrafine) guess=(read,tcheck) s
 table=(opt,rrhf)
 ----------------------------------------------------------------------
 -----
 title
 -----
 Symbolic Z-matrix:
 Charge =  0 Multiplicity = 1

 SCF Done:  E(RHF) =  -793.886213721     A.U. after   14 cycles
 Normal termination of Gaussian 16 at Tue Apr  8 23:40:39 2025.
 Gaussian 16:  ES64L-G16RevC.01  3-Jul-2019

 ----------------------------------------------------------------------
 #t hf aug-cc-pvdz iop(5/13=1,5/36=2,99/5=2) pseudo=read geom=check gue
 ss=(read,tcheck) scf=(maxcycle=1)
 ----------------------------------------------------------------------
 -----
 title
 -----
 Structure from the checkpoint file:  "BDE49_nonexpt_1606_mol1.chk"
 Charge =  0 Multiplicity = 1

                         Standard orientation:
 ---------------------------------------------------------------------
 Center     Atomic      Atomic             Coordinates (Angstroms)
 Number     Number       Type             X           Y           Z
 ---------------------------------------------------------------------
      1          6           0        2.833997   -0.813688   -0.031415
      2          6           0        1.622019    0.067351   -0.014205
      3          1           0        2.806353   -1.464594   -0.907424
      4          1           0        2.823029   -1.455044    0.853183
      5          1           0        3.732120   -0.200554   -0.037595
      6          8           0        0.474315   -0.661101   -0.111810
      7          8           0        1.631449    1.272677    0.072797
      8         15           0       -1.047822   -0.032921    0.115608
      9          8           0       -1.486929   -0.167990    1.498765
     10          8           0       -1.871046   -0.857690   -0.957338
     11          1           0       -2.470892   -1.484181   -0.535522
     12          8           0       -0.971781    1.384500   -0.562935
     13          1           0       -0.117434    1.813044   -0.348869
 ---------------------------------------------------------------------

 SCF Done:  E(RHF) =  -795.977610603     A.U. after    2 cycles

 The electronic state is 1-A.
 Alpha  occ. eigenvalues -- -105.34480 -21.13433 -21.12304 -21.11771 -21.09071
 Alpha  occ. eigenvalues --  -21.03707 -11.56697 -11.42111  -2.97635  -2.03277
 Alpha  occ. eigenvalues --   -1.94834  -1.94172  -1.79759  -1.71904  -1.46990
 Alpha  occ. eigenvalues --   -1.41335  -1.26278  -1.13404  -0.80958  -0.72099
 Alpha  occ. eigenvalues --   -0.65354  -0.64881  -0.62588  -0.59454  -0.56512
 Alpha  occ. eigenvalues --   -0.53983  -0.51581  -0.45927  -0.43304  -0.40393
 Alpha  occ. eigenvalues --   -0.35717  -0.35226  -0.33600  -0.30813  -0.28273
 Alpha  occ. eigenvalues --   -0.17185
 Alpha virt. eigenvalues --    0.02936   0.05001   0.05676   0.05874   0.07496
 Alpha virt. eigenvalues --    0.08780   0.10545   0.11058   0.12285   0.12833
 Alpha virt. eigenvalues --    0.13466   0.14220   0.14517   0.15597   0.16093

 Mulliken charges:
               1
     1  C   -4.414911
     2  C    5.345842
     3  H    1.247392
     4  H    1.250433
     5  H    1.257024
     6  O   -3.967696
     7  O   -2.992338
     8  P    8.658443
     9  O   -2.827537
    10  O   -2.635316
    11  H    0.891532
    12  O   -3.024426
    13  H    1.211559
 Sum of Mulliken charges =  -0.00000

 Dipole moment (field-independent basis, Debye):
    X=              1.7301    Y=             -1.3839    Z=             -2.6082  Tot=              3.4221

 Test job not archived.
 1\1\GINC-SE227\SP\RHF\Aug-CC-pVDZ\C2H5O5P1\OHZDE\08-Apr-2025\0\\#t hf
 aug-cc-pvdz iop(5/13=1,5/36=2,99/5=2) pseudo=read geom=check guess=(re
 ad,tcheck) scf=(maxcycle=1)\\title\\0,1\C,0,2.833997,-0.813688,-0.0314
 15\C,0,1.622019,0.067351,-0.014205\H,0,2.806353,-1.464594,-0.907424\H,
 0,2.823029,-1.455044,0.853183\H,0,3.73212,-0.200554,-0.037595\O,0,0.47
 4315,-0.661101,-0.11181\O,0,1.631449,1.272677,0.072797\P,0,-1.047822,-
 0.032921,0.115608\O,0,-1.486929,-0.16799,1.498765\O,0,-1.871046,-0.857
 69,-0.957338\H,0,-2.470892,-1.484181,-0.535522\O,0,-0.971781,1.3845,-0

 Normal termination of Gaussian 16 at Tue Apr  8 23:40:44 2025.
