 Gaussian 16, Revision C.01,

 ----------------------------------------------------------------------
 #t hf aug-cc-pvdz symm=none int=(grid=ultrafine) guess=(read,tcheck) s
 table=(opt,rrhf)
 ----------------------------------------------------------------------
 -----
 title
 -----
 Symbolic Z-matrix:
 Charge =  0 Multiplicity = 1

 SCF Done:  E(RHF) =  -935.685521684     A.U. after   14 cycles
 Normal termination of Gaussian 16 at Wed Apr  9 00:16:36 2025.
 Gaussian 16:  ES64L-G16RevC.01  3-Jul-2019

 ----------------------------------------------------------------------
 #t hf aug-cc-pvdz iop(5/13=1,5/36=2,99/5=2) pseudo=read geom=check gue
 ss=(read,tcheck) scf=(maxcycle=1)
 ----------------------------------------------------------------------
 -----
 title
 -----
 Structure from the checkpoint file:  "BDE49_nonexpt_2543_mol1.chk"
 Charge =  0 Multiplicity = 1

                         Standard orientation:
 ---------------------------------------------------------------------
 Center     Atomic      Atomic             Coordinates (Angstroms)
 Number     Number       Type             X           Y           Z
 ---------------------------------------------------------------------
      1         17           0        1.525921   -0.593048    0.068198
      2         16           0        0.196528    0.988820   -0.204692
      3          6           0       -1.330889    0.291947    0.507149
      4          6           0       -1.944087   -0.867871   -0.267477
      5          1           0       -1.137818    0.037700    1.550987
      6          1           0       -2.167243   -0.579988   -1.296654
      7          1           0       -2.873767   -1.187391    0.213161
      8          1           0       -1.266725   -1.723496   -0.290932
      9          1           0       -1.989698    1.169419    0.501114
 ---------------------------------------------------------------------

 SCF Done:  E(RHF) =  -936.565951388     A.U. after    2 cycles

 The electronic state is 1-A.
 Alpha  occ. eigenvalues --  -99.90108 -75.73466 -13.14451 -13.09272 -13.06320
 Alpha  occ. eigenvalues --  -11.43489 -11.37909 -10.47237  -9.66992  -9.66410
 Alpha  occ. eigenvalues --   -9.66270  -8.07208  -1.34195  -1.20506  -1.03752
 Alpha  occ. eigenvalues --   -0.87725  -0.65481  -0.60853  -0.56292  -0.54798
 Alpha  occ. eigenvalues --   -0.53918  -0.52235  -0.50417  -0.39031  -0.24982
 Alpha virt. eigenvalues --    0.02865   0.04327   0.05316   0.06270   0.06341
 Alpha virt. eigenvalues --    0.07480   0.07748   0.12212   0.12364   0.13398
 Alpha virt. eigenvalues --    0.14570   0.15362   0.15541   0.16820   0.17076

 Mulliken charges:
               1
     1  Cl  -0.425757
     2  S    0.896617
     3  C   -4.001793
     4  C   -3.133189
     5  H    1.466721
     6  H    1.249942
     7  H    1.197747
     8  H    1.238101
     9  H    1.511611
 Sum of Mulliken charges =   0.00000

 Dipole moment (field-independent basis, Debye):
    X=             -2.5747    Y=              2.4799    Z=             -0.2449  Tot=              3.5832

 Test job not archived.
 1\1\GINC-SE459\SP\RHF\Aug-CC-pVDZ\C2H5Cl1S1\OHZDE\09-Apr-2025\0\\#t hf
  aug-cc-pvdz iop(5/13=1,5/36=2,99/5=2) pseudo=read geom=check guess=(r
 ead,tcheck) scf=(maxcycle=1)\\title\\0,1\Cl,0,1.525921,-0.593049,0.068
 198\S,0,0.196528,0.98882,-0.204692\C,0,-1.330889,0.291947,0.507149\C,0
 ,-1.944087,-0.867871,-0.267477\H,0,-1.137818,0.0377,1.550987\H,0,-2.16
 7243,-0.579988,-1.296654\H,0,-2.873767,-1.187391,0.213161\H,0,-1.26672
 5,-1.723496,-0.290932\H,0,-1.989698,1.169419,0.501114\\Version=ES64L-G
 16RevC.01\State=1-A\HF=-936.5659514\RMSD=1.423e-01\Dipole=-1.0129735,0

 Normal termination of Gaussian 16 at Wed Apr  9 00:16:39 2025.
