 Gaussian 16, Revision C.01,

 ----------------------------------------------------------------------
 #t hf aug-cc-pvdz symm=none int=(grid=ultrafine) guess=(read,tcheck) s
 table=(opt,rrhf)
 ----------------------------------------------------------------------
 -----
 title
 -----
 Symbolic Z-matrix:
 Charge =  0 Multiplicity = 1

 SCF Done:  E(RHF) =  -694.588458913     A.U. after   15 cycles
 Normal termination of Gaussian 16 at Wed Apr  9 00:04:23 2025.
 Gaussian 16:  ES64L-G16RevC.01  3-Jul-2019

 ----------------------------------------------------------------------
 #t hf aug-cc-pvdz iop(5/13=1,5/36=2,99/5=2) pseudo=read geom=check gue
 ss=(read,tcheck) scf=(maxcycle=1)
 ----------------------------------------------------------------------
 -----
 title
 -----
 Structure from the checkpoint file:  "BDE49_nonexpt_2183_mol1.chk"
 Charge =  0 Multiplicity = 1

                         Standard orientation:
 ---------------------------------------------------------------------
 Center     Atomic      Atomic             Coordinates (Angstroms)
 Number     Number       Type             X           Y           Z
 ---------------------------------------------------------------------
      1          6           0       -2.236371    0.968881    0.000001
      2          6           0       -2.045183   -0.406118   -0.000000
      3          6           0       -0.789400   -0.987193   -0.000001
      4          6           0       -1.107139    1.781829   -0.000000
      5          6           0        0.174691    1.235173   -0.000002
      6          6           0        0.331225   -0.153733   -0.000002
      7          1           0       -3.239394    1.374597    0.000002
      8          9           0       -3.127287   -1.215227    0.000001
      9          1           0       -0.673057   -2.062495   -0.000002
     10          1           0       -1.224948    2.859047   -0.000000
     11          1           0        1.041319    1.885813   -0.000002
     12          8           0        1.552455   -0.763156   -0.000004
     13         14           0        3.089224   -0.125820    0.000003
     14          1           0        3.981820   -1.296874    0.000003
     15          1           0        3.312061    0.705324    1.204527
     16          1           0        3.312070    0.705329   -1.204517
 ---------------------------------------------------------------------

 SCF Done:  E(RHF) =  -696.484332559     A.U. after    2 cycles

 The electronic state is 1-A.
 Alpha  occ. eigenvalues --  -76.25384 -29.28517 -21.07878 -11.54740 -11.49791
 Alpha  occ. eigenvalues --  -11.45692 -11.41925 -11.41152 -11.38505  -5.58882
 Alpha  occ. eigenvalues --   -2.25554  -2.20884  -2.20387  -1.75047  -1.35656
 Alpha  occ. eigenvalues --   -1.14956  -1.09665  -0.93459  -0.88496  -0.79444
 Alpha  occ. eigenvalues --   -0.72767  -0.69009  -0.63550  -0.61828  -0.58210
 Alpha  occ. eigenvalues --   -0.57583  -0.51770  -0.50794  -0.49440  -0.48504
 Alpha  occ. eigenvalues --   -0.46090  -0.39621  -0.39578  -0.37710  -0.30523
 Alpha  occ. eigenvalues --   -0.27144  -0.23676
 Alpha virt. eigenvalues --    0.03411   0.04372   0.05302   0.06237   0.06325
 Alpha virt. eigenvalues --    0.06412   0.07407   0.08625   0.09069   0.10610
 Alpha virt. eigenvalues --    0.11327   0.11566   0.11980   0.12994   0.13519

 Mulliken charges:
               1
     1  C   -5.063986
     2  C    4.334112
     3  C   -5.270308
     4  C    0.410808
     5  C   -3.881673
     6  C    5.732877
     7  H    1.678857
     8  F    0.636937
     9  H    1.823845
    10  H    1.433949
    11  H    1.934442
    12  O   -4.799823
    13  Si   6.332532
    14  H   -1.840744
    15  H   -1.730913
    16  H   -1.730912
 Sum of Mulliken charges =   0.00000

 Dipole moment (field-independent basis, Debye):
    X=             -1.5277    Y=             -1.0906    Z=              0.0000  Tot=              1.8770

 Test job not archived.
 1\1\GINC-SE072\SP\RHF\Aug-CC-pVDZ\C6H7F1O1Si1\OHZDE\09-Apr-2025\0\\#t
 hf aug-cc-pvdz iop(5/13=1,5/36=2,99/5=2) pseudo=read geom=check guess=
 (read,tcheck) scf=(maxcycle=1)\\title\\0,1\C,0,-2.236371,0.968881,0.00
 0001\C,0,-2.045183,-0.406118,0.\C,0,-0.7894,-0.987193,-0.000001\C,0,-1
 .107139,1.781829,0.\C,0,0.174691,1.235173,-0.000002\C,0,0.331225,-0.15
 3733,-0.000002\H,0,-3.239394,1.374597,0.000002\F,0,-3.127287,-1.215227
 ,0.000001\H,0,-0.673057,-2.062495,-0.000002\H,0,-1.224948,2.859047,0.\
 H,0,1.041319,1.885813,-0.000002\O,0,1.552455,-0.763156,-0.000004\Si,0,

 Normal termination of Gaussian 16 at Wed Apr  9 00:04:31 2025.
