 Gaussian 16, Revision C.01,

 ----------------------------------------------------------------------
 #t hf aug-cc-pvdz symm=none int=(grid=ultrafine) guess=(read,tcheck) s
 table=opt
 ----------------------------------------------------------------------
 -----
 title
 -----
 Symbolic Z-matrix:
 Charge =  0 Multiplicity = 2

 SCF Done:  E(UHF) =  -406.560133120     A.U. after   21 cycles

 1\1\GINC-SE186\Stability\UHF\Aug-CC-pVDZ\C3H7Si1\OHZDE\08-Apr-2025\0\\
 #t hf aug-cc-pvdz symm=none int=(grid=ultrafine) guess=(read,tcheck) s
 table=opt\\title\\0,2\Si,0,1.584001,-0.238842,-0.030227\C,0,0.034624,0
 .852529,-0.255782\C,0,-1.132656,0.217671,0.439682\C,0,-2.119255,-0.451
 719,-0.158185\H,0,-2.919803,-0.907136,0.412837\H,0,-2.160953,-0.564135
 ,-1.237362\H,0,-0.155885,0.96799,-1.326465\H,0,0.248501,1.844615,0.153
 491\H,0,-1.135303,0.296424,1.525064\H,0,1.380207,-1.563314,-0.674759\H
 ,0,1.870939,-0.441542,1.416085\\Version=ES64L-G16RevC.01\HF=-406.56013

 Normal termination of Gaussian 16 at Tue Apr  8 23:46:24 2025.
 Gaussian 16:  ES64L-G16RevC.01  3-Jul-2019

 ----------------------------------------------------------------------
 #t hf aug-cc-pvdz iop(5/13=1,5/36=2,99/5=2) pseudo=read geom=check gue
 ss=(read,tcheck) scf=(maxcycle=1)
 ----------------------------------------------------------------------
 -----
 title
 -----
 Structure from the checkpoint file:  "BDE49_nonexpt_1754_mol2.chk"
 Charge =  0 Multiplicity = 2

                         Standard orientation:
 ---------------------------------------------------------------------
 Center     Atomic      Atomic             Coordinates (Angstroms)
 Number     Number       Type             X           Y           Z
 ---------------------------------------------------------------------
      1         14           0        1.584001   -0.238842   -0.030227
      2          6           0        0.034624    0.852529   -0.255782
      3          6           0       -1.132656    0.217671    0.439682
      4          6           0       -2.119255   -0.451719   -0.158185
      5          1           0       -2.919803   -0.907136    0.412837
      6          1           0       -2.160953   -0.564135   -1.237362
      7          1           0       -0.155885    0.967990   -1.326465
      8          1           0        0.248501    1.844615    0.153491
      9          1           0       -1.135303    0.296424    1.525064
     10          1           0        1.380207   -1.563314   -0.674759
     11          1           0        1.870939   -0.441542    1.416085
 ---------------------------------------------------------------------

 SCF Done:  E(UHF) =  -407.289698982     A.U. after    2 cycles

 The electronic state is 2-A.
 Alpha  occ. eigenvalues --  -76.22375 -11.42052 -11.38503 -11.36226  -5.55704
 Alpha  occ. eigenvalues --   -2.19024  -2.17713  -2.16992  -1.20301  -1.00092
 Alpha  occ. eigenvalues --   -0.79437  -0.73429  -0.64454  -0.58206  -0.52712
 Alpha  occ. eigenvalues --   -0.48746  -0.46666  -0.44868  -0.34684  -0.26348
 Alpha virt. eigenvalues --    0.03626   0.05095   0.05554   0.05824   0.06315
 Alpha virt. eigenvalues --    0.06468   0.07808   0.07971   0.09224   0.10670
 Alpha virt. eigenvalues --    0.11751   0.13165   0.13595   0.14207   0.15780

  Beta  occ. eigenvalues --  -76.21852 -11.42296 -11.38124 -11.36107  -5.54889
  Beta  occ. eigenvalues --   -2.18394  -2.17109  -2.13582  -1.20417  -0.98838
  Beta  occ. eigenvalues --   -0.79309  -0.69617  -0.64342  -0.57935  -0.52475
  Beta  occ. eigenvalues --   -0.48593  -0.45929  -0.44780  -0.32393
  Beta virt. eigenvalues --    0.03417   0.04157   0.05448   0.05703   0.05950
  Beta virt. eigenvalues --    0.06387   0.07301   0.07988   0.08708   0.09906
  Beta virt. eigenvalues --    0.10938   0.12350   0.13317   0.13900   0.14561

 Mulliken charges and spin densities:
               1          2
     1  Si   4.115501   0.984434
     2  C   -4.498578   0.141461
     3  C   -0.331488  -0.556923
     4  C   -2.931695   0.488309
     5  H    1.360613  -0.011131
     6  H    1.433815  -0.012386
     7  H    1.319478  -0.007189
     8  H    1.278513  -0.010087
     9  H    1.416542  -0.011053
    10  H   -1.575043  -0.001229
    11  H   -1.587658  -0.004207
 Sum of Mulliken charges =   0.00000   1.00000

 Dipole moment (field-independent basis, Debye):
    X=             -0.1993    Y=              0.8784    Z=             -0.2482  Tot=              0.9343
                          Isotropic Fermi Contact Couplings
        Atom                 a.u.       MegaHertz       Gauss      10(-4) cm-1
     1  Si(29)             0.42993    -382.08707    -136.33817    -127.45053
     2  C(13)              0.02573      28.92632      10.32163       9.64878
     3  C(13)             -0.01553     -17.45402      -6.22803      -5.82204
     4  C(13)              0.03501      39.35351      14.04231      13.12692
     5  H(1)              -0.00443     -19.81416      -7.07018      -6.60929
     6  H(1)              -0.00463     -20.68601      -7.38128      -6.90011
     7  H(1)              -0.00084      -3.74665      -1.33690      -1.24975
     8  H(1)              -0.00236     -10.55540      -3.76643      -3.52090

 Normal termination of Gaussian 16 at Tue Apr  8 23:46:28 2025.
