 Gaussian 16, Revision C.01,

 ----------------------------------------------------------------------
 #t hf aug-cc-pvdz symm=none int=(grid=ultrafine) guess=(read,tcheck) s
 table=(opt,rrhf)
 ----------------------------------------------------------------------
 -----
 title
 -----
 Symbolic Z-matrix:
 Charge =  0 Multiplicity = 1

 SCF Done:  E(RHF) =  -987.057711972     A.U. after   14 cycles
 Normal termination of Gaussian 16 at Wed Apr  9 00:26:24 2025.
 Gaussian 16:  ES64L-G16RevC.01  3-Jul-2019

 ----------------------------------------------------------------------
 #t hf aug-cc-pvdz iop(5/13=1,5/36=2,99/5=2) pseudo=read geom=check gue
 ss=(read,tcheck) scf=(maxcycle=1)
 ----------------------------------------------------------------------
 -----
 title
 -----
 Structure from the checkpoint file:  "BDE49_nonexpt_2739_mol1.chk"
 Charge =  0 Multiplicity = 1

                         Standard orientation:
 ---------------------------------------------------------------------
 Center     Atomic      Atomic             Coordinates (Angstroms)
 Number     Number       Type             X           Y           Z
 ---------------------------------------------------------------------
      1         16           0        2.411378    0.346294   -0.065958
      2         16           0        0.785549   -0.943167    0.079804
      3          6           0       -0.658053    0.189472   -0.090823
      4          8           0       -0.559593    1.379771   -0.097618
      5          6           0       -1.955531   -0.591069   -0.224361
      6          6           0       -3.179098    0.219692    0.205321
      7          1           0       -1.875389   -1.528884    0.334419
      8          1           0       -2.030247   -0.874549   -1.281381
      9          1           0       -3.135334    0.463143    1.269186
     10          1           0       -4.093568   -0.348291    0.022025
     11          1           0       -3.233356    1.157266   -0.348953
     12          1           0        2.449898    0.734532    1.223288
 ---------------------------------------------------------------------

 SCF Done:  E(RHF) =  -988.388741054     A.U. after    2 cycles

 The electronic state is 1-A.
 Alpha  occ. eigenvalues --  -75.72523 -75.72208 -21.07706 -13.15668 -13.14256
 Alpha  occ. eigenvalues --  -13.11754 -13.09332 -13.04908 -13.04498 -11.51687
 Alpha  occ. eigenvalues --  -11.42916 -11.38025  -8.06472  -8.05984  -1.73557
 Alpha  occ. eigenvalues --   -1.24839  -1.18408  -1.03437  -0.94043  -0.74448
 Alpha  occ. eigenvalues --   -0.65223  -0.63271  -0.55931  -0.53756  -0.52425
 Alpha  occ. eigenvalues --   -0.51098  -0.48202  -0.45442  -0.36708  -0.29422
 Alpha  occ. eigenvalues --   -0.26851  -0.24841
 Alpha virt. eigenvalues --    0.02790   0.03171   0.05121   0.05749   0.06138
 Alpha virt. eigenvalues --    0.06867   0.08218   0.08414   0.10283   0.11945
 Alpha virt. eigenvalues --    0.12936   0.13376   0.14072   0.14337   0.14643

 Mulliken charges:
               1
     1  S   -1.219338
     2  S    0.046900
     3  C    3.285841
     4  O   -2.930488
     5  C   -3.787850
     6  C   -3.514426
     7  H    1.656011
     8  H    1.464115
     9  H    1.219914
    10  H    1.132161
    11  H    1.359238
    12  H    1.287922
 Sum of Mulliken charges =  -0.00000

 Dipole moment (field-independent basis, Debye):
    X=             -0.1695    Y=             -1.0255    Z=             -0.8479  Tot=              1.3414

 Test job not archived.
 1\1\GINC-SE253\SP\RHF\Aug-CC-pVDZ\C3H6O1S2\OHZDE\09-Apr-2025\0\\#t hf
 aug-cc-pvdz iop(5/13=1,5/36=2,99/5=2) pseudo=read geom=check guess=(re
 ad,tcheck) scf=(maxcycle=1)\\title\\0,1\S,0,2.411378,0.346294,-0.06595
 8\S,0,0.785549,-0.943167,0.079804\C,0,-0.658053,0.189472,-0.090823\O,0
 ,-0.559593,1.379771,-0.097618\C,0,-1.955531,-0.591069,-0.224361\C,0,-3
 .179098,0.219692,0.205321\H,0,-1.875389,-1.528884,0.334419\H,0,-2.0302
 47,-0.874549,-1.281381\H,0,-3.135334,0.463143,1.269186\H,0,-4.093568,-
 0.348291,0.022025\H,0,-3.233356,1.157266,-0.348953\H,0,2.449898,0.7345

 Normal termination of Gaussian 16 at Wed Apr  9 00:26:28 2025.
