 Gaussian 16, Revision C.01,

 ----------------------------------------------------------------------
 #t hf aug-cc-pvdz symm=none int=(grid=ultrafine) guess=(read,tcheck) s
 table=(opt,rrhf)
 ----------------------------------------------------------------------
 -----
 title
 -----
 Symbolic Z-matrix:
 Charge =  0 Multiplicity = 1

 SCF Done:  E(RHF) =  -837.541289866     A.U. after   17 cycles
 Normal termination of Gaussian 16 at Wed Apr  9 00:53:36 2025.
 Gaussian 16:  ES64L-G16RevC.01  3-Jul-2019

 ----------------------------------------------------------------------
 #t hf aug-cc-pvdz iop(5/13=1,5/36=2,99/5=2) pseudo=read geom=check gue
 ss=(read,tcheck) scf=(maxcycle=1)
 ----------------------------------------------------------------------
 -----
 title
 -----
 Structure from the checkpoint file:  "BDE49_nonexpt_932_mol1.chk"
 Charge =  0 Multiplicity = 1

                         Standard orientation:
 ---------------------------------------------------------------------
 Center     Atomic      Atomic             Coordinates (Angstroms)
 Number     Number       Type             X           Y           Z
 ---------------------------------------------------------------------
      1         17           0       -2.447712   -0.956165   -0.267066
      2          7           0       -1.233865    0.103382    0.511194
      3          6           0       -1.398291    1.515083    0.062168
      4          7           0       -0.023310    2.039806    0.102374
      5          1           0        0.156494    2.796717   -0.543971
      6          6           0        0.113619   -0.243426    0.229576
      7          6           0        0.732608   -1.481543    0.257393
      8          1           0        0.155863   -2.383326    0.420342
      9          6           0        2.838552   -0.360028   -0.185723
     10          1           0        3.907727   -0.415710   -0.354375
     11          6           0        0.836639    0.934202    0.003200
     12          6           0        2.113856   -1.529178    0.040985
     13          1           0        2.621148   -2.486340    0.045392
     14          6           0        2.209106    0.889354   -0.201128
     15          1           0        2.775687    1.797006   -0.375442
     16          1           0       -1.831662    1.557175   -0.947394
     17          1           0       -2.050469    2.040181    0.761774
 ---------------------------------------------------------------------

 SCF Done:  E(RHF) =  -839.567609892     A.U. after    2 cycles

 The electronic state is 1-A.
 Alpha  occ. eigenvalues --  -99.91036 -15.78895 -15.75607 -11.52707 -11.45426
 Alpha  occ. eigenvalues --  -11.45026 -11.44055 -11.41739 -11.41247 -11.37018
 Alpha  occ. eigenvalues --  -10.48087  -9.68027  -9.67290  -9.67086  -1.56365
 Alpha  occ. eigenvalues --   -1.37232  -1.29393  -1.20833  -1.08943  -1.07972
 Alpha  occ. eigenvalues --   -0.92253  -0.87651  -0.84249  -0.72398  -0.69468
 Alpha  occ. eigenvalues --   -0.67797  -0.65591  -0.60647  -0.58642  -0.56852
 Alpha  occ. eigenvalues --   -0.55629  -0.53759  -0.52519  -0.49875  -0.46563
 Alpha  occ. eigenvalues --   -0.45357  -0.42624  -0.40822  -0.31789  -0.26526
 Alpha virt. eigenvalues --    0.03387   0.04455   0.04825   0.05487   0.05894
 Alpha virt. eigenvalues --    0.06290   0.06634   0.07329   0.10079   0.10596
 Alpha virt. eigenvalues --    0.11273   0.12120   0.12894   0.13360   0.13737

 Mulliken charges:
               1
     1  Cl   0.142740
     2  N   -2.840683
     3  C   -2.527011
     4  N   -3.433724
     5  H    0.618536
     6  C    3.301623
     7  C   -2.066974
     8  H    1.672289
     9  C   -1.869941
    10  H    1.517529
    11  C    1.715759
    12  C   -1.074893
    13  H    1.541465
    14  C   -1.416348
    15  H    1.695128
    16  H    1.549796
    17  H    1.474708
 Sum of Mulliken charges =  -0.00000

 Dipole moment (field-independent basis, Debye):
    X=              1.3059    Y=              2.1609    Z=             -0.6851  Tot=              2.6162

 Test job not archived.
 1\1\GINC-SE336\SP\RHF\Aug-CC-pVDZ\C7H7Cl1N2\OHZDE\09-Apr-2025\0\\#t hf
  aug-cc-pvdz iop(5/13=1,5/36=2,99/5=2) pseudo=read geom=check guess=(r
 ead,tcheck) scf=(maxcycle=1)\\title\\0,1\Cl,0,2.447712,-0.956165,0.267
 066\N,0,1.233865,0.103382,-0.511194\C,0,1.398291,1.515083,-0.062168\N,
 0,0.02331,2.039806,-0.102374\H,0,-0.156494,2.796717,0.543971\C,0,-0.11
 3619,-0.243426,-0.229576\C,0,-0.732608,-1.481543,-0.257393\H,0,-0.1558
 63,-2.383326,-0.420342\C,0,-2.838552,-0.360028,0.185723\H,0,-3.907727,
 -0.41571,0.354375\C,0,-0.836639,0.934202,-0.0032\C,0,-2.113856,-1.5291

 Normal termination of Gaussian 16 at Wed Apr  9 00:53:46 2025.
