 Gaussian 16, Revision C.01,

 ----------------------------------------------------------------------
 #t hf aug-cc-pvdz symm=none int=(grid=ultrafine) guess=(read,tcheck) s
 table=(opt,rrhf)
 ----------------------------------------------------------------------
 -----
 title
 -----
 Symbolic Z-matrix:
 Charge =  0 Multiplicity = 1

 SCF Done:  E(RHF) =  -611.236564002     A.U. after   15 cycles
 Normal termination of Gaussian 16 at Wed Apr  9 00:54:28 2025.
 Gaussian 16:  ES64L-G16RevC.01  3-Jul-2019

 ----------------------------------------------------------------------
 #t hf aug-cc-pvdz iop(5/13=1,5/36=2,99/5=2) pseudo=read geom=check gue
 ss=(read,tcheck) scf=(maxcycle=1)
 ----------------------------------------------------------------------
 -----
 title
 -----
 Structure from the checkpoint file:  "BDE49_nonexpt_975_mol1.chk"
 Charge =  0 Multiplicity = 1

                         Standard orientation:
 ---------------------------------------------------------------------
 Center     Atomic      Atomic             Coordinates (Angstroms)
 Number     Number       Type             X           Y           Z
 ---------------------------------------------------------------------
      1          9           0       -1.108142    2.133995   -0.322024
      2          9           0        2.320273   -0.937588    0.124668
      3          8           0        1.628568    1.826079    0.159161
      4          8           0       -0.087699   -2.445297   -0.169822
      5          7           0       -0.568765    0.977893    0.251035
      6          7           0        1.079792   -0.434381   -0.100109
      7          6           0        0.837116    0.940509    0.101594
      8          6           0       -0.039993   -1.250791   -0.180016
      9          6           0       -1.193261   -0.238577   -0.296643
     10          1           0       -1.382510   -0.083624   -1.366379
     11          6           0       -2.457231   -0.658497    0.432504
     12          1           0       -2.263385   -0.784706    1.498719
     13          1           0       -2.815902   -1.605199    0.025874
     14          1           0       -3.231309    0.099168    0.302167
 ---------------------------------------------------------------------

 SCF Done:  E(RHF) =  -613.700547529     A.U. after    2 cycles

 The electronic state is 1-A.
 Alpha  occ. eigenvalues --  -29.35223 -29.32356 -21.10144 -21.09908 -15.87729
 Alpha  occ. eigenvalues --  -15.85785 -11.58855 -11.58013 -11.50422 -11.42215
 Alpha  occ. eigenvalues --   -1.80086  -1.77119  -1.59880  -1.45590  -1.19838
 Alpha  occ. eigenvalues --   -1.04115  -0.98920  -0.90391  -0.78657  -0.75653
 Alpha  occ. eigenvalues --   -0.72088  -0.67700  -0.61717  -0.59960  -0.58769
 Alpha  occ. eigenvalues --   -0.56423  -0.55702  -0.54072  -0.45852  -0.45401
 Alpha  occ. eigenvalues --   -0.43962  -0.41508  -0.37772  -0.35878  -0.31801
 Alpha  occ. eigenvalues --   -0.29282  -0.26922  -0.24582
 Alpha virt. eigenvalues --    0.03352   0.04912   0.05695   0.06005   0.09038
 Alpha virt. eigenvalues --    0.09682   0.10052   0.10563   0.11368   0.12391
 Alpha virt. eigenvalues --    0.12956   0.13236   0.13702   0.14106   0.14946

 Mulliken charges:
               1
     1  F   -0.271469
     2  F   -0.158699
     3  O   -3.160332
     4  O   -3.267101
     5  N   -1.174979
     6  N   -0.774693
     7  C    4.605570
     8  C    4.341356
     9  C   -2.035062
    10  H    1.700992
    11  C   -3.426726
    12  H    1.229244
    13  H    1.170339
    14  H    1.221556
 Sum of Mulliken charges =  -0.00000

 Dipole moment (field-independent basis, Debye):
    X=             -0.7818    Y=              0.4165    Z=             -0.5101  Tot=              1.0222

 Test job not archived.
 1\1\GINC-SE123\SP\RHF\Aug-CC-pVDZ\C4H4F2N2O2\OHZDE\09-Apr-2025\0\\#t h
 f aug-cc-pvdz iop(5/13=1,5/36=2,99/5=2) pseudo=read geom=check guess=(
 read,tcheck) scf=(maxcycle=1)\\title\\0,1\F,0,-1.108137,2.133998,-0.32
 2024\F,0,2.320271,-0.937594,0.124668\O,0,1.628573,1.826075,0.159161\O,
 0,-0.087705,-2.445297,-0.169822\N,0,-0.568763,0.977894,0.251035\N,0,1.
 079791,-0.434384,-0.100109\C,0,0.837118,0.940507,0.101594\C,0,-0.03999
 6,-1.250791,-0.180016\C,0,-1.193262,-0.238574,-0.296643\H,0,-1.38251,-
 0.083621,-1.366379\C,0,-2.457233,-0.658491,0.432504\H,0,-2.263387,-0.7

 Normal termination of Gaussian 16 at Wed Apr  9 00:54:34 2025.
