 Gaussian 16, Revision C.01,

 ----------------------------------------------------------------------
 #t hf aug-cc-pvdz symm=none int=(grid=ultrafine) guess=(read,tcheck) s
 table=(opt,rrhf)
 ----------------------------------------------------------------------
 -----
 title
 -----
 Symbolic Z-matrix:
 Charge =  0 Multiplicity = 1

 SCF Done:  E(RHF) =  -808.006903874     A.U. after   14 cycles
 Normal termination of Gaussian 16 at Wed Apr  9 00:10:53 2025.
 Gaussian 16:  ES64L-G16RevC.01  3-Jul-2019

 ----------------------------------------------------------------------
 #t hf aug-cc-pvdz iop(5/13=1,5/36=2,99/5=2) pseudo=read geom=check gue
 ss=(read,tcheck) scf=(maxcycle=1)
 ----------------------------------------------------------------------
 -----
 title
 -----
 Structure from the checkpoint file:  "BDE49_nonexpt_2356_mol1.chk"
 Charge =  0 Multiplicity = 1

                         Standard orientation:
 ---------------------------------------------------------------------
 Center     Atomic      Atomic             Coordinates (Angstroms)
 Number     Number       Type             X           Y           Z
 ---------------------------------------------------------------------
      1         14           0        0.829316    0.856571   -0.550437
      2         14           0        2.411705   -0.700036    0.246309
      3          6           0       -0.900520    0.421178    0.174300
      4          8           0       -1.304248    0.815755    1.241071
      5          1           0        0.789957    0.836847   -2.030511
      6          1           0        1.153720    2.217760   -0.071819
      7          8           0       -1.598758   -0.418082   -0.625222
      8          1           0        3.759089   -0.331866   -0.251765
      9          1           0        2.078722   -2.060628   -0.237827
     10          1           0        2.430107   -0.703642    1.727499
     11          6           0       -2.890633   -0.837264   -0.131070
     12          1           0       -3.288738   -1.505238   -0.890912
     13          1           0       -3.543252    0.026200    0.004336
     14          1           0       -2.782932   -1.355788    0.822612
 ---------------------------------------------------------------------

 SCF Done:  E(RHF) =  -809.303621151     A.U. after    2 cycles

 The electronic state is 1-A.
 Alpha  occ. eigenvalues --  -76.23086 -76.22563 -21.09516 -21.05784 -11.48299
 Alpha  occ. eigenvalues --  -11.41691  -5.56733  -5.55967  -2.20560  -2.19127
 Alpha  occ. eigenvalues --   -2.18154  -2.18029  -2.18019  -2.16915  -1.83418
 Alpha  occ. eigenvalues --   -1.66076  -1.02921  -0.85742  -0.77339  -0.71104
 Alpha  occ. eigenvalues --   -0.63710  -0.63106  -0.56845  -0.52988  -0.51455
 Alpha  occ. eigenvalues --   -0.49229  -0.47870  -0.46912  -0.41045  -0.36095
 Alpha  occ. eigenvalues --   -0.32469  -0.28142
 Alpha virt. eigenvalues --    0.03677   0.04349   0.05039   0.05921   0.06489
 Alpha virt. eigenvalues --    0.06553   0.06953   0.08117   0.08147   0.08463
 Alpha virt. eigenvalues --    0.09475   0.09580   0.09974   0.10206   0.12142

 Mulliken charges:
               1
     1  Si   3.939098
     2  Si   4.694722
     3  C    3.367481
     4  O   -2.464991
     5  H   -1.629365
     6  H   -1.668560
     7  O   -2.908928
     8  H   -1.563687
     9  H   -1.474420
    10  H   -1.443043
    11  C   -2.834447
    12  H    1.325919
    13  H    1.335978
    14  H    1.324245
 Sum of Mulliken charges =  -0.00000

 Dipole moment (field-independent basis, Debye):
    X=             -0.6431    Y=             -0.8373    Z=             -0.6538  Tot=              1.2418

 Test job not archived.
 1\1\GINC-SE333\SP\RHF\Aug-CC-pVDZ\C2H8O2Si2\OHZDE\09-Apr-2025\0\\#t hf
  aug-cc-pvdz iop(5/13=1,5/36=2,99/5=2) pseudo=read geom=check guess=(r
 ead,tcheck) scf=(maxcycle=1)\\title\\0,1\Si,0,0.829316,0.856571,-0.550
 437\Si,0,2.411705,-0.700036,0.246309\C,0,-0.90052,0.421178,0.1743\O,0,
 -1.304248,0.815755,1.241071\H,0,0.789957,0.836847,-2.030511\H,0,1.1537
 2,2.21776,-0.071819\O,0,-1.598758,-0.418082,-0.625222\H,0,3.759089,-0.
 331866,-0.251765\H,0,2.078722,-2.060628,-0.237827\H,0,2.430107,-0.7036
 42,1.727499\C,0,-2.890633,-0.837264,-0.13107\H,0,-3.288738,-1.505238,-

 Normal termination of Gaussian 16 at Wed Apr  9 00:10:57 2025.
