 Gaussian 16, Revision C.01,

 ----------------------------------------------------------------------
 #t hf aug-cc-pvdz symm=none int=(grid=ultrafine) guess=(read,tcheck) s
 table=(opt,rrhf)
 ----------------------------------------------------------------------
 -----
 title
 -----
 Symbolic Z-matrix:
 Charge =  0 Multiplicity = 1

 SCF Done:  E(RHF) =  -575.388401809     A.U. after   16 cycles
 Normal termination of Gaussian 16 at Wed Apr  9 00:55:49 2025.
 Gaussian 16:  ES64L-G16RevC.01  3-Jul-2019

 ----------------------------------------------------------------------
 #t hf aug-cc-pvdz iop(5/13=1,5/36=2,99/5=2) pseudo=read geom=check gue
 ss=(read,tcheck) scf=(maxcycle=1)
 ----------------------------------------------------------------------
 -----
 title
 -----
 Structure from the checkpoint file:  "BDE49_nonexpt_950_mol1.chk"
 Charge =  0 Multiplicity = 1

                         Standard orientation:
 ---------------------------------------------------------------------
 Center     Atomic      Atomic             Coordinates (Angstroms)
 Number     Number       Type             X           Y           Z
 ---------------------------------------------------------------------
      1          6           0        0.474965    2.225120    0.699671
      2          1           0        1.229780    2.962420    0.977338
      3          1           0       -0.196886    2.077215    1.549313
      4          1           0       -0.125687    2.627873   -0.119859
      5          9           0       -1.432803   -1.399249    1.114950
      6          8           0       -1.689056    1.071551   -1.289238
      7          7           0       -1.017351   -0.233404    0.422320
      8          6           0       -3.391280   -0.279613   -0.234632
      9          1           0       -4.064645    0.285590   -0.875804
     10          1           0       -3.686815   -0.179284    0.811029
     11          1           0       -3.444639   -1.341427   -0.486359
     12          6           0        0.385166   -0.258893    0.160578
     13          6           0       -1.993326    0.243274   -0.459575
     14          6           0        1.121297    0.929015    0.291862
     15          6           0        0.995185   -1.462196   -0.201118
     16          1           0        0.395418   -2.360474   -0.270441
     17          6           0        3.110307   -0.328635   -0.344447
     18          1           0        4.176585   -0.345722   -0.539075
     19          6           0        2.491348    0.863524    0.015320
     20          1           0        3.081597    1.769389    0.102094
     21          6           0        2.361205   -1.499365   -0.445199
     22          1           0        2.835222   -2.434310   -0.719877
 ---------------------------------------------------------------------

 SCF Done:  E(RHF) =  -577.949256248     A.U. after    2 cycles

 The electronic state is 1-A.
 Alpha  occ. eigenvalues --  -29.29218 -21.05198 -15.82316 -11.53912 -11.52712
 Alpha  occ. eigenvalues --  -11.46994 -11.44570 -11.42218 -11.41719 -11.40173
 Alpha  occ. eigenvalues --  -11.38682 -11.37241  -1.73425  -1.49213  -1.32657
 Alpha  occ. eigenvalues --   -1.15378  -1.13561  -1.06934  -1.00018  -0.89092
 Alpha  occ. eigenvalues --   -0.87425  -0.81937  -0.74189  -0.68546  -0.66262
 Alpha  occ. eigenvalues --   -0.65917  -0.61426  -0.60565  -0.57770  -0.56965
 Alpha  occ. eigenvalues --   -0.55232  -0.53929  -0.52048  -0.51406  -0.49136
 Alpha  occ. eigenvalues --   -0.46650  -0.44297  -0.41362  -0.38802  -0.35203
 Alpha  occ. eigenvalues --   -0.32507  -0.31682  -0.26468  -0.21687
 Alpha virt. eigenvalues --    0.03562   0.04705   0.05072   0.05489   0.05975
 Alpha virt. eigenvalues --    0.06520   0.06589   0.07240   0.07483   0.08642
 Alpha virt. eigenvalues --    0.09996   0.10629   0.11059   0.11908   0.12075

 Mulliken charges:
               1
     1  C   -5.624701
     2  H    1.196793
     3  H    1.222300
     4  H    1.265242
     5  F   -0.745739
     6  O   -3.279005
     7  N   -1.832307
     8  C   -4.469263
     9  H    1.169222
    10  H    1.352435
    11  H    1.320643
    12  C    2.760428
    13  C    4.441375
    14  C    3.439751
    15  C   -4.304861
    16  H    1.918070
    17  C   -2.780971
    18  H    1.526174
    19  C   -0.896984
    20  H    1.731140
    21  C   -0.937814
    22  H    1.528072
 Sum of Mulliken charges =  -0.00000

 Dipole moment (field-independent basis, Debye):
    X=             -0.2493    Y=             -1.8516    Z=              1.3651  Tot=              2.3139

 Test job not archived.
 1\1\GINC-SE166\SP\RHF\Aug-CC-pVDZ\C9H10F1N1O1\OHZDE\09-Apr-2025\0\\#t
 hf aug-cc-pvdz iop(5/13=1,5/36=2,99/5=2) pseudo=read geom=check guess=
 (read,tcheck) scf=(maxcycle=1)\\title\\0,1\C,0,0.474965,2.22512,0.6996
 71\H,0,1.22978,2.96242,0.977338\H,0,-0.196886,2.077215,1.549313\H,0,-0
 .125687,2.627873,-0.119859\F,0,-1.432803,-1.399249,1.11495\O,0,-1.6890
 56,1.071551,-1.289238\N,0,-1.017351,-0.233404,0.42232\C,0,-3.39128,-0.
 279613,-0.234632\H,0,-4.064645,0.28559,-0.875804\H,0,-3.686815,-0.1792
 84,0.811029\H,0,-3.444639,-1.341427,-0.486359\C,0,0.385166,-0.258893,0

 Normal termination of Gaussian 16 at Wed Apr  9 00:56:05 2025.
