 Gaussian 16, Revision C.01,

 ----------------------------------------------------------------------
 #t hf aug-cc-pvdz symm=none int=(grid=ultrafine) guess=(read,tcheck) s
 table=opt
 ----------------------------------------------------------------------
 -----
 title
 -----
 Symbolic Z-matrix:
 Charge =  0 Multiplicity = 2

 SCF Done:  E(UHF) =  -985.023067165     A.U. after   15 cycles

 1\1\GINC-SE044\Stability\UHF\Aug-CC-pVDZ\F3S1Si1\OHZDE\09-Apr-2025\0\\
 #t hf aug-cc-pvdz symm=none int=(grid=ultrafine) guess=(read,tcheck) s
 table=opt\\title\\0,2\S,0,1.786617,-0.061417,0.000292\Si,0,-0.324038,0
 .001467,-0.000016\F,0,-0.760109,1.521175,-0.003397\F,0,-0.955726,-0.71
 0005,-1.262148\F,0,-0.956315,-0.704267,1.26505\\Version=ES64L-G16RevC.
 01\HF=-985.0230672\S2=0.759911\S2-1=0.\S2A=0.750019\RMSD=2.802e-09\Dip
 ole=0.4740651,-0.0441136,0.0001323\Quadrupole=0.7630744,0.6122649,-1.3
 753393,-0.2439194,0.0012611,-0.0020662\PG=Unknown\\@

 Normal termination of Gaussian 16 at Wed Apr  9 00:21:39 2025.
 Gaussian 16:  ES64L-G16RevC.01  3-Jul-2019

 ----------------------------------------------------------------------
 #t hf aug-cc-pvdz iop(5/13=1,5/36=2,99/5=2) pseudo=read geom=check gue
 ss=(read,tcheck) scf=(maxcycle=1)
 ----------------------------------------------------------------------
 -----
 title
 -----
 Structure from the checkpoint file:  "BDE49_nonexpt_2624_mol2.chk"
 Charge =  0 Multiplicity = 2

                         Standard orientation:
 ---------------------------------------------------------------------
 Center     Atomic      Atomic             Coordinates (Angstroms)
 Number     Number       Type             X           Y           Z
 ---------------------------------------------------------------------
      1         16           0        1.786617   -0.061417    0.000292
      2         14           0       -0.324038    0.001467   -0.000016
      3          9           0       -0.760109    1.521175   -0.003397
      4          9           0       -0.955726   -0.710005   -1.262148
      5          9           0       -0.956315   -0.704267    1.265050
 ---------------------------------------------------------------------

 SCF Done:  E(UHF) =  -986.370104365     A.U. after    2 cycles

 The electronic state is 2-A.
 Alpha  occ. eigenvalues --  -76.35252 -75.75111 -29.31599 -29.31204 -29.31202
 Alpha  occ. eigenvalues --  -13.12804 -13.10790 -13.08536  -8.08816  -5.72095
 Alpha  occ. eigenvalues --   -2.36253  -2.35707  -2.32277  -1.16694  -0.99188
 Alpha  occ. eigenvalues --   -0.74481  -0.73646  -0.52822  -0.44571  -0.44301
 Alpha  occ. eigenvalues --   -0.43943  -0.42707  -0.40228  -0.33522  -0.32345
 Alpha  occ. eigenvalues --   -0.32336  -0.31247  -0.30296  -0.28747
 Alpha virt. eigenvalues --    0.04528   0.07220   0.07480   0.09022   0.12638
 Alpha virt. eigenvalues --    0.13026   0.13804   0.17691   0.19655   0.20430
 Alpha virt. eigenvalues --    0.23561   0.24230   0.24390   0.26339   0.27093

  Beta  occ. eigenvalues --  -76.35279 -75.74160 -29.31547 -29.31201 -29.31198
  Beta  occ. eigenvalues --  -13.12292 -13.07973 -13.04971  -8.07754  -5.72138
  Beta  occ. eigenvalues --   -2.36233  -2.35743  -2.32386  -1.09668  -0.96110
  Beta  occ. eigenvalues --   -0.74200  -0.73649  -0.51938  -0.44531  -0.44271
  Beta  occ. eigenvalues --   -0.43879  -0.39844  -0.38656  -0.32327  -0.32234
  Beta  occ. eigenvalues --   -0.31285  -0.30251  -0.27482
  Beta virt. eigenvalues --   -0.00035   0.04753   0.07497   0.07649   0.09105
  Beta virt. eigenvalues --    0.12976   0.13913   0.14868   0.18320   0.21095
  Beta virt. eigenvalues --    0.21160   0.24456   0.24567   0.24771   0.27280

 Mulliken charges and spin densities:
               1          2
     1  S   -1.364207   1.143513
     2  Si   3.726122  -0.230491
     3  F   -0.764105   0.056124
     4  F   -0.798873   0.015485
     5  F   -0.798937   0.015369
 Sum of Mulliken charges =   0.00000   1.00000

 Dipole moment (field-independent basis, Debye):
    X=             -1.5986    Y=              0.1694    Z=             -0.0011  Tot=              1.6075
                          Isotropic Fermi Contact Couplings
        Atom                 a.u.       MegaHertz       Gauss      10(-4) cm-1
     1  S(33)              0.22216      76.30627      27.22798      25.45303
     2  Si(29)            -0.02536      22.53662       8.04163       7.51741
     3  F(19)              0.01006      42.34707      15.11049      14.12546
     4  F(19)             -0.00041      -1.73196      -0.61801      -0.57772
     5  F(19)             -0.00043      -1.81419      -0.64735      -0.60515
 --------------------------------------------------------
       Center         ----  Spin Dipole Couplings  ----
                      3XX-RR        3YY-RR        3ZZ-RR

 Normal termination of Gaussian 16 at Wed Apr  9 00:21:42 2025.
