 Gaussian 16, Revision C.01,

 ----------------------------------------------------------------------
 #t hf aug-cc-pvdz symm=none int=(grid=ultrafine) guess=(read,tcheck) s
 table=opt
 ----------------------------------------------------------------------
 -----
 title
 -----
 Symbolic Z-matrix:
 Charge =  0 Multiplicity = 2

 SCF Done:  E(UHF) =  -824.508543670     A.U. after   17 cycles
 Normal termination of Gaussian 16 at Tue Apr  8 23:17:48 2025.
 Gaussian 16:  ES64L-G16RevC.01  3-Jul-2019

 ----------------------------------------------------------------------
 #t hf aug-cc-pvdz iop(5/13=1,5/36=2,99/5=2) pseudo=read geom=check gue
 ss=(read,tcheck) scf=(maxcycle=1)
 ----------------------------------------------------------------------
 -----
 title
 -----
 Structure from the checkpoint file:  "BDE49_nonexpt_1026_mol2.chk"
 Charge =  0 Multiplicity = 2

                         Standard orientation:
 ---------------------------------------------------------------------
 Center     Atomic      Atomic             Coordinates (Angstroms)
 Number     Number       Type             X           Y           Z
 ---------------------------------------------------------------------
      1          8           0        1.721584   -0.726961   -0.000037
      2         14           0        0.581780    0.460459    0.000003
      3         17           0       -1.384199   -0.181771    0.000011
      4          1           0        0.806917    1.229631    1.241050
      5          1           0        0.806886    1.229738   -1.240981
 ---------------------------------------------------------------------

 SCF Done:  E(UHF) =  -825.156405883     A.U. after    2 cycles

 The electronic state is 2-A.
 Alpha  occ. eigenvalues --  -99.89787 -76.29550 -21.14288 -10.47249  -9.67091
 Alpha  occ. eigenvalues --   -9.66407  -9.66402  -5.63432  -2.29431  -2.24889
 Alpha  occ. eigenvalues --   -2.24732  -1.67093  -1.30206  -0.77753  -0.58984
 Alpha  occ. eigenvalues --   -0.58059  -0.55173  -0.53284  -0.46472  -0.46101
 Alpha  occ. eigenvalues --   -0.43443
 Alpha virt. eigenvalues --    0.04464   0.05518   0.06097   0.06315   0.09348
 Alpha virt. eigenvalues --    0.10887   0.13225   0.13513   0.14811   0.15364
 Alpha virt. eigenvalues --    0.15996   0.17372   0.19932   0.22718   0.22911

  Beta  occ. eigenvalues --  -99.89800 -76.29618 -21.10713 -10.47263  -9.67123
  Beta  occ. eigenvalues --   -9.66422  -9.66420  -5.63537  -2.29375  -2.24985
  Beta  occ. eigenvalues --   -2.24870  -1.53245  -1.30209  -0.76993  -0.57768
  Beta  occ. eigenvalues --   -0.57060  -0.54896  -0.49226  -0.43066  -0.40229
  Beta virt. eigenvalues --    0.03834   0.04496   0.05578   0.06135   0.06848
  Beta virt. eigenvalues --    0.10049   0.10954   0.13281   0.13587   0.14861
  Beta virt. eigenvalues --    0.16008   0.16035   0.17625   0.20393   0.23208

 Mulliken charges and spin densities:
               1          2
     1  O   -1.460829   1.049007
     2  Si   5.699393  -0.118091
     3  Cl  -0.846291  -0.008338
     4  H   -1.696140   0.038713
     5  H   -1.696133   0.038708
 Sum of Mulliken charges =  -0.00000   1.00000

 Dipole moment (field-independent basis, Debye):
    X=              0.9547    Y=              0.5746    Z=             -0.0001  Tot=              1.1143
                          Isotropic Fermi Contact Couplings
        Atom                 a.u.       MegaHertz       Gauss      10(-4) cm-1
     1  O(17)              0.14793     -89.67314     -31.99760     -29.91174
     2  Si(29)            -0.06894      61.26870      21.86220      20.43704
     3  Cl(35)            -0.01262      -5.53232      -1.97407      -1.84538
     4  H(1)               0.01076      48.08716      17.15869      16.04015
     5  H(1)               0.01076      48.08216      17.15691      16.03848
 --------------------------------------------------------
       Center         ----  Spin Dipole Couplings  ----
                      3XX-RR        3YY-RR        3ZZ-RR

 Normal termination of Gaussian 16 at Tue Apr  8 23:17:50 2025.
