 Gaussian 16, Revision C.01,

 ----------------------------------------------------------------------
 #t hf aug-cc-pvdz symm=none int=(grid=ultrafine) guess=(read,tcheck) s
 table=(opt,rrhf)
 ----------------------------------------------------------------------
 -----
 title
 -----
 Symbolic Z-matrix:
 Charge =  0 Multiplicity = 1

 SCF Done:  E(RHF) =  -907.561690499     A.U. after   14 cycles
 Normal termination of Gaussian 16 at Wed Apr  9 00:52:47 2025.
 Gaussian 16:  ES64L-G16RevC.01  3-Jul-2019

 ----------------------------------------------------------------------
 #t hf aug-cc-pvdz iop(5/13=1,5/36=2,99/5=2) pseudo=read geom=check gue
 ss=(read,tcheck) scf=(maxcycle=1)
 ----------------------------------------------------------------------
 -----
 title
 -----
 Structure from the checkpoint file:  "BDE49_nonexpt_920_mol1.chk"
 Charge =  0 Multiplicity = 1

                         Standard orientation:
 ---------------------------------------------------------------------
 Center     Atomic      Atomic             Coordinates (Angstroms)
 Number     Number       Type             X           Y           Z
 ---------------------------------------------------------------------
      1         16           0       -1.760691   -1.085667    0.000007
      2          7           0       -0.045287   -1.039626    0.000007
      3          5           0       -2.221886    0.676746   -0.000015
      4          9           0       -1.324980    1.645351   -0.000051
      5          9           0       -3.510114    0.987153    0.000029
      6          6           0        0.643941   -0.804342   -1.203847
      7          6           0        1.905101   -0.368422   -1.234642
      8          6           0        2.690942    0.013458    0.000002
      9          6           0        1.905103   -0.368416    1.234649
     10          6           0        0.643943   -0.804337    1.203858
     11          6           0        3.056974    1.515254   -0.000002
     12          1           0        0.086245   -1.054118    2.097118
     13          1           0        0.086241   -1.054129   -2.097105
     14          1           0        2.389141   -0.274655   -2.200726
     15          1           0        3.646993    1.772758    0.885110
     16          1           0        2.151423    2.126708   -0.000003
     17          1           0        2.389144   -0.274644    2.200732
     18          1           0        3.646992    1.772753   -0.885117
     19          1           0        3.641133   -0.542054    0.000002
 ---------------------------------------------------------------------

 SCF Done:  E(RHF) =  -909.943170262     A.U. after    2 cycles

 The electronic state is 1-A.
 Alpha  occ. eigenvalues --  -75.73216 -29.27390 -29.27143 -15.77021 -13.23889
 Alpha  occ. eigenvalues --  -13.16013 -13.12118 -11.48894 -11.45452 -11.43056
 Alpha  occ. eigenvalues --  -11.39480 -11.38879 -11.36153  -8.07289  -7.73229
 Alpha  occ. eigenvalues --   -1.49819  -1.26962  -1.19100  -1.12207  -1.06007
 Alpha  occ. eigenvalues --   -0.97964  -0.87932  -0.87250  -0.78307  -0.72208
 Alpha  occ. eigenvalues --   -0.67154  -0.62395  -0.61338  -0.59628  -0.59434
 Alpha  occ. eigenvalues --   -0.54126  -0.53953  -0.52842  -0.50534  -0.47265
 Alpha  occ. eigenvalues --   -0.47101  -0.45610  -0.42666  -0.42113  -0.37376
 Alpha  occ. eigenvalues --   -0.35003  -0.34604  -0.29322  -0.28938  -0.22469
 Alpha virt. eigenvalues --    0.03235   0.03337   0.03793   0.05331   0.05660
 Alpha virt. eigenvalues --    0.05890   0.06114   0.06770   0.07112   0.08450
 Alpha virt. eigenvalues --    0.08734   0.09055   0.10834   0.11708   0.11947

 Mulliken charges:
               1
     1  S   -1.400650
     2  N   -2.560600
     3  B    2.341935
     4  F   -1.207804
     5  F    0.110834
     6  C   -1.421646
     7  C    0.117150
     8  C   -3.094230
     9  C    0.117170
    10  C   -1.421722
    11  C   -3.586204
    12  H    1.853622
    13  H    1.853631
    14  H    1.359610
    15  H    1.209336
    16  H    1.587788
    17  H    1.359613
    18  H    1.209337
    19  H    1.572828
 Sum of Mulliken charges =  -0.00000

 Dipole moment (field-independent basis, Debye):
    X=             -1.1220    Y=              1.6389    Z=              0.0000  Tot=              1.9862

 Test job not archived.
 1\1\GINC-SE073\SP\RHF\Aug-CC-pVDZ\C6H8B1F2N1S1\OHZDE\09-Apr-2025\0\\#t
  hf aug-cc-pvdz iop(5/13=1,5/36=2,99/5=2) pseudo=read geom=check guess
 =(read,tcheck) scf=(maxcycle=1)\\title\\0,1\S,0,-1.760691,-1.085667,0.
 000007\N,0,-0.045287,-1.039626,0.000007\B,0,-2.221886,0.676746,-0.0000
 15\F,0,-1.32498,1.645351,-0.000051\F,0,-3.510114,0.987153,0.000029\C,0
 ,0.643941,-0.804342,-1.203847\C,0,1.905101,-0.368422,-1.234642\C,0,2.6
 90942,0.013458,0.000002\C,0,1.905103,-0.368416,1.234649\C,0,0.643943,-
 0.804337,1.203858\C,0,3.056974,1.515254,-0.000002\H,0,0.086245,-1.0541

 Normal termination of Gaussian 16 at Wed Apr  9 00:52:58 2025.
