 Gaussian 16, Revision C.01,

 ----------------------------------------------------------------------
 #t hf aug-cc-pvdz symm=none int=(grid=ultrafine) guess=(read,tcheck) s
 table=(opt,rrhf)
 ----------------------------------------------------------------------
 -----
 title
 -----
 Symbolic Z-matrix:
 Charge =  0 Multiplicity = 1

 SCF Done:  E(RHF) =  -708.961539236     A.U. after   15 cycles
 Normal termination of Gaussian 16 at Wed Apr  9 00:46:27 2025.
 Gaussian 16:  ES64L-G16RevC.01  3-Jul-2019

 ----------------------------------------------------------------------
 #t hf aug-cc-pvdz iop(5/13=1,5/36=2,99/5=2) pseudo=read geom=check gue
 ss=(read,tcheck) scf=(maxcycle=1)
 ----------------------------------------------------------------------
 -----
 title
 -----
 Structure from the checkpoint file:  "BDE49_nonexpt_794_mol1.chk"
 Charge =  0 Multiplicity = 1

                         Standard orientation:
 ---------------------------------------------------------------------
 Center     Atomic      Atomic             Coordinates (Angstroms)
 Number     Number       Type             X           Y           Z
 ---------------------------------------------------------------------
      1         14           0        0.131198    0.689724    0.461055
      2          5           0       -1.629700   -0.228812    0.015046
      3          7           0        1.461617   -0.603207    0.028585
      4          8           0       -1.691271   -1.551342   -0.258441
      5          8           0       -2.747073    0.547266    0.010929
      6          8           0        1.109215   -1.790522   -0.063549
      7          8           0        2.617035   -0.237255   -0.115736
      8          6           0        0.607977    2.232804   -0.471417
      9          1           0        0.526546    2.083019   -1.550482
     10          1           0        1.632435    2.525852   -0.235284
     11          1           0       -0.064939    3.048894   -0.192099
     12          1           0       -0.809707   -1.963275   -0.225441
     13          1           0       -3.544249    0.041606   -0.195992
     14          1           0        0.389210    0.832270    1.912068
 ---------------------------------------------------------------------

 SCF Done:  E(RHF) =  -710.878161251     A.U. after    2 cycles

 The electronic state is 1-A.
 Alpha  occ. eigenvalues --  -76.25902 -21.10487 -21.09245 -21.07851 -21.06376
 Alpha  occ. eigenvalues --  -15.96241 -11.37881  -7.66159  -5.59769  -2.23895
 Alpha  occ. eigenvalues --   -2.23188  -2.21920  -1.97633  -1.82249  -1.68609
 Alpha  occ. eigenvalues --   -1.66966  -1.07954  -0.99096  -0.79251  -0.74774
 Alpha  occ. eigenvalues --   -0.65723  -0.64843  -0.62854  -0.60807  -0.58847
 Alpha  occ. eigenvalues --   -0.57628  -0.56050  -0.50700  -0.46281  -0.44544
 Alpha  occ. eigenvalues --   -0.37745  -0.36315  -0.32714  -0.31757  -0.31382
 Alpha virt. eigenvalues --    0.02682   0.03739   0.04398   0.05353   0.06741
 Alpha virt. eigenvalues --    0.07177   0.07462   0.08102   0.08641   0.08888
 Alpha virt. eigenvalues --    0.09394   0.09887   0.10358   0.11234   0.12969

 Mulliken charges:
               1
     1  Si   4.636525
     2  B    5.620846
     3  N    3.296089
     4  O   -4.351665
     5  O   -4.073716
     6  O   -2.292409
     7  O   -2.332325
     8  C   -5.001220
     9  H    1.359793
    10  H    1.292904
    11  H    1.356940
    12  H    1.813484
    13  H    1.255301
    14  H   -2.580548
 Sum of Mulliken charges =  -0.00000

 Dipole moment (field-independent basis, Debye):
    X=             -1.4020    Y=              1.8276    Z=             -0.3018  Tot=              2.3231

 Test job not archived.
 1\1\GINC-SE363\SP\RHF\Aug-CC-pVDZ\C1H6B1N1O4Si1\OHZDE\09-Apr-2025\0\\#
 t hf aug-cc-pvdz iop(5/13=1,5/36=2,99/5=2) pseudo=read geom=check gues
 s=(read,tcheck) scf=(maxcycle=1)\\title\\0,1\Si,0,0.131198,0.689724,0.
 461055\B,0,-1.6297,-0.228812,0.015046\N,0,1.461617,-0.603207,0.028585\
 O,0,-1.691271,-1.551342,-0.258441\O,0,-2.747073,0.547266,0.010929\O,0,
 1.109215,-1.790522,-0.063549\O,0,2.617035,-0.237255,-0.115736\C,0,0.60
 7977,2.232804,-0.471417\H,0,0.526546,2.083019,-1.550482\H,0,1.632435,2
 .525852,-0.235284\H,0,-0.064939,3.048894,-0.192099\H,0,-0.809707,-1.96

 Normal termination of Gaussian 16 at Wed Apr  9 00:46:32 2025.
