 Gaussian 16, Revision C.01,

 ----------------------------------------------------------------------
 #t hf aug-cc-pvdz symm=none int=(grid=ultrafine) guess=(read,tcheck) s
 table=(opt,rrhf)
 ----------------------------------------------------------------------
 -----
 title
 -----
 Symbolic Z-matrix:
 Charge =  0 Multiplicity = 1

 SCF Done:  E(RHF) =  -1049.93520042     A.U. after   15 cycles
 Normal termination of Gaussian 16 at Tue Apr  8 22:53:48 2025.
 Gaussian 16:  ES64L-G16RevC.01  3-Jul-2019

 ----------------------------------------------------------------------
 #t hf aug-cc-pvdz iop(5/13=1,5/36=2,99/5=2) pseudo=read geom=check gue
 ss=(read,tcheck) scf=(maxcycle=1)
 ----------------------------------------------------------------------
 -----
 title
 -----
 Structure from the checkpoint file:  "BDE49_expt_1796_mol1.chk"
 Charge =  0 Multiplicity = 1

                         Standard orientation:
 ---------------------------------------------------------------------
 Center     Atomic      Atomic             Coordinates (Angstroms)
 Number     Number       Type             X           Y           Z
 ---------------------------------------------------------------------
      1          8           0        1.107996    0.715696   -0.634606
      2          7           0        2.169749   -0.246023   -0.039457
      3          8           0        1.825702   -1.361341    0.144286
      4          8           0        3.178753    0.357630    0.107515
      5          8           0       -0.086070   -0.011433   -0.876000
      6          6           0       -0.994326    0.287661    0.137303
      7         17           0       -2.423140   -0.689033   -0.227643
      8          9           0       -1.301566    1.586021    0.145188
      9          9           0       -0.502873   -0.018762    1.342894
 ---------------------------------------------------------------------

 SCF Done:  E(RHF) =  -1052.46299146     A.U. after    2 cycles

 The electronic state is 1-A.
 Alpha  occ. eigenvalues --  -99.94232 -29.34668 -29.34473 -21.20765 -21.18955
 Alpha  occ. eigenvalues --  -21.18092 -21.17638 -16.10815 -11.63236 -10.51747
 Alpha  occ. eigenvalues --   -9.71587  -9.70675  -9.70622  -2.13596  -2.02197
 Alpha  occ. eigenvalues --   -1.79546  -1.58923  -1.39094  -1.21743  -0.95814
 Alpha  occ. eigenvalues --   -0.93371  -0.81670  -0.78239  -0.76166  -0.73619
 Alpha  occ. eigenvalues --   -0.68324  -0.58221  -0.57308  -0.54038  -0.49523
 Alpha  occ. eigenvalues --   -0.48852  -0.45010  -0.43260  -0.38656  -0.38024
 Alpha  occ. eigenvalues --   -0.37221  -0.35640  -0.33809  -0.31991  -0.26050
 Alpha virt. eigenvalues --    0.05147   0.07521   0.10175   0.11268   0.11696
 Alpha virt. eigenvalues --    0.12283   0.13407   0.13847   0.14380   0.15238
 Alpha virt. eigenvalues --    0.16628   0.17520   0.18763   0.19466   0.20249

 Mulliken charges:
               1
     1  O   -0.892764
     2  N    6.016670
     3  O   -2.625919
     4  O   -2.608113
     5  O   -1.611913
     6  C    0.594227
     7  Cl  -0.458827
     8  F    0.849448
     9  F    0.737189
 Sum of Mulliken charges =   0.00000

 Dipole moment (field-independent basis, Debye):
    X=              0.9958    Y=              2.6871    Z=              2.5117  Tot=              3.8106

 Test job not archived.
 1\1\GINC-SE070\SP\RHF\Aug-CC-pVDZ\C1Cl1F2N1O4\OHZDE\08-Apr-2025\0\\#t
 hf aug-cc-pvdz iop(5/13=1,5/36=2,99/5=2) pseudo=read geom=check guess=
 (read,tcheck) scf=(maxcycle=1)\\title\\0,1\O,0,1.107996,0.715696,-0.63
 4606\N,0,2.169749,-0.246023,-0.039457\O,0,1.825702,-1.361341,0.144286\
 O,0,3.178753,0.35763,0.107515\O,0,-0.08607,-0.011433,-0.876\C,0,-0.994
 326,0.287661,0.137303\Cl,0,-2.42314,-0.689033,-0.227643\F,0,-1.301566,
 1.586021,0.145188\F,0,-0.502873,-0.018762,1.342894\\Version=ES64L-G16R
 evC.01\State=1-A\HF=-1052.4629915\RMSD=5.886e-02\Dipole=0.3917611,1.05

 Normal termination of Gaussian 16 at Tue Apr  8 22:53:52 2025.
