 Gaussian 16, Revision C.01,

 ----------------------------------------------------------------------
 #t hf aug-cc-pvdz symm=none int=(grid=ultrafine) guess=(read,tcheck) s
 table=(opt,rrhf)
 ----------------------------------------------------------------------
 -----
 title
 -----
 Symbolic Z-matrix:
 Charge =  0 Multiplicity = 1

 SCF Done:  E(RHF) =  -785.840252206     A.U. after   14 cycles
 Normal termination of Gaussian 16 at Tue Apr  8 23:27:38 2025.
 Gaussian 16:  ES64L-G16RevC.01  3-Jul-2019

 ----------------------------------------------------------------------
 #t hf aug-cc-pvdz iop(5/13=1,5/36=2,99/5=2) pseudo=read geom=check gue
 ss=(read,tcheck) scf=(maxcycle=1)
 ----------------------------------------------------------------------
 -----
 title
 -----
 Structure from the checkpoint file:  "BDE49_nonexpt_1211_mol1.chk"
 Charge =  0 Multiplicity = 1

                         Standard orientation:
 ---------------------------------------------------------------------
 Center     Atomic      Atomic             Coordinates (Angstroms)
 Number     Number       Type             X           Y           Z
 ---------------------------------------------------------------------
      1          6           0       -1.798492   -0.579836    0.255063
      2          8           0       -0.938949   -0.065937   -0.800209
      3         16           0        0.627120   -0.698813   -0.860233
      4          6           0        1.564753    0.619391    0.019701
      5          6           0       -2.274525   -1.987104   -0.084592
      6          6           0        1.534393    1.927995   -0.768332
      7          1           0       -1.424937   -2.662332   -0.207472
      8          1           0       -2.849612   -1.979143   -1.014419
      9          1           0        0.509096    2.210285   -1.011538
     10          1           0        2.088826    1.826989   -1.705244
     11          6           0       -2.948603    0.418619    0.384124
     12          1           0       -1.221381   -0.600257    1.188896
     13          6           0       -2.523020    1.810368    0.855511
     14          1           0       -3.678977   -0.004515    1.082860
     15          1           0       -3.448195    0.487118   -0.588442
     16          1           0       -2.038465    1.765197    1.836224
     17          1           0       -3.387016    2.474136    0.943762
     18          1           0       -1.821223    2.262336    0.152731
     19          6           0        2.995640    0.099597    0.248425
     20          1           0        1.074619    0.756098    0.989246
     21          6           0        3.129783   -0.990445    1.316466
     22          1           0        3.609247    0.962164    0.532267
     23          1           0        3.406998   -0.253700   -0.705548
     24          1           0        2.770329   -0.633297    2.286391
     25          1           0        4.175108   -1.285921    1.438216
     26          1           0        2.555985   -1.882617    1.058322
     27          1           0       -2.908227   -2.382619    0.714382
     28          1           0        1.985936    2.737066   -0.183429
 ---------------------------------------------------------------------

 SCF Done:  E(RHF) =  -788.025902608     A.U. after    2 cycles

 The electronic state is 1-A.
 Alpha  occ. eigenvalues --  -75.70350 -21.04990 -13.20714 -13.12858 -13.08597
 Alpha  occ. eigenvalues --  -11.45523 -11.43847 -11.40920 -11.40691 -11.37520
 Alpha  occ. eigenvalues --  -11.37405 -11.35691 -11.34986  -8.04059  -1.74498
 Alpha  occ. eigenvalues --   -1.27306  -1.20812  -1.09233  -1.07123  -1.01294
 Alpha  occ. eigenvalues --   -0.92298  -0.90546  -0.81918  -0.79942  -0.66019
 Alpha  occ. eigenvalues --   -0.62596  -0.61081  -0.60067  -0.59194  -0.58929
 Alpha  occ. eigenvalues --   -0.56936  -0.56298  -0.52673  -0.51235  -0.50380
 Alpha  occ. eigenvalues --   -0.49008  -0.48009  -0.46354  -0.45903  -0.45106
 Alpha  occ. eigenvalues --   -0.43641  -0.40903  -0.36372  -0.28927  -0.21949
 Alpha virt. eigenvalues --    0.04093   0.04491   0.04982   0.05176   0.05208
 Alpha virt. eigenvalues --    0.05695   0.05961   0.06259   0.06427   0.06852
 Alpha virt. eigenvalues --    0.07306   0.07590   0.08025   0.08945   0.09159

 Mulliken charges:
               1
     1  C    0.523796
     2  O   -2.866490
     3  S    0.900639
     4  C   -0.912818
     5  C   -4.313194
     6  C   -4.680888
     7  H    1.351145
     8  H    1.311512
     9  H    1.544911
    10  H    1.375617
    11  C   -3.310416
    12  H    2.365607
    13  C   -4.200512
    14  H    1.436823
    15  H    1.459653
    16  H    1.360648
    17  H    1.032240
    18  H    1.655236
    19  C   -3.112156
    20  H    2.089985
    21  C   -4.264497
    22  H    1.391361
    23  H    1.537109
    24  H    1.287906
    25  H    1.105748
    26  H    1.501358
    27  H    1.236672
    28  H    1.193005
 Sum of Mulliken charges =   0.00000

 Dipole moment (field-independent basis, Debye):
    X=              0.0296    Y=             -0.3290    Z=              0.3755  Tot=              0.5001

 Test job not archived.
 1\1\GINC-SE118\SP\RHF\Aug-CC-pVDZ\C8H18O1S1\OHZDE\08-Apr-2025\0\\#t hf
  aug-cc-pvdz iop(5/13=1,5/36=2,99/5=2) pseudo=read geom=check guess=(r
 ead,tcheck) scf=(maxcycle=1)\\title\\0,1\C,0,-1.798492,-0.579836,0.255
 063\O,0,-0.938949,-0.065937,-0.800209\S,0,0.62712,-0.698813,-0.860233\
 C,0,1.564753,0.619391,0.019701\C,0,-2.274525,-1.987104,-0.084592\C,0,1
 .534393,1.927995,-0.768332\H,0,-1.424937,-2.662332,-0.207472\H,0,-2.84
 9612,-1.979143,-1.014419\H,0,0.509096,2.210285,-1.011538\H,0,2.088826,
 1.826989,-1.705244\C,0,-2.948603,0.418619,0.384124\H,0,-1.221381,-0.60

 Normal termination of Gaussian 16 at Tue Apr  8 23:28:00 2025.
