 Gaussian 16, Revision C.01,

 ----------------------------------------------------------------------
 #t hf aug-cc-pvdz symm=none int=(grid=ultrafine) guess=(read,tcheck) s
 table=(opt,rrhf)
 ----------------------------------------------------------------------
 -----
 title
 -----
 Symbolic Z-matrix:
 Charge =  0 Multiplicity = 1

 SCF Done:  E(RHF) =  -597.293362841     A.U. after   16 cycles
 Normal termination of Gaussian 16 at Wed Apr  9 00:43:38 2025.
 Gaussian 16:  ES64L-G16RevC.01  3-Jul-2019

 ----------------------------------------------------------------------
 #t hf aug-cc-pvdz iop(5/13=1,5/36=2,99/5=2) pseudo=read geom=check gue
 ss=(read,tcheck) scf=(maxcycle=1)
 ----------------------------------------------------------------------
 -----
 title
 -----
 Structure from the checkpoint file:  "BDE49_nonexpt_711_mol1.chk"
 Charge =  0 Multiplicity = 1

                         Standard orientation:
 ---------------------------------------------------------------------
 Center     Atomic      Atomic             Coordinates (Angstroms)
 Number     Number       Type             X           Y           Z
 ---------------------------------------------------------------------
      1          6           0       -1.803756    1.293005   -0.093073
      2          6           0       -0.430927    1.134488   -0.255320
      3          6           0        0.154123   -0.134099   -0.149522
      4          6           0       -2.614897    0.187277    0.156735
      5          6           0       -2.042266   -1.079180    0.246735
      6          6           0       -0.667080   -1.241130    0.096119
      7          1           0       -2.241212    2.282130   -0.169894
      8          1           0        0.187218    2.001252   -0.462933
      9          1           0       -0.233695   -2.231798    0.178714
     10          1           0       -3.684917    0.311813    0.276582
     11          1           0       -2.664940   -1.945527    0.440319
     12          5           0        2.984070    0.646504    0.770248
     13         15           0        1.950609   -0.326758   -0.405540
     14          1           0        2.620697    1.717502    1.135738
     15          1           0        4.089459    0.263445    0.984547
     16          1           0        2.176734   -1.692127   -0.161260
 ---------------------------------------------------------------------

 SCF Done:  E(RHF) =  -598.719523021     A.U. after    2 cycles

 The electronic state is 1-A.
 Alpha  occ. eigenvalues -- -105.16732 -11.51944 -11.43731 -11.43310 -11.41227
 Alpha  occ. eigenvalues --  -11.40883 -11.36714  -7.61997  -2.75171  -1.55356
 Alpha  occ. eigenvalues --   -1.49192  -1.42197  -1.33034  -1.09560  -1.08312
 Alpha  occ. eigenvalues --   -0.87595  -0.86705  -0.81597  -0.71595  -0.66250
 Alpha  occ. eigenvalues --   -0.62153  -0.58691  -0.57066  -0.50989  -0.49885
 Alpha  occ. eigenvalues --   -0.49174  -0.45274  -0.34429  -0.33491  -0.24642
 Alpha  occ. eigenvalues --   -0.14102  -0.04632
 Alpha virt. eigenvalues --    0.03084   0.04153   0.04498   0.05313   0.05591
 Alpha virt. eigenvalues --    0.06224   0.06869   0.07565   0.09377   0.09905
 Alpha virt. eigenvalues --    0.10313   0.10662   0.10912   0.11654   0.12612

 Mulliken charges:
               1
     1  C   -0.531755
     2  C   -3.607744
     3  C    1.970038
     4  C   -2.366669
     5  C   -0.260459
     6  C   -3.547426
     7  H    1.537210
     8  H    1.895852
     9  H    1.842762
    10  H    1.498516
    11  H    1.528045
    12  B    4.814147
    13  P    1.674610
    14  H   -2.249930
    15  H   -2.846524
    16  H   -1.350674
 Sum of Mulliken charges =  -0.00000

 Dipole moment (field-independent basis, Debye):
    X=             -4.4938    Y=             -2.3467    Z=             -7.1876  Tot=              8.7956

 Test job not archived.
 1\1\GINC-SE284\SP\RHF\Aug-CC-pVDZ\C6H8B1P1\OHZDE\09-Apr-2025\0\\#t hf
 aug-cc-pvdz iop(5/13=1,5/36=2,99/5=2) pseudo=read geom=check guess=(re
 ad,tcheck) scf=(maxcycle=1)\\title\\0,1\C,0,-1.803756,1.293005,-0.0930
 73\C,0,-0.430927,1.134488,-0.25532\C,0,0.154123,-0.134099,-0.149522\C,
 0,-2.614897,0.187277,0.156735\C,0,-2.042266,-1.07918,0.246735\C,0,-0.6
 6708,-1.24113,0.096119\H,0,-2.241212,2.28213,-0.169894\H,0,0.187218,2.
 001252,-0.462933\H,0,-0.233695,-2.231798,0.178714\H,0,-3.684917,0.3118
 13,0.276582\H,0,-2.66494,-1.945527,0.440319\B,0,2.98407,0.646504,0.770

 Normal termination of Gaussian 16 at Wed Apr  9 00:43:45 2025.
