 Gaussian 16, Revision C.01,

 ----------------------------------------------------------------------
 #t hf aug-cc-pvdz symm=none int=(grid=ultrafine) guess=(read,tcheck) s
 table=(opt,rrhf)
 ----------------------------------------------------------------------
 -----
 title
 -----
 Symbolic Z-matrix:
 Charge =  0 Multiplicity = 1

 SCF Done:  E(RHF) =  -499.989856269     A.U. after   15 cycles
 Normal termination of Gaussian 16 at Wed Apr  9 00:40:50 2025.
 Gaussian 16:  ES64L-G16RevC.01  3-Jul-2019

 ----------------------------------------------------------------------
 #t hf aug-cc-pvdz iop(5/13=1,5/36=2,99/5=2) pseudo=read geom=check gue
 ss=(read,tcheck) scf=(maxcycle=1)
 ----------------------------------------------------------------------
 -----
 title
 -----
 Structure from the checkpoint file:  "BDE49_nonexpt_599_mol1.chk"
 Charge =  0 Multiplicity = 1

                         Standard orientation:
 ---------------------------------------------------------------------
 Center     Atomic      Atomic             Coordinates (Angstroms)
 Number     Number       Type             X           Y           Z
 ---------------------------------------------------------------------
      1          6           0        1.823443   -1.780376   -0.205068
      2          6           0        0.522192   -1.311159   -0.362351
      3          6           0        2.856288   -0.891373    0.070441
      4          6           0        2.569891    0.467747    0.183174
      5          6           0        1.272524    0.962184    0.049391
      6          6           0        0.225134    0.052891   -0.220178
      7          1           0        2.026922   -2.839064   -0.321312
      8          1           0       -0.265038   -1.999260   -0.648359
      9          5           0       -2.319945   -0.115542    0.032113
     10          8           0       -2.402566   -1.309253    0.705860
     11          8           0       -3.479275    0.543816   -0.288697
     12          1           0        3.373124    1.167270    0.392170
     13          1           0        3.873483   -1.246145    0.187317
     14          6           0        0.988142    2.435894    0.198805
     15          1           0        1.887140    2.976566    0.498145
     16          1           0        0.214720    2.619958    0.951461
     17          1           0        0.638382    2.884600   -0.739320
     18          1           0       -4.250183    0.080164    0.049738
     19          1           0       -1.550007   -1.649433    0.992762
     20          7           0       -1.093786    0.517623   -0.352391
     21          1           0       -1.183272    1.468336   -0.679026
 ---------------------------------------------------------------------

 SCF Done:  E(RHF) =  -502.269125185     A.U. after    2 cycles

 The electronic state is 1-A.
 Alpha  occ. eigenvalues --  -21.05478 -21.04845 -15.71923 -11.52542 -11.46391
 Alpha  occ. eigenvalues --  -11.43457 -11.41510 -11.40808 -11.39243 -11.36248
 Alpha  occ. eigenvalues --   -7.65010  -1.82277  -1.65484  -1.42399  -1.28133
 Alpha  occ. eigenvalues --   -1.14575  -1.07095  -0.99730  -0.87302  -0.84008
 Alpha  occ. eigenvalues --   -0.77404  -0.70949  -0.67097  -0.66364  -0.61034
 Alpha  occ. eigenvalues --   -0.60400  -0.58429  -0.56906  -0.55333  -0.53097
 Alpha  occ. eigenvalues --   -0.51225  -0.48708  -0.46944  -0.44182  -0.42531
 Alpha  occ. eigenvalues --   -0.39516  -0.39013  -0.36078  -0.32617  -0.27980
 Alpha virt. eigenvalues --    0.03174   0.04275   0.04739   0.05161   0.05515
 Alpha virt. eigenvalues --    0.05710   0.06569   0.07172   0.07363   0.08117
 Alpha virt. eigenvalues --    0.08996   0.09225   0.09556   0.10662   0.11558

 Mulliken charges:
               1
     1  C   -1.909453
     2  C   -2.902081
     3  C   -2.750125
     4  C   -0.568468
     5  C    2.617200
     6  C    6.137538
     7  H    1.527834
     8  H    1.847224
     9  B    7.359987
    10  O   -4.384002
    11  O   -4.255897
    12  H    1.803580
    13  H    1.568256
    14  C   -5.462538
    15  H    1.243139
    16  H    1.051370
    17  H    1.110276
    18  H    1.026842
    19  H    1.567536
    20  N   -7.737592
    21  H    1.109376
 Sum of Mulliken charges =   0.00000

 Dipole moment (field-independent basis, Debye):
    X=              0.5013    Y=              0.3348    Z=              0.2438  Tot=              0.6503

 Test job not archived.
 1\1\GINC-SE455\SP\RHF\Aug-CC-pVDZ\C7H10B1N1O2\OHZDE\09-Apr-2025\0\\#t
 hf aug-cc-pvdz iop(5/13=1,5/36=2,99/5=2) pseudo=read geom=check guess=
 (read,tcheck) scf=(maxcycle=1)\\title\\0,1\C,0,1.823443,-1.780376,-0.2
 05068\C,0,0.522192,-1.311159,-0.362351\C,0,2.856288,-0.891373,0.070441
 \C,0,2.569891,0.467747,0.183174\C,0,1.272524,0.962184,0.049391\C,0,0.2
 25134,0.052891,-0.220178\H,0,2.026922,-2.839064,-0.321312\H,0,-0.26503
 8,-1.99926,-0.648359\B,0,-2.319945,-0.115542,0.032113\O,0,-2.402566,-1
 .309253,0.70586\O,0,-3.479275,0.543816,-0.288697\H,0,3.373124,1.16727,

 Normal termination of Gaussian 16 at Wed Apr  9 00:41:03 2025.
