 Gaussian 16, Revision C.01,

 ----------------------------------------------------------------------
 #t hf aug-cc-pvdz symm=none int=(grid=ultrafine) guess=(read,tcheck) s
 table=opt
 ----------------------------------------------------------------------
 -----
 title
 -----
 Symbolic Z-matrix:
 Charge =  0 Multiplicity = 2

 SCF Done:  E(UHF) =  -643.954518876     A.U. after   19 cycles
 Normal termination of Gaussian 16 at Wed Apr  9 00:18:58 2025.
 Gaussian 16:  ES64L-G16RevC.01  3-Jul-2019

 ----------------------------------------------------------------------
 #t hf aug-cc-pvdz iop(5/13=1,5/36=2,99/5=2) pseudo=read geom=check gue
 ss=(read,tcheck) scf=(maxcycle=1)
 ----------------------------------------------------------------------
 -----
 title
 -----
 Structure from the checkpoint file:  "BDE49_nonexpt_2566_mol2.chk"
 Charge =  0 Multiplicity = 2

                         Standard orientation:
 ---------------------------------------------------------------------
 Center     Atomic      Atomic             Coordinates (Angstroms)
 Number     Number       Type             X           Y           Z
 ---------------------------------------------------------------------
      1         16           0       -1.855093    0.363311   -0.000037
      2          6           0       -0.308720   -0.476816    0.000048
      3          8           0       -0.456879   -1.697974   -0.000031
      4          7           0        0.879470    0.164353    0.000026
      5          6           0        1.000977    1.610268    0.000022
      6          1           0        0.010271    2.065461   -0.000001
      7          1           0        1.538956    1.950597   -0.890676
      8          1           0        1.538918    1.950605    0.890740
      9          6           0        2.111760   -0.616252    0.000019
     10          1           0        1.855484   -1.673518    0.000019
     11          1           0        2.706256   -0.388007    0.890244
     12          1           0        2.706249   -0.388004   -0.890211
 ---------------------------------------------------------------------

 SCF Done:  E(UHF) =  -645.274473436     A.U. after    2 cycles

 The electronic state is 2-A.
 Alpha  occ. eigenvalues --  -75.72772 -21.03322 -15.76900 -13.17383 -13.11152
 Alpha  occ. eigenvalues --  -13.03807 -11.50715 -11.42361 -11.40664  -8.06642
 Alpha  occ. eigenvalues --   -1.72173  -1.45128  -1.16463  -1.06675  -0.99533
 Alpha  occ. eigenvalues --   -0.74944  -0.67222  -0.66002  -0.64018  -0.57400
 Alpha  occ. eigenvalues --   -0.54456  -0.53901  -0.52115  -0.46624  -0.34405
 Alpha  occ. eigenvalues --   -0.31395  -0.26350  -0.25307
 Alpha virt. eigenvalues --    0.02655   0.04904   0.05387   0.05546   0.06828
 Alpha virt. eigenvalues --    0.07752   0.07985   0.09384   0.12621   0.12783
 Alpha virt. eigenvalues --    0.12934   0.14079   0.14288   0.14806   0.16133

  Beta  occ. eigenvalues --  -75.71762 -21.02949 -15.76937 -13.16769 -13.05113
  Beta  occ. eigenvalues --  -13.03184 -11.50825 -11.42297 -11.40661  -8.05508
  Beta  occ. eigenvalues --   -1.71515  -1.45023  -1.10587  -1.05784  -0.97835
  Beta  occ. eigenvalues --   -0.74245  -0.67255  -0.64855  -0.63178  -0.57383
  Beta  occ. eigenvalues --   -0.54040  -0.53248  -0.52083  -0.46185  -0.31238
  Beta  occ. eigenvalues --   -0.27981  -0.24869
  Beta virt. eigenvalues --    0.02225   0.04006   0.05389   0.05544   0.06257
  Beta virt. eigenvalues --    0.06832   0.07824   0.08368   0.09485   0.12691
  Beta virt. eigenvalues --    0.12812   0.13033   0.14114   0.14816   0.15099

 Mulliken charges and spin densities:
               1          2
     1  S    0.880356   1.075548
     2  C    2.513736  -0.046435
     3  O   -2.584028   0.043881
     4  N   -2.676588  -0.046206
     5  C   -3.454270  -0.005519
     6  H    1.601067  -0.000409
     7  H    1.353929  -0.001314
     8  H    1.353928  -0.001315
     9  C   -3.241779  -0.011177
    10  H    1.416891  -0.005978
    11  H    1.418385  -0.000538
    12  H    1.418374  -0.000538
 Sum of Mulliken charges =  -0.00000   1.00000

 Dipole moment (field-independent basis, Debye):
    X=              1.1267    Y=              2.0756    Z=             -0.0001  Tot=              2.3617
                          Isotropic Fermi Contact Couplings
        Atom                 a.u.       MegaHertz       Gauss      10(-4) cm-1
     1  S(33)              0.34284     117.75462      42.01778      39.27871
     2  C(13)             -0.01160     -13.03601      -4.65157      -4.34835
     3  O(17)              0.04260     -25.82264      -9.21416      -8.61351
     4  N(14)             -0.00953      -3.08014      -1.09907      -1.02742
     5  C(13)              0.01347      15.13926       5.40206       5.04991
     6  H(1)               0.00052       2.32529       0.82972       0.77563
     7  H(1)              -0.00001      -0.06317      -0.02254      -0.02107
     8  H(1)              -0.00001      -0.06324      -0.02256      -0.02109

 Normal termination of Gaussian 16 at Wed Apr  9 00:19:03 2025.
