 Gaussian 16, Revision C.01,

 ----------------------------------------------------------------------
 #t hf aug-cc-pvdz symm=none int=(grid=ultrafine) guess=(read,tcheck) s
 table=(opt,rrhf)
 ----------------------------------------------------------------------
 -----
 title
 -----
 Symbolic Z-matrix:
 Charge =  0 Multiplicity = 1

 SCF Done:  E(RHF) =  -477.456672084     A.U. after   15 cycles
 Normal termination of Gaussian 16 at Wed Apr  9 00:54:05 2025.
 Gaussian 16:  ES64L-G16RevC.01  3-Jul-2019

 ----------------------------------------------------------------------
 #t hf aug-cc-pvdz iop(5/13=1,5/36=2,99/5=2) pseudo=read geom=check gue
 ss=(read,tcheck) scf=(maxcycle=1)
 ----------------------------------------------------------------------
 -----
 title
 -----
 Structure from the checkpoint file:  "BDE49_nonexpt_961_mol1.chk"
 Charge =  0 Multiplicity = 1

                         Standard orientation:
 ---------------------------------------------------------------------
 Center     Atomic      Atomic             Coordinates (Angstroms)
 Number     Number       Type             X           Y           Z
 ---------------------------------------------------------------------
      1          9           0       -1.860651   -1.229726    0.943001
      2          7           0       -1.457476   -0.734212   -0.414714
      3          6           0       -2.037027    0.617581   -0.505048
      4          7           0       -1.036754    1.592419   -0.035023
      5          1           0       -1.274262    2.100435    0.807888
      6          6           0       -0.060054   -0.473510   -0.280704
      7          6           0        0.972060   -1.397391   -0.352579
      8          1           0        0.759844   -2.436696   -0.570682
      9          6           0        2.500557    0.402576    0.192729
     10          1           0        3.516444    0.735697    0.373957
     11          6           0        0.168495    0.876362    0.013575
     12          6           0        2.267760   -0.943720   -0.114721
     13          1           0        3.100825   -1.634152   -0.166640
     14          6           0        1.462511    1.331684    0.256579
     15          1           0        1.657383    2.373559    0.481544
     16          1           0       -2.973576    0.655513    0.045915
     17          1           0       -2.227010    0.784236   -1.569813
 ---------------------------------------------------------------------

 SCF Done:  E(RHF) =  -479.563047730     A.U. after    2 cycles

 The electronic state is 1-A.
 Alpha  occ. eigenvalues --  -29.23241 -15.81071 -15.75566 -11.53395 -11.46240
 Alpha  occ. eigenvalues --  -11.44575 -11.43940 -11.42618 -11.41814 -11.37813
 Alpha  occ. eigenvalues --   -1.56302  -1.32880  -1.30034  -1.09607  -1.09127
 Alpha  occ. eigenvalues --   -0.93806  -0.89277  -0.85484  -0.75604  -0.69239
 Alpha  occ. eigenvalues --   -0.67496  -0.65983  -0.63395  -0.60137  -0.55716
 Alpha  occ. eigenvalues --   -0.54510  -0.51723  -0.47851  -0.47736  -0.44621
 Alpha  occ. eigenvalues --   -0.41815  -0.37114  -0.32485  -0.27122  -0.22974
 Alpha  occ. eigenvalues --   -0.21172
 Alpha virt. eigenvalues --    0.03575   0.04879   0.04971   0.05786   0.06038
 Alpha virt. eigenvalues --    0.06848   0.07267   0.10018   0.10501   0.10878
 Alpha virt. eigenvalues --    0.12477   0.12823   0.13392   0.13600   0.13933

 Mulliken charges:
               1
     1  F   -0.308049
     2  N   -2.565986
     3  C   -2.329746
     4  N   -3.613842
     5  H    0.596217
     6  C    2.522038
     7  C   -1.942291
     8  H    1.673054
     9  C   -1.504481
    10  H    1.515393
    11  C    2.957354
    12  C   -1.829016
    13  H    1.535721
    14  C   -1.425392
    15  H    1.698860
    16  H    1.495139
    17  H    1.525025
 Sum of Mulliken charges =   0.00000

 Dipole moment (field-independent basis, Debye):
    X=             -0.7746    Y=              0.2583    Z=              1.9996  Tot=              2.1599

 Test job not archived.
 1\1\GINC-SE424\SP\RHF\Aug-CC-pVDZ\C7H7F1N2\OHZDE\09-Apr-2025\0\\#t hf
 aug-cc-pvdz iop(5/13=1,5/36=2,99/5=2) pseudo=read geom=check guess=(re
 ad,tcheck) scf=(maxcycle=1)\\title\\0,1\F,0,-1.860651,-1.229726,0.9430
 01\N,0,-1.457476,-0.734212,-0.414714\C,0,-2.037027,0.617581,-0.505048\
 N,0,-1.036754,1.592419,-0.035023\H,0,-1.274262,2.100435,0.807888\C,0,-
 0.060054,-0.47351,-0.280704\C,0,0.97206,-1.397391,-0.352579\H,0,0.7598
 44,-2.436696,-0.570682\C,0,2.500557,0.402576,0.192729\H,0,3.516444,0.7
 35697,0.373957\C,0,0.168495,0.876362,0.013575\C,0,2.26776,-0.94372,-0.

 Normal termination of Gaussian 16 at Wed Apr  9 00:54:25 2025.
