 Gaussian 16, Revision C.01,

 ----------------------------------------------------------------------
 #t hf aug-cc-pvdz symm=none int=(grid=ultrafine) guess=(read,tcheck) s
 table=(opt,rrhf)
 ----------------------------------------------------------------------
 -----
 title
 -----
 Symbolic Z-matrix:
 Charge =  0 Multiplicity = 1

 SCF Done:  E(RHF) =  -537.135095351     A.U. after   13 cycles
 Normal termination of Gaussian 16 at Tue Apr  8 23:52:19 2025.
 Gaussian 16:  ES64L-G16RevC.01  3-Jul-2019

 ----------------------------------------------------------------------
 #t hf aug-cc-pvdz iop(5/13=1,5/36=2,99/5=2) pseudo=read geom=check gue
 ss=(read,tcheck) scf=(maxcycle=1)
 ----------------------------------------------------------------------
 -----
 title
 -----
 Structure from the checkpoint file:  "BDE49_nonexpt_1895_mol1.chk"
 Charge =  0 Multiplicity = 1

                         Standard orientation:
 ---------------------------------------------------------------------
 Center     Atomic      Atomic             Coordinates (Angstroms)
 Number     Number       Type             X           Y           Z
 ---------------------------------------------------------------------
      1         14           0       -2.268716    0.021302    0.324342
      2          6           0       -0.774244   -0.679702   -0.613733
      3          6           0        0.483677    0.111214   -0.299654
      4          8           0        0.494375    1.332766   -0.339110
      5          7           0        1.577657   -0.629446    0.044628
      6          1           0       -1.938653    0.166524    1.760425
      7          6           0        2.856544   -0.026000    0.380930
      8          1           0        2.714954    1.053384    0.384691
      9          1           0        3.624575   -0.280068   -0.356103
     10          1           0        3.193571   -0.348145    1.370159
     11          1           0       -3.387639   -0.945003    0.194536
     12          1           0       -2.696105    1.320396   -0.230505
     13          1           0        1.505889   -1.633158    0.024014
     14          1           0       -0.980655   -0.571914   -1.683913
     15          1           0       -0.668376   -1.749314   -0.408873
 ---------------------------------------------------------------------

 SCF Done:  E(RHF) =  -538.439912318     A.U. after    2 cycles

 The electronic state is 1-A.
 Alpha  occ. eigenvalues --  -76.21522 -21.01674 -15.76350 -11.50374 -11.39688
 Alpha  occ. eigenvalues --  -11.37816  -5.54974  -2.18696  -2.17259  -2.17211
 Alpha  occ. eigenvalues --   -1.70149  -1.38817  -1.11169  -0.98965  -0.79831
 Alpha  occ. eigenvalues --   -0.74956  -0.68417  -0.63052  -0.61445  -0.56937
 Alpha  occ. eigenvalues --   -0.54544  -0.49173  -0.48096  -0.46380  -0.45635
 Alpha  occ. eigenvalues --   -0.41009  -0.30728  -0.28695
 Alpha virt. eigenvalues --    0.03298   0.04596   0.04995   0.05362   0.05762
 Alpha virt. eigenvalues --    0.06611   0.07125   0.07401   0.08806   0.09400
 Alpha virt. eigenvalues --    0.10225   0.10616   0.12871   0.13022   0.13504

 Mulliken charges:
               1
     1  Si   6.059189
     2  C   -4.588697
     3  C    5.375911
     4  O   -3.265216
     5  N   -2.802448
     6  H   -1.748542
     7  C   -3.395697
     8  H    1.412715
     9  H    1.320706
    10  H    1.347641
    11  H   -1.697343
    12  H   -1.748698
    13  H    0.767852
    14  H    1.441664
    15  H    1.520963
 Sum of Mulliken charges =   0.00000

 Dipole moment (field-independent basis, Debye):
    X=              1.4724    Y=             -2.2543    Z=             -0.1272  Tot=              2.6955

 Test job not archived.
 1\1\GINC-SE092\SP\RHF\Aug-CC-pVDZ\C3H9N1O1Si1\OHZDE\08-Apr-2025\0\\#t
 hf aug-cc-pvdz iop(5/13=1,5/36=2,99/5=2) pseudo=read geom=check guess=
 (read,tcheck) scf=(maxcycle=1)\\title\\0,1\Si,0,2.268716,0.021302,-0.3
 24342\C,0,0.774244,-0.679702,0.613733\C,0,-0.483677,0.111214,0.299654\
 O,0,-0.494375,1.332766,0.33911\N,0,-1.577657,-0.629446,-0.044628\H,0,1
 .938653,0.166524,-1.760425\C,0,-2.856544,-0.026,-0.38093\H,0,-2.714954
 ,1.053384,-0.384691\H,0,-3.624575,-0.280068,0.356103\H,0,-3.193571,-0.
 348145,-1.370159\H,0,3.387639,-0.945003,-0.194536\H,0,2.696105,1.32039

 Normal termination of Gaussian 16 at Tue Apr  8 23:52:24 2025.
