 Gaussian 16, Revision C.01,

 ----------------------------------------------------------------------
 #t hf aug-cc-pvdz symm=none int=(grid=ultrafine) guess=(read,tcheck) s
 table=(opt,rrhf)
 ----------------------------------------------------------------------
 -----
 title
 -----
 Symbolic Z-matrix:
 Charge =  0 Multiplicity = 1

 SCF Done:  E(RHF) =  -1111.03995793     A.U. after   13 cycles
 Normal termination of Gaussian 16 at Wed Apr  9 00:04:28 2025.
 Gaussian 16:  ES64L-G16RevC.01  3-Jul-2019

 ----------------------------------------------------------------------
 #t hf aug-cc-pvdz iop(5/13=1,5/36=2,99/5=2) pseudo=read geom=check gue
 ss=(read,tcheck) scf=(maxcycle=1)
 ----------------------------------------------------------------------
 -----
 title
 -----
 Structure from the checkpoint file:  "BDE49_nonexpt_219_mol1.chk"
 Charge =  0 Multiplicity = 1

                         Standard orientation:
 ---------------------------------------------------------------------
 Center     Atomic      Atomic             Coordinates (Angstroms)
 Number     Number       Type             X           Y           Z
 ---------------------------------------------------------------------
      1         17           0        0.744737    1.677417    0.000001
      2          5           0        0.416332   -0.059423    0.000000
      3          6           0       -2.088249   -0.355340    0.000001
      4          8           0       -3.244649   -0.254884    0.000001
      5          7           0       -0.898886   -0.552389    0.000002
      6         17           0        1.766864   -1.187126   -0.000003
 ---------------------------------------------------------------------

 SCF Done:  E(RHF) =  -1112.31115811     A.U. after    2 cycles

 The electronic state is 1-A.
 Alpha  occ. eigenvalues --  -99.91302 -99.91119 -21.15882 -15.77511 -11.62780
 Alpha  occ. eigenvalues --  -10.48676 -10.48362  -9.68611  -9.68315  -9.68048
 Alpha  occ. eigenvalues --   -9.67869  -9.67854  -9.67695  -7.76605  -1.80538
 Alpha  occ. eigenvalues --   -1.47975  -1.35169  -1.31137  -0.93277  -0.73193
 Alpha  occ. eigenvalues --   -0.68730  -0.64798  -0.64497  -0.59334  -0.58049
 Alpha  occ. eigenvalues --   -0.54048  -0.53807  -0.51787  -0.40394  -0.39002
 Alpha virt. eigenvalues --    0.03082   0.03916   0.04038   0.04357   0.05367
 Alpha virt. eigenvalues --    0.09742   0.11314   0.11991   0.12617   0.12638
 Alpha virt. eigenvalues --    0.13804   0.15509   0.16070   0.16383   0.17227

 Mulliken charges:
               1
     1  Cl  -1.045493
     2  B    2.631343
     3  C    4.577785
     4  O   -2.501627
     5  N   -2.535290
     6  Cl  -1.126719
 Sum of Mulliken charges =  -0.00000

 Dipole moment (field-independent basis, Debye):
    X=             -2.0282    Y=              0.1298    Z=             -0.0000  Tot=              2.0323

 Test job not archived.
 1\1\GINC-SE082\SP\RHF\Aug-CC-pVDZ\C1B1Cl2N1O1\OHZDE\09-Apr-2025\0\\#t
 hf aug-cc-pvdz iop(5/13=1,5/36=2,99/5=2) pseudo=read geom=check guess=
 (read,tcheck) scf=(maxcycle=1)\\title\\0,1\Cl,0,0.744737,1.677417,0.00
 0001\B,0,0.416332,-0.059423,0.\C,0,-2.088249,-0.35534,0.000001\O,0,-3.
 244649,-0.254884,0.000001\N,0,-0.898886,-0.552389,0.000002\Cl,0,1.7668
 64,-1.187126,-0.000003\\Version=ES64L-G16RevC.01\State=1-A\HF=-1112.31
 11581\RMSD=8.634e-02\Dipole=-0.7979437,0.0510524,-0.0000003\Quadrupole
 =1.6812286,-1.1865283,-0.4947003,-0.0904989,0.0000001,0.0000012\PG=C01

 Normal termination of Gaussian 16 at Wed Apr  9 00:04:31 2025.
