 Gaussian 16, Revision C.01,

 ----------------------------------------------------------------------
 #t hf aug-cc-pvdz symm=none int=(grid=ultrafine) guess=(read,tcheck) s
 table=(opt,rrhf)
 ----------------------------------------------------------------------
 -----
 title
 -----
 Symbolic Z-matrix:
 Charge =  0 Multiplicity = 1

 SCF Done:  E(RHF) =  -140.361063383     A.U. after   11 cycles
 Normal termination of Gaussian 16 at Wed Apr  9 00:36:47 2025.
 Gaussian 16:  ES64L-G16RevC.01  3-Jul-2019

 ----------------------------------------------------------------------
 #t hf aug-cc-pvdz iop(5/13=1,5/36=2,99/5=2) pseudo=read geom=check gue
 ss=(read,tcheck) scf=(maxcycle=1)
 ----------------------------------------------------------------------
 -----
 title
 -----
 Structure from the checkpoint file:  "BDE49_nonexpt_536_mol1.chk"
 Charge =  0 Multiplicity = 1

                         Standard orientation:
 ---------------------------------------------------------------------
 Center     Atomic      Atomic             Coordinates (Angstroms)
 Number     Number       Type             X           Y           Z
 ---------------------------------------------------------------------
      1          5           0       -1.293799    0.216098   -0.000021
      2          1           0       -2.305468   -0.415003    0.000034
      3          1           0       -1.280230    1.414915    0.000034
      4          8           0       -0.146861   -0.479612   -0.000005
      5          6           0        1.136646    0.146253    0.000008
      6          1           0        1.682033   -0.178662    0.888099
      7          1           0        1.045619    1.236304    0.000004
      8          1           0        1.682051   -0.178667   -0.888071
 ---------------------------------------------------------------------

 SCF Done:  E(RHF) =  -141.010485080     A.U. after    2 cycles

 The electronic state is 1-A.
 Alpha  occ. eigenvalues --  -21.03545 -11.41284  -7.61946  -1.77544  -1.01652
 Alpha  occ. eigenvalues --   -0.77830  -0.62557  -0.61358  -0.54912  -0.47546
 Alpha  occ. eigenvalues --   -0.39259  -0.37799
 Alpha virt. eigenvalues --    0.03304   0.04319   0.04328   0.04932   0.07052
 Alpha virt. eigenvalues --    0.07645   0.09081   0.11282   0.13102   0.14267
 Alpha virt. eigenvalues --    0.15044   0.15685   0.16841   0.17629   0.22692

 Mulliken charges:
               1
     1  B    7.924036
     2  H   -3.259179
     3  H   -2.975180
     4  O   -3.150752
     5  C   -2.320300
     6  H    1.203804
     7  H    1.373774
     8  H    1.203797
 Sum of Mulliken charges =  -0.00000

 Dipole moment (field-independent basis, Debye):
    X=              1.5589    Y=              0.1789    Z=             -0.0001  Tot=              1.5691

 Test job not archived.
 1\1\GINC-SE247\SP\RHF\Aug-CC-pVDZ\C1H5B1O1\OHZDE\09-Apr-2025\0\\#t hf
 aug-cc-pvdz iop(5/13=1,5/36=2,99/5=2) pseudo=read geom=check guess=(re
 ad,tcheck) scf=(maxcycle=1)\\title\\0,1\B,0,1.293799,0.216098,0.000021
 \H,0,2.305468,-0.415003,-0.000034\H,0,1.28023,1.414915,-0.000034\O,0,0
 .146861,-0.479612,0.000005\C,0,-1.136646,0.146253,-0.000008\H,0,-1.682
 033,-0.178662,-0.888099\H,0,-1.045619,1.236304,-0.000004\H,0,-1.682051
 ,-0.178667,0.888071\\Version=ES64L-G16RevC.01\State=1-A\HF=-141.010485
 1\RMSD=2.505e-01\Dipole=-0.6133063,0.070381,0.0000225\Quadrupole=-0.48

 Normal termination of Gaussian 16 at Wed Apr  9 00:36:49 2025.
