 Gaussian 16, Revision C.01,

 ----------------------------------------------------------------------
 #t hf aug-cc-pvdz symm=none int=(grid=ultrafine) guess=(read,tcheck) s
 table=(opt,rrhf)
 ----------------------------------------------------------------------
 -----
 title
 -----
 Symbolic Z-matrix:
 Charge =  0 Multiplicity = 1

 SCF Done:  E(RHF) =  -724.704948448     A.U. after   16 cycles

 1\1\GINC-SE058\Stability\RHF\Aug-CC-pVDZ\C10H9P1\OHZDE\08-Apr-2025\0\\
 #t hf aug-cc-pvdz symm=none int=(grid=ultrafine) guess=(read,tcheck) s
 table=(opt,rrhf)\\title\\0,1\C,0,-1.690151,-1.555752,-0.001781\C,0,-3.
 012411,-1.183471,0.002458\C,0,-3.369149,0.185333,0.006117\C,0,-2.39584
 5,1.155094,0.005836\C,0,-1.021555,0.804149,0.002431\C,0,-0.660049,-0.5
 79041,-0.002504\H,0,-1.415429,-2.60548,-0.004591\H,0,-3.789775,-1.9392
 21,0.002986\H,0,-4.416392,0.465761,0.009227\H,0,-2.667336,2.20565,0.00
 8333\C,0,0.714819,-0.932151,0.001842\C,0,1.705947,0.026464,0.000166\C,

 Normal termination of Gaussian 16 at Tue Apr  8 23:29:25 2025.
 Gaussian 16:  ES64L-G16RevC.01  3-Jul-2019

 ----------------------------------------------------------------------
 #t hf aug-cc-pvdz iop(5/13=1,5/36=2,99/5=2) pseudo=read geom=check gue
 ss=(read,tcheck) scf=(maxcycle=1)
 ----------------------------------------------------------------------
 -----
 title
 -----
 Structure from the checkpoint file:  "BDE49_nonexpt_1273_mol1.chk"
 Charge =  0 Multiplicity = 1

                         Standard orientation:
 ---------------------------------------------------------------------
 Center     Atomic      Atomic             Coordinates (Angstroms)
 Number     Number       Type             X           Y           Z
 ---------------------------------------------------------------------
      1          6           0       -1.690151   -1.555752   -0.001781
      2          6           0       -3.012411   -1.183471    0.002458
      3          6           0       -3.369149    0.185333    0.006117
      4          6           0       -2.395845    1.155094    0.005836
      5          6           0       -1.021555    0.804149    0.002431
      6          6           0       -0.660049   -0.579041   -0.002504
      7          1           0       -1.415429   -2.605480   -0.004591
      8          1           0       -3.789775   -1.939221    0.002986
      9          1           0       -4.416392    0.465761    0.009227
     10          1           0       -2.667336    2.205650    0.008333
     11          6           0        0.714819   -0.932151    0.001842
     12          6           0        1.705947    0.026464    0.000166
     13          6           0        0.014201    1.774460   -0.001722
     14          6           0        1.333489    1.399987   -0.014332
     15          1           0       -0.253219    2.826161   -0.004879
     16          1           0        2.106237    2.161657   -0.037734
     17         15           0        3.503719   -0.380901   -0.086819
     18          1           0        0.972171   -1.986208    0.012367
     19          1           0        3.376716   -1.786753    0.037603
     20          1           0        3.815462   -0.198483    1.287916
 ---------------------------------------------------------------------

 SCF Done:  E(RHF) =  -726.733199001     A.U. after    2 cycles

 The electronic state is 1-A.
 Alpha  occ. eigenvalues -- -105.18536 -11.52262 -11.49802 -11.45296 -11.44031
 Alpha  occ. eigenvalues --  -11.43424 -11.42801 -11.41771 -11.41702 -11.39652
 Alpha  occ. eigenvalues --  -11.36673  -2.75473  -1.51108  -1.45481  -1.43608
 Alpha  occ. eigenvalues --   -1.39112  -1.23134  -1.14465  -1.07722  -1.04285
 Alpha  occ. eigenvalues --   -0.89743  -0.86877  -0.85134  -0.75086  -0.71691
 Alpha  occ. eigenvalues --   -0.69468  -0.63732  -0.61462  -0.57532  -0.57106
 Alpha  occ. eigenvalues --   -0.54250  -0.53921  -0.49676  -0.45211  -0.44941
 Alpha  occ. eigenvalues --   -0.42538  -0.38682  -0.32253  -0.28175  -0.25835
 Alpha  occ. eigenvalues --   -0.23288  -0.02757
 Alpha virt. eigenvalues --    0.03413   0.04810   0.05148   0.06060   0.06465
 Alpha virt. eigenvalues --    0.06637   0.07362   0.07810   0.08598   0.08989
 Alpha virt. eigenvalues --    0.09955   0.10463   0.10678   0.11269   0.11426

 Mulliken charges:
               1
     1  C   -2.537360
     2  C   -3.965277
     3  C   -3.976494
     4  C   -2.555593
     5  C    6.232548
     6  C    7.072762
     7  H    1.695219
     8  H    1.473471
     9  H    1.471353
    10  H    1.705605
    11  C   -3.355536
    12  C    1.393107
    13  C   -2.594486
    14  C   -6.706951
    15  H    1.838316
    16  H    1.926842
    17  P    0.300940
    18  H    2.107482
    19  H   -1.037425
    20  H   -0.488523
 Sum of Mulliken charges =   0.00000

 Dipole moment (field-independent basis, Debye):
    X=             -0.1610    Y=              1.0308    Z=             -2.0131  Tot=              2.2674

 Test job not archived.
 1\1\GINC-SE058\SP\RHF\Aug-CC-pVDZ\C10H9P1\OHZDE\08-Apr-2025\0\\#t hf a
 ug-cc-pvdz iop(5/13=1,5/36=2,99/5=2) pseudo=read geom=check guess=(rea
 d,tcheck) scf=(maxcycle=1)\\title\\0,1\C,0,-1.690151,-1.555752,-0.0017
 81\C,0,-3.012411,-1.183471,0.002458\C,0,-3.369149,0.185333,0.006117\C,
 0,-2.395845,1.155094,0.005836\C,0,-1.021555,0.804149,0.002431\C,0,-0.6
 60049,-0.579041,-0.002504\H,0,-1.415429,-2.60548,-0.004591\H,0,-3.7897
 75,-1.939221,0.002986\H,0,-4.416392,0.465761,0.009227\H,0,-2.667336,2.
 20565,0.008333\C,0,0.714819,-0.932151,0.001842\C,0,1.705947,0.026464,0

 Normal termination of Gaussian 16 at Tue Apr  8 23:29:38 2025.
