 Gaussian 16, Revision C.01,

 ----------------------------------------------------------------------
 #t hf aug-cc-pvdz symm=none int=(grid=ultrafine) guess=(read,tcheck) s
 table=(opt,rrhf)
 ----------------------------------------------------------------------
 -----
 title
 -----
 Symbolic Z-matrix:
 Charge =  0 Multiplicity = 1

 SCF Done:  E(RHF) =  -974.394962399     A.U. after   13 cycles
 Normal termination of Gaussian 16 at Tue Apr  8 23:42:19 2025.
 Gaussian 16:  ES64L-G16RevC.01  3-Jul-2019

 ----------------------------------------------------------------------
 #t hf aug-cc-pvdz iop(5/13=1,5/36=2,99/5=2) pseudo=read geom=check gue
 ss=(read,tcheck) scf=(maxcycle=1)
 ----------------------------------------------------------------------
 -----
 title
 -----
 Structure from the checkpoint file:  "BDE49_nonexpt_1633_mol1.chk"
 Charge =  0 Multiplicity = 1

                         Standard orientation:
 ---------------------------------------------------------------------
 Center     Atomic      Atomic             Coordinates (Angstroms)
 Number     Number       Type             X           Y           Z
 ---------------------------------------------------------------------
      1         14           0       -0.112975    1.383174   -0.185446
      2         15           0        1.393123   -0.315354   -0.031189
      3          8           0        1.027326   -1.584840   -0.691558
      4          8           0        1.632527   -0.378454    1.561869
      5          6           0       -1.795913    0.789529    0.409938
      6          6           0       -2.419468   -0.335863   -0.439414
      7          1           0       -2.463133    1.660842    0.433625
      8          1           0       -1.688695    0.463747    1.451581
      9          6           0       -3.768339   -0.813196    0.107543
     10          1           0       -1.724941   -1.179284   -0.497318
     11          1           0       -2.550359    0.018735   -1.468144
     12          1           0       -3.663537   -1.209186    1.122294
     13          1           0       -4.188772   -1.606176   -0.517025
     14          1           0       -4.494631    0.004987    0.143595
     15          1           0        2.182879   -1.124971    1.836420
     16          8           0        2.821992    0.259155   -0.555784
     17          1           0        3.055501   -0.141123   -1.402853
     18          1           0       -0.128602    1.739640   -1.623813
     19          1           0        0.396645    2.528963    0.601099
 ---------------------------------------------------------------------

 SCF Done:  E(RHF) =  -976.309446988     A.U. after    2 cycles

 The electronic state is 1-A.
 Alpha  occ. eigenvalues -- -105.28961 -76.22991 -21.11156 -21.10683 -21.01508
 Alpha  occ. eigenvalues --  -11.41510 -11.37946 -11.34807  -5.56743  -2.90777
 Alpha  occ. eigenvalues --   -2.20780  -2.19046  -2.18686  -1.95230  -1.87566
 Alpha  occ. eigenvalues --   -1.78488  -1.49283  -1.39249  -1.25236  -1.20775
 Alpha  occ. eigenvalues --   -1.00264  -0.85215  -0.75199  -0.67476  -0.63890
 Alpha  occ. eigenvalues --   -0.59931  -0.57623  -0.54512  -0.53728  -0.52606
 Alpha  occ. eigenvalues --   -0.48624  -0.46708  -0.45892  -0.44706  -0.40991
 Alpha  occ. eigenvalues --   -0.38932  -0.33606  -0.33467  -0.29242  -0.21371
 Alpha  occ. eigenvalues --   -0.12909
 Alpha virt. eigenvalues --    0.03775   0.04847   0.05242   0.05682   0.06185
 Alpha virt. eigenvalues --    0.06349   0.06622   0.06819   0.07321   0.08970
 Alpha virt. eigenvalues --    0.09224   0.09542   0.10905   0.11139   0.11902

 Mulliken charges:
               1
     1  Si   4.590786
     2  P    6.879117
     3  O   -3.050569
     4  O   -2.795114
     5  C   -4.238635
     6  C   -2.543032
     7  H    1.434585
     8  H    1.712374
     9  C   -3.855168
    10  H    1.630104
    11  H    1.437917
    12  H    1.260685
    13  H    1.161966
    14  H    1.272231
    15  H    0.820425
    16  O   -2.709597
    17  H    0.726932
    18  H   -1.935269
    19  H   -1.799739
 Sum of Mulliken charges =  -0.00000

 Dipole moment (field-independent basis, Debye):
    X=              1.0894    Y=              0.4964    Z=              1.4903  Tot=              1.9116

 Test job not archived.
 1\1\GINC-SE179\SP\RHF\Aug-CC-pVDZ\C3H11O3P1Si1\OHZDE\08-Apr-2025\0\\#t
  hf aug-cc-pvdz iop(5/13=1,5/36=2,99/5=2) pseudo=read geom=check guess
 =(read,tcheck) scf=(maxcycle=1)\\title\\0,1\Si,0,-0.112975,1.383174,-0
 .185446\P,0,1.393123,-0.315354,-0.031189\O,0,1.027326,-1.58484,-0.6915
 58\O,0,1.632527,-0.378454,1.561869\C,0,-1.795913,0.789529,0.409938\C,0
 ,-2.419468,-0.335863,-0.439414\H,0,-2.463133,1.660842,0.433625\H,0,-1.
 688695,0.463747,1.451581\C,0,-3.768339,-0.813196,0.107543\H,0,-1.72494
 1,-1.179284,-0.497318\H,0,-2.550359,0.018735,-1.468144\H,0,-3.663537,-

 Normal termination of Gaussian 16 at Tue Apr  8 23:42:28 2025.
