 Gaussian 16, Revision C.01,

 ----------------------------------------------------------------------
 #t hf aug-cc-pvdz symm=none int=(grid=ultrafine) guess=(read,tcheck) s
 table=(opt,rrhf)
 ----------------------------------------------------------------------
 -----
 title
 -----
 Symbolic Z-matrix:
 Charge =  0 Multiplicity = 1

 SCF Done:  E(RHF) =  -747.517574750     A.U. after   15 cycles
 Normal termination of Gaussian 16 at Wed Apr  9 00:07:06 2025.
 Gaussian 16:  ES64L-G16RevC.01  3-Jul-2019

 ----------------------------------------------------------------------
 #t hf aug-cc-pvdz iop(5/13=1,5/36=2,99/5=2) pseudo=read geom=check gue
 ss=(read,tcheck) scf=(maxcycle=1)
 ----------------------------------------------------------------------
 -----
 title
 -----
 Structure from the checkpoint file:  "BDE49_nonexpt_2201_mol1.chk"
 Charge =  0 Multiplicity = 1

                         Standard orientation:
 ---------------------------------------------------------------------
 Center     Atomic      Atomic             Coordinates (Angstroms)
 Number     Number       Type             X           Y           Z
 ---------------------------------------------------------------------
      1          6           0       -1.539954   -0.045432   -0.000026
      2          6           0       -1.018479    1.256286   -0.000021
      3          6           0        0.351125    1.477025   -0.000011
      4          6           0       -0.644228   -1.122150   -0.000018
      5          6           0        0.726568   -0.914686   -0.000007
      6          6           0        1.230984    0.391283   -0.000004
      7          1           0       -1.052287   -2.125342   -0.000021
      8          1           0        1.402369   -1.762912   -0.000002
      9          8           0        2.564183    0.667737    0.000006
     10         14           0        3.892724   -0.338317    0.000021
     11          1           0       -1.682373    2.112158   -0.000027
     12          6           0       -3.006069   -0.342094   -0.000040
     13          8           0       -3.409212   -1.489679    0.000023
     14          6           0       -3.986450    0.818633    0.000020
     15          1           0        0.762990    2.478453   -0.000009
     16          1           0       -3.846790    1.450433   -0.882055
     17          1           0       -3.846712    1.450414    0.882096
     18          1           0       -4.998025    0.416489    0.000061
     19          1           0        5.049908    0.571860    0.000031
     20          1           0        3.896029   -1.196385   -1.205571
     21          1           0        3.896004   -1.196380    1.205617
 ---------------------------------------------------------------------

 SCF Done:  E(RHF) =  -749.755999833     A.U. after    2 cycles

 The electronic state is 1-A.
 Alpha  occ. eigenvalues --  -76.25617 -21.08191 -21.04156 -11.54489 -11.50311
 Alpha  occ. eigenvalues --  -11.47622 -11.45082 -11.42734 -11.41872 -11.39633
 Alpha  occ. eigenvalues --  -11.37986  -5.59101  -2.25717  -2.21131  -2.20627
 Alpha  occ. eigenvalues --   -1.75479  -1.70209  -1.33537  -1.13711  -1.10987
 Alpha  occ. eigenvalues --   -1.06498  -0.90412  -0.88686  -0.78551  -0.76998
 Alpha  occ. eigenvalues --   -0.68386  -0.65000  -0.62129  -0.60929  -0.59744
 Alpha  occ. eigenvalues --   -0.59313  -0.56467  -0.54368  -0.51363  -0.50622
 Alpha  occ. eigenvalues --   -0.49611  -0.46330  -0.46095  -0.45407  -0.40248
 Alpha  occ. eigenvalues --   -0.38661  -0.34750  -0.28902  -0.28142
 Alpha virt. eigenvalues --    0.03001   0.04533   0.05110   0.05279   0.05503
 Alpha virt. eigenvalues --    0.06419   0.06736   0.06896   0.07510   0.08322
 Alpha virt. eigenvalues --    0.08511   0.08867   0.09783   0.09807   0.11222

 Mulliken charges:
               1
     1  C    1.721071
     2  C    3.053829
     3  C   -4.077558
     4  C   -2.488302
     5  C   -3.619588
     6  C    3.814814
     7  H    1.840565
     8  H    1.918986
     9  O   -4.838409
    10  Si   6.405076
    11  H    1.902164
    12  C    3.564271
    13  O   -3.884930
    14  C   -5.426488
    15  H    1.794462
    16  H    1.282439
    17  H    1.282459
    18  H    1.115782
    19  H   -1.865017
    20  H   -1.747813
    21  H   -1.747814
 Sum of Mulliken charges =  -0.00000

 Dipole moment (field-independent basis, Debye):
    X=              1.2017    Y=              1.3156    Z=              0.0000  Tot=              1.7819

 Test job not archived.
 1\1\GINC-SE329\SP\RHF\Aug-CC-pVDZ\C8H10O2Si1\OHZDE\09-Apr-2025\0\\#t h
 f aug-cc-pvdz iop(5/13=1,5/36=2,99/5=2) pseudo=read geom=check guess=(
 read,tcheck) scf=(maxcycle=1)\\title\\0,1\C,0,-1.539954,-0.045432,-0.0
 00026\C,0,-1.018479,1.256286,-0.000021\C,0,0.351125,1.477025,-0.000011
 \C,0,-0.644228,-1.12215,-0.000018\C,0,0.726568,-0.914686,-0.000007\C,0
 ,1.230984,0.391283,-0.000004\H,0,-1.052287,-2.125342,-0.000021\H,0,1.4
 02369,-1.762912,-0.000002\O,0,2.564183,0.667737,0.000006\Si,0,3.892724
 ,-0.338317,0.000021\H,0,-1.682373,2.112158,-0.000027\C,0,-3.006069,-0.

 Normal termination of Gaussian 16 at Wed Apr  9 00:07:19 2025.
