 Gaussian 16, Revision C.01,

 ----------------------------------------------------------------------
 #t hf aug-cc-pvdz symm=none int=(grid=ultrafine) guess=(read,tcheck) s
 table=(opt,rrhf)
 ----------------------------------------------------------------------
 -----
 title
 -----
 Symbolic Z-matrix:
 Charge =  0 Multiplicity = 1

 SCF Done:  E(RHF) =  -499.983329513     A.U. after   15 cycles
 Normal termination of Gaussian 16 at Wed Apr  9 00:41:22 2025.
 Gaussian 16:  ES64L-G16RevC.01  3-Jul-2019

 ----------------------------------------------------------------------
 #t hf aug-cc-pvdz iop(5/13=1,5/36=2,99/5=2) pseudo=read geom=check gue
 ss=(read,tcheck) scf=(maxcycle=1)
 ----------------------------------------------------------------------
 -----
 title
 -----
 Structure from the checkpoint file:  "BDE49_nonexpt_613_mol1.chk"
 Charge =  0 Multiplicity = 1

                         Standard orientation:
 ---------------------------------------------------------------------
 Center     Atomic      Atomic             Coordinates (Angstroms)
 Number     Number       Type             X           Y           Z
 ---------------------------------------------------------------------
      1          6           0       -2.118761   -1.303759   -0.720437
      2          6           0       -0.939992   -0.609266   -0.973780
      3          6           0       -3.058538   -0.791485    0.174161
      4          6           0       -2.808504    0.418146    0.815958
      5          6           0       -1.626022    1.112261    0.560347
      6          6           0       -0.681332    0.611364   -0.340301
      7          1           0       -0.201331   -1.013617   -1.656313
      8          5           0        2.363887   -0.209185    0.247172
      9          8           0        1.732821   -0.502329    1.435854
     10          8           0        3.623762   -0.718092    0.032866
     11          1           0       -2.304766   -2.248297   -1.219703
     12          1           0       -3.528833    0.820509    1.519551
     13          1           0       -3.974671   -1.335716    0.373713
     14          1           0       -1.434727    2.054147    1.065855
     15          6           0        0.583621    1.402632   -0.647827
     16          1           0        3.891485   -1.287272    0.759540
     17          1           0        0.806805   -0.244030    1.461119
     18          7           0        1.784560    0.590597   -0.776672
     19          1           0        0.699789    2.178056    0.122075
     20          1           0        0.433577    1.938049   -1.591174
     21          1           0        2.345825    0.773917   -1.592307
 ---------------------------------------------------------------------

 SCF Done:  E(RHF) =  -502.256410425     A.U. after    2 cycles

 The electronic state is 1-A.
 Alpha  occ. eigenvalues --  -21.04373 -21.03880 -15.69816 -11.52166 -11.45002
 Alpha  occ. eigenvalues --  -11.43641 -11.42829 -11.41217 -11.40967 -11.36483
 Alpha  occ. eigenvalues --   -7.63384  -1.81051  -1.64282  -1.39145  -1.30990
 Alpha  occ. eigenvalues --   -1.11998  -1.09450  -0.97728  -0.86805  -0.83867
 Alpha  occ. eigenvalues --   -0.76306  -0.71145  -0.67597  -0.65173  -0.64608
 Alpha  occ. eigenvalues --   -0.60692  -0.58166  -0.56488  -0.54917  -0.53089
 Alpha  occ. eigenvalues --   -0.50503  -0.48385  -0.44635  -0.44088  -0.42373
 Alpha  occ. eigenvalues --   -0.38107  -0.35265  -0.33914  -0.33377  -0.31564
 Alpha virt. eigenvalues --    0.03117   0.04399   0.04633   0.04874   0.05504
 Alpha virt. eigenvalues --    0.05828   0.06179   0.07171   0.07639   0.08405
 Alpha virt. eigenvalues --    0.08872   0.08979   0.09519   0.10243   0.10961

 Mulliken charges:
               1
     1  C   -1.621277
     2  C   -1.300950
     3  C   -2.843885
     4  C   -1.736399
     5  C   -2.231381
     6  C    3.774406
     7  H    1.976268
     8  B    7.356047
     9  O   -4.285702
    10  O   -4.465992
    11  H    1.530232
    12  H    1.505416
    13  H    1.571509
    14  H    1.764613
    15  C   -3.771707
    16  H    1.047966
    17  H    1.708942
    18  N   -3.586464
    19  H    1.222479
    20  H    1.250092
    21  H    1.135786
 Sum of Mulliken charges =  -0.00000

 Dipole moment (field-independent basis, Debye):
    X=             -1.1476    Y=              0.4757    Z=             -0.3612  Tot=              1.2937

 Test job not archived.
 1\1\GINC-SE253\SP\RHF\Aug-CC-pVDZ\C7H10B1N1O2\OHZDE\09-Apr-2025\0\\#t
 hf aug-cc-pvdz iop(5/13=1,5/36=2,99/5=2) pseudo=read geom=check guess=
 (read,tcheck) scf=(maxcycle=1)\\title\\0,1\C,0,-2.118761,-1.303759,-0.
 720437\C,0,-0.939992,-0.609266,-0.97378\C,0,-3.058538,-0.791485,0.1741
 61\C,0,-2.808504,0.418146,0.815958\C,0,-1.626022,1.112261,0.560347\C,0
 ,-0.681332,0.611364,-0.340301\H,0,-0.201331,-1.013617,-1.656313\B,0,2.
 363887,-0.209185,0.247172\O,0,1.732821,-0.502329,1.435854\O,0,3.623762
 ,-0.718092,0.032866\H,0,-2.304766,-2.248297,-1.219703\H,0,-3.528833,0.

 Normal termination of Gaussian 16 at Wed Apr  9 00:41:35 2025.
