 Gaussian 16, Revision C.01,

 ----------------------------------------------------------------------
 #t hf aug-cc-pvdz symm=none int=(grid=ultrafine) guess=(read,tcheck) s
 table=(opt,rrhf)
 ----------------------------------------------------------------------
 -----
 title
 -----
 Symbolic Z-matrix:
 Charge =  0 Multiplicity = 1

 SCF Done:  E(RHF) =  -408.363730348     A.U. after   11 cycles
 Normal termination of Gaussian 16 at Tue Apr  8 23:57:29 2025.
 Gaussian 16:  ES64L-G16RevC.01  3-Jul-2019

 ----------------------------------------------------------------------
 #t hf aug-cc-pvdz iop(5/13=1,5/36=2,99/5=2) pseudo=read geom=check gue
 ss=(read,tcheck) scf=(maxcycle=1)
 ----------------------------------------------------------------------
 -----
 title
 -----
 Structure from the checkpoint file:  "BDE49_nonexpt_2029_mol1.chk"
 Charge =  0 Multiplicity = 1

                         Standard orientation:
 ---------------------------------------------------------------------
 Center     Atomic      Atomic             Coordinates (Angstroms)
 Number     Number       Type             X           Y           Z
 ---------------------------------------------------------------------
      1         14           0        1.391847   -0.000000    0.044542
      2          6           0       -0.451836   -0.000000   -0.397214
      3          6           0       -1.157705   -1.271841    0.108417
      4          1           0       -0.696740   -2.181407   -0.286842
      5          1           0       -2.211477   -1.277810   -0.191185
      6          1           0       -1.129779   -1.333531    1.201386
      7          6           0       -1.157705    1.271841    0.108416
      8          1           0       -0.496202   -0.000000   -1.494766
      9          1           0       -1.129779    1.333531    1.201386
     10          1           0       -2.211476    1.277811   -0.191185
     11          1           0       -0.696740    2.181407   -0.286842
     12          1           0        1.567458    0.000001    1.519179
     13          1           0        2.061177    1.204786   -0.506218
     14          1           0        2.061177   -1.204786   -0.506217
 ---------------------------------------------------------------------

 SCF Done:  E(RHF) =  -409.165390442     A.U. after    2 cycles

 The electronic state is 1-A.
 Alpha  occ. eigenvalues --  -76.20275 -11.40115 -11.38394 -11.34417  -5.53851
 Alpha  occ. eigenvalues --   -2.17931  -2.16383  -2.16109  -1.20703  -0.99990
 Alpha  occ. eigenvalues --   -0.84980  -0.73895  -0.62077  -0.58538  -0.55966
 Alpha  occ. eigenvalues --   -0.53355  -0.47737  -0.47047  -0.45266  -0.44463
 Alpha  occ. eigenvalues --   -0.36934
 Alpha virt. eigenvalues --    0.03779   0.05303   0.05725   0.05772   0.06289
 Alpha virt. eigenvalues --    0.06351   0.06780   0.06995   0.07532   0.09745
 Alpha virt. eigenvalues --    0.09949   0.10993   0.11078   0.13792   0.14326

 Mulliken charges:
               1
     1  Si   6.087842
     2  C   -3.210244
     3  C   -3.507638
     4  H    1.304579
     5  H    1.248200
     6  H    1.306962
     7  C   -3.507638
     8  H    1.733284
     9  H    1.306961
    10  H    1.248202
    11  H    1.304580
    12  H   -1.821574
    13  H   -1.746757
    14  H   -1.746758
 Sum of Mulliken charges =   0.00000

 Dipole moment (field-independent basis, Debye):
    X=             -0.9433    Y=             -0.0000    Z=             -0.3951  Tot=              1.0227

 Test job not archived.
 1\1\GINC-SE368\SP\RHF\Aug-CC-pVDZ\C3H10Si1\OHZDE\08-Apr-2025\0\\#t hf
 aug-cc-pvdz iop(5/13=1,5/36=2,99/5=2) pseudo=read geom=check guess=(re
 ad,tcheck) scf=(maxcycle=1)\\title\\0,1\Si,0,1.391847,0.,0.044542\C,0,
 -0.451836,0.,-0.397214\C,0,-1.157705,-1.271841,0.108417\H,0,-0.69674,-
 2.181407,-0.286842\H,0,-2.211477,-1.27781,-0.191185\H,0,-1.129779,-1.3
 33531,1.201386\C,0,-1.157705,1.271841,0.108416\H,0,-0.496202,0.,-1.494
 766\H,0,-1.129779,1.333531,1.201386\H,0,-2.211476,1.277811,-0.191185\H
 ,0,-0.69674,2.181407,-0.286842\H,0,1.567458,0.000001,1.519179\H,0,2.06

 Normal termination of Gaussian 16 at Tue Apr  8 23:57:32 2025.
