 Gaussian 16, Revision C.01,

 ----------------------------------------------------------------------
 #t hf aug-cc-pvdz symm=none int=(grid=ultrafine) guess=(read,tcheck) s
 table=(opt,rrhf)
 ----------------------------------------------------------------------
 -----
 title
 -----
 Symbolic Z-matrix:
 Charge =  0 Multiplicity = 1

 SCF Done:  E(RHF) =  -458.884949114     A.U. after   15 cycles
 Normal termination of Gaussian 16 at Wed Apr  9 00:38:33 2025.
 Gaussian 16:  ES64L-G16RevC.01  3-Jul-2019

 ----------------------------------------------------------------------
 #t hf aug-cc-pvdz iop(5/13=1,5/36=2,99/5=2) pseudo=read geom=check gue
 ss=(read,tcheck) scf=(maxcycle=1)
 ----------------------------------------------------------------------
 -----
 title
 -----
 Structure from the checkpoint file:  "BDE49_nonexpt_558_mol1.chk"
 Charge =  0 Multiplicity = 1

                         Standard orientation:
 ---------------------------------------------------------------------
 Center     Atomic      Atomic             Coordinates (Angstroms)
 Number     Number       Type             X           Y           Z
 ---------------------------------------------------------------------
      1          8           0        0.873027    0.846743   -0.000001
      2          6           0        2.252058    0.982209    0.000002
      3          6           0        0.599871   -0.489179    0.000000
      4          6           0        2.823840   -0.242310   -0.000001
      5          6           0        1.760115   -1.208293    0.000003
      6          1           0        3.882504   -0.448167   -0.000001
      7          1           0        2.618974    1.992750    0.000004
      8          1           0        1.848334   -2.282300    0.000005
      9          5           0       -1.897497    0.003052   -0.000001
     10          8           0       -3.103128   -0.648063   -0.000001
     11          8           0       -1.855559    1.367032    0.000000
     12          1           0       -0.954943    1.709997    0.000000
     13          1           0       -3.835712   -0.025864    0.000000
     14          7           0       -0.730195   -0.843233   -0.000002
     15          1           0       -0.890327   -1.839305   -0.000003
 ---------------------------------------------------------------------

 SCF Done:  E(RHF) =  -460.870956777     A.U. after    2 cycles

 The electronic state is 1-A.
 Alpha  occ. eigenvalues --  -21.11802 -21.05335 -21.04983 -15.74148 -11.51476
 Alpha  occ. eigenvalues --  -11.45771 -11.42082 -11.37069  -7.66012  -1.86255
 Alpha  occ. eigenvalues --   -1.82009  -1.65781  -1.37537  -1.19690  -1.03895
 Alpha  occ. eigenvalues --   -0.83375  -0.82085  -0.76957  -0.73596  -0.65951
 Alpha  occ. eigenvalues --   -0.62474  -0.60919  -0.56487  -0.52611  -0.51557
 Alpha  occ. eigenvalues --   -0.51469  -0.47379  -0.42280  -0.41955  -0.38725
 Alpha  occ. eigenvalues --   -0.36369  -0.34181  -0.27007
 Alpha virt. eigenvalues --    0.03231   0.04319   0.04856   0.05417   0.05690
 Alpha virt. eigenvalues --    0.05952   0.07218   0.08796   0.09258   0.10023
 Alpha virt. eigenvalues --    0.11647   0.12235   0.13386   0.13837   0.14503

 Mulliken charges:
               1
     1  O   -4.074628
     2  C   -0.198195
     3  C    6.949873
     4  C   -0.540871
     5  C   -2.716492
     6  H    1.338854
     7  H    1.500833
     8  H    1.397752
     9  B    6.564508
    10  O   -4.289392
    11  O   -4.155068
    12  H    1.767666
    13  H    0.791299
    14  N   -5.479071
    15  H    1.142933
 Sum of Mulliken charges =   0.00000

 Dipole moment (field-independent basis, Debye):
    X=              0.3057    Y=              0.0666    Z=              0.0000  Tot=              0.3129

 Test job not archived.
 1\1\GINC-SE184\SP\RHF\Aug-CC-pVDZ\C4H6B1N1O3\OHZDE\09-Apr-2025\0\\#t h
 f aug-cc-pvdz iop(5/13=1,5/36=2,99/5=2) pseudo=read geom=check guess=(
 read,tcheck) scf=(maxcycle=1)\\title\\0,1\O,0,0.873027,0.846743,-0.000
 001\C,0,2.252058,0.982209,0.000002\C,0,0.599871,-0.489179,0.\C,0,2.823
 84,-0.24231,-0.000001\C,0,1.760115,-1.208293,0.000003\H,0,3.882504,-0.
 448167,-0.000001\H,0,2.618974,1.99275,0.000004\H,0,1.848334,-2.2823,0.
 000005\B,0,-1.897497,0.003052,-0.000001\O,0,-3.103128,-0.648063,-0.000
 001\O,0,-1.855559,1.367032,0.\H,0,-0.954943,1.709997,0.\H,0,-3.835712,

 Normal termination of Gaussian 16 at Wed Apr  9 00:38:39 2025.
