 Gaussian 16, Revision C.01,

 ----------------------------------------------------------------------
 #t hf aug-cc-pvdz symm=none int=(grid=ultrafine) guess=(read,tcheck) s
 table=opt
 ----------------------------------------------------------------------
 -----
 title
 -----
 Symbolic Z-matrix:
 Charge =  0 Multiplicity = 2

 SCF Done:  E(UHF) =  -604.927571370     A.U. after   19 cycles
 Normal termination of Gaussian 16 at Wed Apr  9 00:18:44 2025.
 Gaussian 16:  ES64L-G16RevC.01  3-Jul-2019

 ----------------------------------------------------------------------
 #t hf aug-cc-pvdz iop(5/13=1,5/36=2,99/5=2) pseudo=read geom=check gue
 ss=(read,tcheck) scf=(maxcycle=1)
 ----------------------------------------------------------------------
 -----
 title
 -----
 Structure from the checkpoint file:  "BDE49_nonexpt_2565_mol2.chk"
 Charge =  0 Multiplicity = 2

                         Standard orientation:
 ---------------------------------------------------------------------
 Center     Atomic      Atomic             Coordinates (Angstroms)
 Number     Number       Type             X           Y           Z
 ---------------------------------------------------------------------
      1         16           0       -1.773124   -0.340858   -0.000028
      2          6           0       -0.104609    0.233176    0.000045
      3          8           0       -0.013680    1.455366   -0.000016
      4          7           0        0.924424   -0.634830    0.000026
      5          6           0        2.319561   -0.209351    0.000011
      6          1           0        0.705990   -1.618823    0.000027
      7          1           0        2.340344    0.878517   -0.000006
      8          1           0        2.836204   -0.574036   -0.891308
      9          1           0        2.836213   -0.574006    0.891338
 ---------------------------------------------------------------------

 SCF Done:  E(UHF) =  -606.037536407     A.U. after    2 cycles

 The electronic state is 2-A.
 Alpha  occ. eigenvalues --  -75.73013 -21.03914 -15.78700 -13.16993 -13.08101
 Alpha  occ. eigenvalues --  -13.03754 -11.51062 -11.41330  -8.06867  -1.72345
 Alpha  occ. eigenvalues --   -1.41319  -1.16394  -1.02028  -0.80726  -0.68112
 Alpha  occ. eigenvalues --   -0.63626  -0.60254  -0.54952  -0.53204  -0.47790
 Alpha  occ. eigenvalues --   -0.34435  -0.33233  -0.26585  -0.26205
 Alpha virt. eigenvalues --    0.02720   0.04945   0.05684   0.06057   0.07932
 Alpha virt. eigenvalues --    0.09987   0.11948   0.12727   0.13217   0.14134
 Alpha virt. eigenvalues --    0.14356   0.15076   0.17296   0.18036   0.18524

  Beta  occ. eigenvalues --  -75.72013 -21.03600 -15.78715 -13.16434 -13.03147
  Beta  occ. eigenvalues --  -13.02093 -11.51171 -11.41323  -8.05745  -1.71772
  Beta  occ. eigenvalues --   -1.41182  -1.10284  -0.99886  -0.80304  -0.66848
  Beta  occ. eigenvalues --   -0.63660  -0.59341  -0.54362  -0.53186  -0.47343
  Beta  occ. eigenvalues --   -0.33085  -0.28154  -0.25061
  Beta virt. eigenvalues --    0.02419   0.03050   0.05685   0.06166   0.06449
  Beta virt. eigenvalues --    0.08004   0.10262   0.12360   0.12778   0.13664
  Beta virt. eigenvalues --    0.14196   0.14387   0.16319   0.17833   0.18061

 Mulliken charges and spin densities:
               1          2
     1  S    1.115872   1.059673
     2  C    2.245788  -0.034766
     3  O   -2.520366   0.032379
     4  N   -2.419083  -0.063178
     5  C   -3.181167  -0.011916
     6  H    0.774454   0.019930
     7  H    1.405107  -0.002555
     8  H    1.289694   0.000217
     9  H    1.289701   0.000217
 Sum of Mulliken charges =   0.00000   1.00000

 Dipole moment (field-independent basis, Debye):
    X=              0.6307    Y=             -2.0922    Z=             -0.0001  Tot=              2.1852
                          Isotropic Fermi Contact Couplings
        Atom                 a.u.       MegaHertz       Gauss      10(-4) cm-1
     1  S(33)              0.32666     112.19960      40.03561      37.42576
     2  C(13)             -0.01105     -12.42650      -4.43408      -4.14503
     3  O(17)              0.03586     -21.73607      -7.75597      -7.25037
     4  N(14)             -0.00533      -1.72341      -0.61496      -0.57487
     5  C(13)              0.00335       3.76107       1.34204       1.25456
     6  H(1)               0.00042       1.85614       0.66232       0.61914
     7  H(1)               0.00001       0.06643       0.02370       0.02216
     8  H(1)              -0.00005      -0.23143      -0.08258      -0.07720

 Normal termination of Gaussian 16 at Wed Apr  9 00:18:47 2025.
