 Gaussian 16, Revision C.01,

 ----------------------------------------------------------------------
 #t hf aug-cc-pvdz symm=none int=(grid=ultrafine) guess=(read,tcheck) s
 table=(opt,rrhf)
 ----------------------------------------------------------------------
 -----
 title
 -----
 Symbolic Z-matrix:
 Charge =  0 Multiplicity = 1

 SCF Done:  E(RHF) =  -792.768690936     A.U. after   16 cycles
 Normal termination of Gaussian 16 at Wed Apr  9 00:54:25 2025.
 Gaussian 16:  ES64L-G16RevC.01  3-Jul-2019

 ----------------------------------------------------------------------
 #t hf aug-cc-pvdz iop(5/13=1,5/36=2,99/5=2) pseudo=read geom=check gue
 ss=(read,tcheck) scf=(maxcycle=1)
 ----------------------------------------------------------------------
 -----
 title
 -----
 Structure from the checkpoint file:  "BDE49_nonexpt_969_mol1.chk"
 Charge =  0 Multiplicity = 1

                         Standard orientation:
 ---------------------------------------------------------------------
 Center     Atomic      Atomic             Coordinates (Angstroms)
 Number     Number       Type             X           Y           Z
 ---------------------------------------------------------------------
      1          9           0       -3.294588    0.037818   -0.261242
      2          7           0       -2.008760    0.104983   -0.852063
      3          6           0       -1.149057   -0.082361    0.091607
      4          7           0       -1.390220   -0.379389    1.387649
      5          1           0       -2.349000   -0.274606    1.683839
      6          1           0       -0.666383   -0.206154    2.067594
      7          6           0        0.281665   -0.007836   -0.404387
      8          9           0        0.386224   -0.046114   -1.714697
      9          7           0        1.013634    1.290870    0.092861
     10          8           0        1.898564    1.685322   -0.626184
     11          8           0        0.630692    1.758300    1.144626
     12          7           0        1.144101   -1.187242    0.179436
     13          8           0        1.384148   -1.121046    1.370136
     14          8           0        1.472062   -2.036070   -0.606889
 ---------------------------------------------------------------------

 SCF Done:  E(RHF) =  -795.975006000     A.U. after    2 cycles

 The electronic state is 1-A.
 Alpha  occ. eigenvalues --  -29.38037 -29.29709 -21.17004 -21.16332 -21.15764
 Alpha  occ. eigenvalues --  -21.15652 -16.06597 -16.06347 -15.84277 -15.83056
 Alpha  occ. eigenvalues --  -11.68455 -11.54970  -2.07447  -2.05485  -1.76803
 Alpha  occ. eigenvalues --   -1.76454  -1.55608  -1.37714  -1.35161  -1.06196
 Alpha  occ. eigenvalues --   -1.03057  -0.96532  -0.82172  -0.80153  -0.79871
 Alpha  occ. eigenvalues --   -0.75532  -0.72468  -0.69529  -0.68807  -0.66622
 Alpha  occ. eigenvalues --   -0.63753  -0.62373  -0.55119  -0.50500  -0.47387
 Alpha  occ. eigenvalues --   -0.44507  -0.42461  -0.39876  -0.38777  -0.38209
 Alpha  occ. eigenvalues --   -0.37495  -0.36478  -0.33450  -0.32107  -0.26451
 Alpha  occ. eigenvalues --   -0.25641
 Alpha virt. eigenvalues --    0.03844   0.06441   0.07441   0.09149   0.09903
 Alpha virt. eigenvalues --    0.10224   0.11245   0.11662   0.12049   0.13222
 Alpha virt. eigenvalues --    0.13952   0.14434   0.14936   0.15864   0.16196

 Mulliken charges:
               1
     1  F   -0.208549
     2  N   -2.060759
     3  C    3.598917
     4  N   -2.955631
     5  H    0.630686
     6  H    0.857453
     7  C    1.995465
     8  F    1.148397
     9  N    4.587117
    10  O   -2.941202
    11  O   -3.063390
    12  N    4.315280
    13  O   -3.017270
    14  O   -2.886514
 Sum of Mulliken charges =  -0.00000

 Dipole moment (field-independent basis, Debye):
    X=             -2.3361    Y=             -0.2763    Z=             -0.5801  Tot=              2.4228

 Test job not archived.
 1\1\GINC-SE229\SP\RHF\Aug-CC-pVDZ\C2H2F2N4O4\OHZDE\09-Apr-2025\0\\#t h
 f aug-cc-pvdz iop(5/13=1,5/36=2,99/5=2) pseudo=read geom=check guess=(
 read,tcheck) scf=(maxcycle=1)\\title\\0,1\F,0,-3.294588,0.037818,-0.26
 1242\N,0,-2.00876,0.104983,-0.852063\C,0,-1.149057,-0.082361,0.091607\
 N,0,-1.39022,-0.379389,1.387649\H,0,-2.349,-0.274606,1.683839\H,0,-0.6
 66383,-0.206154,2.067594\C,0,0.281665,-0.007836,-0.404387\F,0,0.386224
 ,-0.046114,-1.714697\N,0,1.013634,1.29087,0.092861\O,0,1.898564,1.6853
 22,-0.626184\O,0,0.630692,1.7583,1.144626\N,0,1.144101,-1.187242,0.179

 Normal termination of Gaussian 16 at Wed Apr  9 00:54:34 2025.
