 Gaussian 16, Revision C.01,

 ----------------------------------------------------------------------
 #t hf aug-cc-pvdz symm=none int=(grid=ultrafine) guess=(read,tcheck) s
 table=(opt,rrhf)
 ----------------------------------------------------------------------
 -----
 title
 -----
 Symbolic Z-matrix:
 Charge =  0 Multiplicity = 1

 SCF Done:  E(RHF) =  -624.167680949     A.U. after   14 cycles
 Normal termination of Gaussian 16 at Wed Apr  9 00:48:41 2025.
 Gaussian 16:  ES64L-G16RevC.01  3-Jul-2019

 ----------------------------------------------------------------------
 #t hf aug-cc-pvdz iop(5/13=1,5/36=2,99/5=2) pseudo=read geom=check gue
 ss=(read,tcheck) scf=(maxcycle=1)
 ----------------------------------------------------------------------
 -----
 title
 -----
 Structure from the checkpoint file:  "BDE49_nonexpt_805_mol1.chk"
 Charge =  0 Multiplicity = 1

                         Standard orientation:
 ---------------------------------------------------------------------
 Center     Atomic      Atomic             Coordinates (Angstroms)
 Number     Number       Type             X           Y           Z
 ---------------------------------------------------------------------
      1          5           0        2.508913    0.273429   -0.196188
      2          6           0        3.959765   -0.317245   -0.293987
      3          6           0       -0.718088   -0.382287    0.304217
      4          6           0        2.201415    1.709004   -0.744328
      5          1           0        2.923303    2.071163   -1.484292
      6          1           0        2.292165    2.383889    0.124403
      7          1           0        1.185262    1.851770   -1.121133
      8          1           0        4.219902   -1.065577    0.459805
      9          1           0        4.747539    0.442687   -0.339794
     10          1           0        3.991362   -0.845584   -1.262418
     11          6           0       -1.306790    0.762278    0.867377
     12          6           0       -1.490165   -1.139082   -0.591244
     13          6           0       -2.794247   -0.768128   -0.914881
     14          6           0       -3.356754    0.371770   -0.345631
     15          6           0       -2.609797    1.136872    0.548580
     16          1           0       -3.043917    2.022589    0.999832
     17          1           0       -0.745421    1.368307    1.572632
     18          1           0       -3.371729   -1.371035   -1.607407
     19          1           0       -4.372079    0.660791   -0.593731
     20          1           0       -1.071752   -2.035779   -1.037941
     21         14           0        1.063103   -0.860209    0.698090
     22          1           0        1.235137   -2.296522    0.345131
     23          1           0        1.270192   -0.750006    2.171972
 ---------------------------------------------------------------------

 SCF Done:  E(RHF) =  -625.974735086     A.U. after    2 cycles

 The electronic state is 1-A.
 Alpha  occ. eigenvalues --  -76.18936 -11.50906 -11.42549 -11.42023 -11.40212
 Alpha  occ. eigenvalues --  -11.39915 -11.35633 -11.33750 -11.33287  -7.59596
 Alpha  occ. eigenvalues --   -5.52693  -2.17743  -2.16108  -2.15230  -1.33158
 Alpha  occ. eigenvalues --   -1.12987  -1.08589  -1.08493  -1.00620  -0.85832
 Alpha  occ. eigenvalues --   -0.85662  -0.77324  -0.70122  -0.64450  -0.62380
 Alpha  occ. eigenvalues --   -0.57973  -0.57437  -0.56240  -0.55678  -0.54523
 Alpha  occ. eigenvalues --   -0.52889  -0.51793  -0.49933  -0.46004  -0.43998
 Alpha  occ. eigenvalues --   -0.41705  -0.38959  -0.34780  -0.32637  -0.30788
 Alpha virt. eigenvalues --    0.03170   0.03809   0.04332   0.04670   0.05480
 Alpha virt. eigenvalues --    0.05779   0.06328   0.06907   0.07179   0.07540
 Alpha virt. eigenvalues --    0.07812   0.08045   0.08649   0.09166   0.09607

 Mulliken charges:
               1
     1  B    3.664640
     2  C   -5.924833
     3  C   -0.253823
     4  C   -5.899425
     5  H    1.178787
     6  H    0.965573
     7  H    1.347654
     8  H    1.142970
     9  H    1.221604
    10  H    0.719570
    11  C   -2.018138
    12  C   -2.491208
    13  C   -0.854147
    14  C   -2.193422
    15  C   -1.041725
    16  H    1.581511
    17  H    1.883490
    18  H    1.574767
    19  H    1.527260
    20  H    1.841775
    21  Si   5.839978
    22  H   -1.849597
    23  H   -1.963262
 Sum of Mulliken charges =  -0.00000

 Dipole moment (field-independent basis, Debye):
    X=             -0.1913    Y=              0.9733    Z=             -0.8950  Tot=              1.3360

 Test job not archived.
 1\1\GINC-SE038\SP\RHF\Aug-CC-pVDZ\C8H13B1Si1\OHZDE\09-Apr-2025\0\\#t h
 f aug-cc-pvdz iop(5/13=1,5/36=2,99/5=2) pseudo=read geom=check guess=(
 read,tcheck) scf=(maxcycle=1)\\title\\0,1\B,0,2.508913,0.273429,-0.196
 188\C,0,3.959765,-0.317245,-0.293987\C,0,-0.718088,-0.382287,0.304217\
 C,0,2.201415,1.709004,-0.744328\H,0,2.923303,2.071163,-1.484292\H,0,2.
 292165,2.383889,0.124403\H,0,1.185262,1.85177,-1.121133\H,0,4.219902,-
 1.065577,0.459805\H,0,4.747539,0.442687,-0.339794\H,0,3.991362,-0.8455
 84,-1.262418\C,0,-1.30679,0.762278,0.867377\C,0,-1.490165,-1.139082,-0

 Normal termination of Gaussian 16 at Wed Apr  9 00:48:56 2025.
