 Gaussian 16, Revision C.01,

 ----------------------------------------------------------------------
 #t hf aug-cc-pvdz symm=none int=(grid=ultrafine) guess=(read,tcheck) s
 table=(opt,rrhf)
 ----------------------------------------------------------------------
 -----
 title
 -----
 Symbolic Z-matrix:
 Charge =  0 Multiplicity = 1

 SCF Done:  E(RHF) =  -884.010406841     A.U. after   12 cycles
 Normal termination of Gaussian 16 at Wed Apr  9 00:16:33 2025.
 Gaussian 16:  ES64L-G16RevC.01  3-Jul-2019

 ----------------------------------------------------------------------
 #t hf aug-cc-pvdz iop(5/13=1,5/36=2,99/5=2) pseudo=read geom=check gue
 ss=(read,tcheck) scf=(maxcycle=1)
 ----------------------------------------------------------------------
 -----
 title
 -----
 Structure from the checkpoint file:  "BDE49_nonexpt_2507_mol1.chk"
 Charge =  0 Multiplicity = 1

                         Standard orientation:
 ---------------------------------------------------------------------
 Center     Atomic      Atomic             Coordinates (Angstroms)
 Number     Number       Type             X           Y           Z
 ---------------------------------------------------------------------
      1         14           0        1.103849    1.219312   -0.104944
      2          6           0       -0.564495    0.856737    0.693310
      3          6           0       -3.950932   -0.815775   -0.419484
      4          6           0       -2.932721   -0.116550    0.485569
      5          1           0       -3.574232   -1.783495   -0.764866
      6          1           0       -4.893991   -0.994167    0.104227
      7          6           0       -1.590850    0.150889   -0.209180
      8          1           0       -2.757608   -0.726181    1.380395
      9          1           0       -3.349290    0.833363    0.841905
     10          1           0       -1.767679    0.757223   -1.106237
     11          1           0       -1.174450   -0.798357   -0.565458
     12          1           0       -0.963292    1.821904    1.035495
     13          1           0       -0.395382    0.269225    1.604685
     14         16           0        2.198101   -0.536119   -0.725812
     15          6           0        2.611624   -1.288434    0.903269
     16          1           0        1.716548   -1.629468    1.422934
     17          1           0        3.163970   -0.586004    1.527608
     18          1           0        3.245948   -2.149424    0.693667
     19          1           0       -4.172274   -0.212759   -1.305588
     20          1           0        1.935001    1.994955    0.850583
     21          1           0        0.927478    1.989515   -1.358034
 ---------------------------------------------------------------------

 SCF Done:  E(RHF) =  -885.440402891     A.U. after    2 cycles

 The electronic state is 1-A.
 Alpha  occ. eigenvalues --  -76.22571 -75.66459 -13.09076 -13.06004 -13.02907
 Alpha  occ. eigenvalues --  -11.42100 -11.39910 -11.39526 -11.36513 -11.34222
 Alpha  occ. eigenvalues --   -8.00551  -5.56130  -2.20119  -2.18413  -2.18269
 Alpha  occ. eigenvalues --   -1.23903  -1.17006  -1.07309  -0.94006  -0.91493
 Alpha  occ. eigenvalues --   -0.82948  -0.71887  -0.65025  -0.59061  -0.58787
 Alpha  occ. eigenvalues --   -0.58443  -0.57456  -0.53163  -0.50321  -0.49842
 Alpha  occ. eigenvalues --   -0.47425  -0.45605  -0.45045  -0.42069  -0.38579
 Alpha  occ. eigenvalues --   -0.31484  -0.24811
 Alpha virt. eigenvalues --    0.03011   0.04226   0.04557   0.04991   0.05619
 Alpha virt. eigenvalues --    0.05712   0.06110   0.06307   0.07000   0.07664
 Alpha virt. eigenvalues --    0.08378   0.08640   0.09145   0.09784   0.10342

 Mulliken charges:
               1
     1  Si   6.217715
     2  C   -4.217538
     3  C   -4.059081
     4  C   -2.725980
     5  H    1.323632
     6  H    1.108065
     7  C   -2.593354
     8  H    1.410239
     9  H    1.396755
    10  H    1.680027
    11  H    1.632810
    12  H    1.507155
    13  H    1.494779
    14  S   -1.066064
    15  C   -4.708967
    16  H    1.451883
    17  H    1.405034
    18  H    1.403898
    19  H    1.288600
    20  H   -1.931914
    21  H   -2.017696
 Sum of Mulliken charges =  -0.00000

 Dipole moment (field-independent basis, Debye):
    X=             -0.1533    Y=             -1.4093    Z=             -0.0461  Tot=              1.4183

 Test job not archived.
 1\1\GINC-SE423\SP\RHF\Aug-CC-pVDZ\C5H14S1Si1\OHZDE\09-Apr-2025\0\\#t h
 f aug-cc-pvdz iop(5/13=1,5/36=2,99/5=2) pseudo=read geom=check guess=(
 read,tcheck) scf=(maxcycle=1)\\title\\0,1\Si,0,1.103849,1.219312,-0.10
 4944\C,0,-0.564495,0.856737,0.69331\C,0,-3.950932,-0.815775,-0.419484\
 C,0,-2.932721,-0.11655,0.485569\H,0,-3.574232,-1.783495,-0.764866\H,0,
 -4.893991,-0.994167,0.104227\C,0,-1.59085,0.150889,-0.20918\H,0,-2.757
 608,-0.726181,1.380395\H,0,-3.34929,0.833363,0.841905\H,0,-1.767679,0.
 757223,-1.106237\H,0,-1.17445,-0.798357,-0.565458\H,0,-0.963292,1.8219

 Normal termination of Gaussian 16 at Wed Apr  9 00:16:42 2025.
