 Gaussian 16, Revision C.01,

 ----------------------------------------------------------------------
 #t hf aug-cc-pvdz symm=none int=(grid=ultrafine) guess=(read,tcheck) s
 table=(opt,rrhf)
 ----------------------------------------------------------------------
 -----
 title
 -----
 Symbolic Z-matrix:
 Charge =  0 Multiplicity = 1

 SCF Done:  E(RHF) =  -997.710219521     A.U. after   16 cycles
 Normal termination of Gaussian 16 at Wed Apr  9 02:19:47 2025.
 Gaussian 16:  ES64L-G16RevC.01  3-Jul-2019

 ----------------------------------------------------------------------
 #t hf aug-cc-pvdz iop(5/13=1,5/36=2,99/5=2) pseudo=read geom=check gue
 ss=(read,tcheck) scf=(maxcycle=1)
 ----------------------------------------------------------------------
 -----
 title
 -----
 Structure from the checkpoint file:  "BH10_82_forward_mol2.chk"
 Charge =  0 Multiplicity = 1

                         Standard orientation:
 ---------------------------------------------------------------------
 Center     Atomic      Atomic             Coordinates (Angstroms)
 Number     Number       Type             X           Y           Z
 ---------------------------------------------------------------------
      1          6           0        0.009672   -0.131161   -0.686832
      2          6           0       -2.373926   -0.595372   -0.170093
      3          6           0        1.212802   -0.640533   -1.000010
      4          6           0       -2.921248    0.731856    0.091767
      5          6           0       -4.393791    0.503301    0.409589
      6          6           0       -1.128507   -0.985416   -0.503201
      7          6           0       -3.467203   -1.572653   -0.009926
      8          6           0        2.475343    0.118708   -1.161182
      9          6           0        2.289133    1.615200   -1.422540
     10          1           0        1.835463    2.124201   -0.569563
     11          1           0        1.639901    1.785172   -2.285033
     12          1           0        3.034250   -0.330310   -1.992323
     13          1           0        3.246591    2.098480   -1.623594
     14          7           0       -2.286649    1.827052    0.057583
     15          6           0       -2.979272    3.064546    0.343125
     16          1           0       -4.043895    2.961520    0.580961
     17          1           0       -2.486001    3.560613    1.182562
     18          1           0       -2.882439    3.730717   -0.517648
     19          8           0       -3.444259   -2.762424   -0.131091
     20          8           0       -4.609175   -0.905158    0.322435
     21          1           0       -5.050992    0.999775   -0.306782
     22          1           0       -4.653140    0.831868    1.417674
     23         14           0        3.584957   -0.197503    0.373499
     24          6           0        3.758827   -2.047586    0.632696
     25          6           0        5.271355    0.558080    0.045900
     26          6           0        2.792187    0.595831    1.874229
     27          1           0        4.461322   -2.257846    1.443193
     28          1           0        2.805224   -2.509550    0.897933
     29          1           0        4.135377   -2.545932   -0.264501
     30          1           0        5.728436    0.138889   -0.854081
     31          1           0        5.213217    1.641267   -0.081035
     32          1           0        5.948411    0.361688    0.881335
     33          1           0        2.744930    1.682971    1.779323
     34          1           0        1.774064    0.229139    2.022992
     35          1           0        3.364094    0.369240    2.777674
     36          1           0       -0.144825    0.931956   -0.559833
     37          1           0        1.289159   -1.720912   -1.111150
     38          1           0       -0.986756   -2.055421   -0.642056
 ---------------------------------------------------------------------

 SCF Done:  E(RHF) =  -1001.23164715     A.U. after    2 cycles

 The electronic state is 1-A.
 Alpha  occ. eigenvalues --  -76.19144 -21.08519 -21.03360 -15.72961 -11.53356
 Alpha  occ. eigenvalues --  -11.51012 -11.48858 -11.47066 -11.45504 -11.43973
 Alpha  occ. eigenvalues --  -11.42742 -11.40334 -11.39460 -11.38257 -11.35521
 Alpha  occ. eigenvalues --  -11.35384 -11.35023  -5.53438  -2.17644  -2.17351
 Alpha  occ. eigenvalues --   -2.17246  -1.84671  -1.65983  -1.40565  -1.28916
 Alpha  occ. eigenvalues --   -1.20299  -1.11102  -1.07392  -1.05506  -1.01748
 Alpha  occ. eigenvalues --   -1.01619  -0.99585  -0.96950  -0.89401  -0.79449
 Alpha  occ. eigenvalues --   -0.75847  -0.74052  -0.67152  -0.67095  -0.66290
 Alpha  occ. eigenvalues --   -0.64988  -0.60822  -0.59291  -0.59282  -0.59000
 Alpha  occ. eigenvalues --   -0.57651  -0.57187  -0.56870  -0.55724  -0.54795
 Alpha  occ. eigenvalues --   -0.54466  -0.54182  -0.53953  -0.53173  -0.51259
 Alpha  occ. eigenvalues --   -0.49327  -0.47830  -0.47250  -0.46317  -0.43761
 Alpha  occ. eigenvalues --   -0.42096  -0.39640  -0.39503  -0.36571  -0.35088
 Alpha  occ. eigenvalues --   -0.31112  -0.28137  -0.27778
 Alpha virt. eigenvalues --    0.02833   0.03943   0.04510   0.04701   0.05001
 Alpha virt. eigenvalues --    0.05195   0.05253   0.05583   0.05835   0.06218
 Alpha virt. eigenvalues --    0.06328   0.06645   0.07103   0.07215   0.07617

 Mulliken charges:
               1
     1  C    2.186810
     2  C    2.817627
     3  C   -2.292438
     4  C    1.515243
     5  C   -1.518155
     6  C   -0.480033
     7  C    2.626039
     8  C   -3.945859
     9  C   -5.241646
    10  H    1.513159
    11  H    1.301625
    12  H    1.082773
    13  H    1.130086
    14  N   -4.653784
    15  C   -3.988593
    16  H    1.495858
    17  H    1.484792
    18  H    1.497530
    19  O   -3.746061
    20  O   -3.850907
    21  H    1.219404
    22  H    1.222240
    23  Si  12.771788
    24  C   -6.349724
    25  C   -6.323990
    26  C   -6.561530
    27  H    1.023596
    28  H    1.114311
    29  H    0.863091
    30  H    0.952764
    31  H    1.066009
    32  H    1.080907
    33  H    1.130021
    34  H    1.014102
    35  H    0.940619
    36  H    2.121467
    37  H    1.857058
    38  H    1.923802
 Sum of Mulliken charges =  -0.00000

 Dipole moment (field-independent basis, Debye):
    X=              3.2007    Y=              2.4687    Z=              0.0702  Tot=              4.0427

 Test job not archived.
 1\1\GINC-SE367\SP\RHF\Aug-CC-pVDZ\C13H21N1O2Si1\OHZDE\09-Apr-2025\0\\#
 t hf aug-cc-pvdz iop(5/13=1,5/36=2,99/5=2) pseudo=read geom=check gues
 s=(read,tcheck) scf=(maxcycle=1)\\title\\0,1\C,0,0.009672,-0.131161,-0
 .686832\C,0,-2.373926,-0.595372,-0.170093\C,0,1.212802,-0.640533,-1.00
 001\C,0,-2.921248,0.731856,0.091767\C,0,-4.393791,0.503301,0.409589\C,
 0,-1.128507,-0.985416,-0.503201\C,0,-3.467203,-1.572653,-0.009926\C,0,
 2.475343,0.118708,-1.161182\C,0,2.289133,1.6152,-1.42254\H,0,1.835463,
 2.124201,-0.569563\H,0,1.639901,1.785172,-2.285033\H,0,3.03425,-0.3303

 Normal termination of Gaussian 16 at Wed Apr  9 02:20:36 2025.
