 Gaussian 16, Revision C.01,

 ----------------------------------------------------------------------
 #t hf aug-cc-pvdz symm=none int=(grid=ultrafine) guess=(read,tcheck) s
 table=(opt,rrhf)
 ----------------------------------------------------------------------
 -----
 title
 -----
 Symbolic Z-matrix:
 Charge =  0 Multiplicity = 1

 SCF Done:  E(RHF) =  -914.745085876     A.U. after   17 cycles
 Normal termination of Gaussian 16 at Wed Apr  9 00:55:58 2025.
 Gaussian 16:  ES64L-G16RevC.01  3-Jul-2019

 ----------------------------------------------------------------------
 #t hf aug-cc-pvdz iop(5/13=1,5/36=2,99/5=2) pseudo=read geom=check gue
 ss=(read,tcheck) scf=(maxcycle=1)
 ----------------------------------------------------------------------
 -----
 title
 -----
 Structure from the checkpoint file:  "BH10-RE_113_mol3.chk"
 Charge =  0 Multiplicity = 1

                         Standard orientation:
 ---------------------------------------------------------------------
 Center     Atomic      Atomic             Coordinates (Angstroms)
 Number     Number       Type             X           Y           Z
 ---------------------------------------------------------------------
      1         16           0        3.061134    0.482276   -0.000014
      2          6           0        1.316105    0.257393   -0.000003
      3          6           0        0.534038    1.413644    0.000011
      4          6           0       -0.841057    1.302080    0.000009
      5          6           0       -1.445806    0.046491   -0.000002
      6          6           0       -0.656112   -1.098225   -0.000012
      7          6           0        0.725865   -1.000627   -0.000015
      8          1           0        0.995687    2.394684    0.000025
      9          1           0       -1.467838    2.184334    0.000020
     10          1           0       -1.126393   -2.072094   -0.000020
     11          1           0        1.340495   -1.889374   -0.000024
     12          6           0       -2.924529   -0.015584   -0.000000
     13          8           0       -3.653060    0.942615    0.000010
     14          8           0       -3.400628   -1.276861   -0.000010
     15          1           0       -4.365500   -1.215056   -0.000008
     16          9           0        3.535988   -1.097331    0.000034
 ---------------------------------------------------------------------

 SCF Done:  E(RHF) =  -917.151675645     A.U. after    2 cycles

 The electronic state is 1-A.
 Alpha  occ. eigenvalues --  -75.78095 -29.29206 -21.12894 -21.05589 -13.25779
 Alpha  occ. eigenvalues --  -13.23052 -13.08849 -11.54272 -11.53497 -11.47145
 Alpha  occ. eigenvalues --  -11.46656 -11.44814 -11.43625 -11.39368  -8.12220
 Alpha  occ. eigenvalues --   -1.84064  -1.66056  -1.39821  -1.24897  -1.12577
 Alpha  occ. eigenvalues --   -1.11049  -0.93420  -0.90388  -0.81862  -0.73456
 Alpha  occ. eigenvalues --   -0.68614  -0.65739  -0.62939  -0.61158  -0.60027
 Alpha  occ. eigenvalues --   -0.58878  -0.55926  -0.53555  -0.49036  -0.46628
 Alpha  occ. eigenvalues --   -0.44681  -0.44524  -0.36512  -0.36100  -0.35518
 Alpha  occ. eigenvalues --   -0.33710  -0.30853  -0.30123  -0.18629
 Alpha virt. eigenvalues --    0.02902   0.04569   0.05473   0.06882   0.07130
 Alpha virt. eigenvalues --    0.07548   0.07972   0.08795   0.09983   0.10350
 Alpha virt. eigenvalues --    0.10582   0.11817   0.12959   0.13263   0.13431

 Mulliken charges:
               1
     1  S    0.610879
     2  C    1.215861
     3  C   -2.158880
     4  C   -1.703938
     5  C    1.324790
     6  C   -0.600594
     7  C   -4.659624
     8  H    1.748593
     9  H    1.871023
    10  H    1.922683
    11  H    1.719804
    12  C    5.277762
    13  O   -3.586620
    14  O   -3.827466
    15  H    1.221837
    16  F   -0.376111
 Sum of Mulliken charges =  -0.00000

 Dipole moment (field-independent basis, Debye):
    X=              3.0735    Y=             -2.7208    Z=              0.0000  Tot=              4.1048

 Test job not archived.
 1\1\GINC-SE149\SP\RHF\Aug-CC-pVDZ\C7H5F1O2S1\OHZDE\09-Apr-2025\0\\#t h
 f aug-cc-pvdz iop(5/13=1,5/36=2,99/5=2) pseudo=read geom=check guess=(
 read,tcheck) scf=(maxcycle=1)\\title\\0,1\S,0,-3.061134,0.482276,0.000
 014\C,0,-1.316105,0.257393,0.000003\C,0,-0.534038,1.413644,-0.000011\C
 ,0,0.841057,1.30208,-0.000009\C,0,1.445806,0.046491,0.000002\C,0,0.656
 112,-1.098225,0.000012\C,0,-0.725865,-1.000627,0.000015\H,0,-0.995687,
 2.394684,-0.000025\H,0,1.467838,2.184334,-0.00002\H,0,1.126393,-2.0720
 94,0.00002\H,0,-1.340495,-1.889374,0.000024\C,0,2.924529,-0.015584,0.\

 Normal termination of Gaussian 16 at Wed Apr  9 00:56:07 2025.
