 Gaussian 16, Revision C.01,

 ----------------------------------------------------------------------
 #t hf aug-cc-pvdz symm=none int=(grid=ultrafine) guess=(read,tcheck) s
 table=(opt,rrhf)
 ----------------------------------------------------------------------
 -----
 title
 -----
 Symbolic Z-matrix:
 Charge =  0 Multiplicity = 1

 SCF Done:  E(RHF) =  -683.303179116     A.U. after   15 cycles
 Normal termination of Gaussian 16 at Wed Apr  9 01:02:19 2025.
 Gaussian 16:  ES64L-G16RevC.01  3-Jul-2019

 ----------------------------------------------------------------------
 #t hf aug-cc-pvdz iop(5/13=1,5/36=2,99/5=2) pseudo=read geom=check gue
 ss=(read,tcheck) scf=(maxcycle=1)
 ----------------------------------------------------------------------
 -----
 title
 -----
 Structure from the checkpoint file:  "BH10_184_reverse_mol3.chk"
 Charge =  0 Multiplicity = 1

                         Standard orientation:
 ---------------------------------------------------------------------
 Center     Atomic      Atomic             Coordinates (Angstroms)
 Number     Number       Type             X           Y           Z
 ---------------------------------------------------------------------
      1          6           0       -1.835649   -0.000000    0.013038
      2          6           0       -1.121767   -1.200378    0.005299
      3          6           0        0.261928   -1.196702   -0.010276
      4          6           0        0.971284    0.000000   -0.007298
      5          6           0        0.261928    1.196702   -0.010276
      6          6           0       -1.121767    1.200378    0.005298
      7         16           0        2.759815    0.000000   -0.077669
      8          1           0       -1.657916   -2.142940    0.011042
      9          1           0        0.801714   -2.135223   -0.025071
     10          1           0        0.801714    2.135223   -0.025070
     11          1           0       -1.657916    2.142940    0.011041
     12          7           0       -3.222700   -0.000000    0.073403
     13          1           0       -3.684799    0.840892   -0.233378
     14          1           0       -3.684799   -0.840890   -0.233385
     15          1           0        2.988126   -0.000005    1.248995
 ---------------------------------------------------------------------

 SCF Done:  E(RHF) =  -684.895520739     A.U. after    2 cycles

 The electronic state is 1-A.
 Alpha  occ. eigenvalues --  -75.68424 -15.76517 -13.17039 -13.11236 -13.05466
 Alpha  occ. eigenvalues --  -11.51599 -11.45246 -11.43611 -11.42084 -11.40447
 Alpha  occ. eigenvalues --  -11.36528  -8.02323  -1.42296  -1.29098  -1.13433
 Alpha  occ. eigenvalues --   -1.09927  -1.00766  -0.88195  -0.83521  -0.70481
 Alpha  occ. eigenvalues --   -0.68399  -0.64745  -0.58339  -0.57112  -0.55837
 Alpha  occ. eigenvalues --   -0.53430  -0.50089  -0.45004  -0.42866  -0.38216
 Alpha  occ. eigenvalues --   -0.33777  -0.27845  -0.23952
 Alpha virt. eigenvalues --    0.03085   0.04631   0.04855   0.05353   0.05866
 Alpha virt. eigenvalues --    0.07157   0.08399   0.08660   0.10034   0.11023
 Alpha virt. eigenvalues --    0.12283   0.12658   0.13216   0.13479   0.14243

 Mulliken charges:
               1
     1  C    1.851632
     2  C   -2.031430
     3  C   -2.340294
     4  C    2.022317
     5  C   -2.340296
     6  C   -2.031455
     7  S   -0.680033
     8  H    1.751357
     9  H    1.861393
    10  H    1.861393
    11  H    1.751355
    12  N   -4.100733
    13  H    0.645308
    14  H    0.645303
    15  H    1.134184
 Sum of Mulliken charges =   0.00000

 Dipole moment (field-independent basis, Debye):
    X=             -2.2530    Y=              0.0000    Z=             -1.5412  Tot=              2.7297

 Test job not archived.
 1\1\GINC-SE054\SP\RHF\Aug-CC-pVDZ\C6H7N1S1\OHZDE\09-Apr-2025\0\\#t hf
 aug-cc-pvdz iop(5/13=1,5/36=2,99/5=2) pseudo=read geom=check guess=(re
 ad,tcheck) scf=(maxcycle=1)\\title\\0,1\C,0,-1.835649,0.,0.013038\C,0,
 -1.121767,-1.200378,0.005299\C,0,0.261928,-1.196702,-0.010276\C,0,0.97
 1284,0.,-0.007298\C,0,0.261928,1.196702,-0.010276\C,0,-1.121767,1.2003
 78,0.005298\S,0,2.759815,0.,-0.077669\H,0,-1.657916,-2.14294,0.011042\
 H,0,0.801714,-2.135223,-0.025071\H,0,0.801714,2.135223,-0.02507\H,0,-1
 .657916,2.14294,0.011041\N,0,-3.2227,0.,0.073403\H,0,-3.684799,0.84089

 Normal termination of Gaussian 16 at Wed Apr  9 01:02:26 2025.
