 Gaussian 16, Revision C.01,

 ----------------------------------------------------------------------
 #t hf aug-cc-pvdz symm=none int=(grid=ultrafine) guess=(read,tcheck) s
 table=opt
 ----------------------------------------------------------------------
 -----
 title
 -----
 Symbolic Z-matrix:
 Charge =  0 Multiplicity = 2

 SCF Done:  E(UHF) =  -551.037824016     A.U. after   20 cycles
 Normal termination of Gaussian 16 at Wed Apr  9 01:16:08 2025.
 Gaussian 16:  ES64L-G16RevC.01  3-Jul-2019

 ----------------------------------------------------------------------
 #t hf aug-cc-pvdz iop(5/13=1,5/36=2,99/5=2) pseudo=read geom=check gue
 ss=(read,tcheck) scf=(maxcycle=1)
 ----------------------------------------------------------------------
 -----
 title
 -----
 Structure from the checkpoint file:  "BH10_293_forward_mol3.chk"
 Charge =  0 Multiplicity = 2

                         Standard orientation:
 ---------------------------------------------------------------------
 Center     Atomic      Atomic             Coordinates (Angstroms)
 Number     Number       Type             X           Y           Z
 ---------------------------------------------------------------------
      1         16           0       -1.456914   -0.302031    0.067278
      2          6           0       -0.134035    0.878284   -0.256825
      3          6           0        1.215005    0.460348    0.312317
      4          8           0        1.652915   -0.776189   -0.201351
      5          1           0       -0.071722    0.949779   -1.348750
      6          1           0       -0.439059    1.862015    0.109158
      7          1           0        1.969690    1.196569    0.029097
      8          1           0        1.163056    0.436641    1.407647
      9          1           0        0.979517   -1.434798    0.004262
 ---------------------------------------------------------------------

 SCF Done:  E(UHF) =  -551.933681949     A.U. after    2 cycles

 The electronic state is 2-A.
 Alpha  occ. eigenvalues --  -75.71307 -21.06958 -13.12344 -13.05839 -13.05195
 Alpha  occ. eigenvalues --  -11.44513 -11.39704  -8.04958  -1.71672  -1.22224
 Alpha  occ. eigenvalues --   -1.02459  -0.86139  -0.67538  -0.63675  -0.56250
 Alpha  occ. eigenvalues --   -0.55429  -0.42701  -0.40509  -0.32752  -0.30056
 Alpha  occ. eigenvalues --   -0.25831
 Alpha virt. eigenvalues --    0.03375   0.05175   0.05411   0.06031   0.06417
 Alpha virt. eigenvalues --    0.07724   0.12114   0.12592   0.12872   0.13857
 Alpha virt. eigenvalues --    0.15626   0.16293   0.16855   0.18342   0.18721

  Beta  occ. eigenvalues --  -75.70324 -21.06958 -13.11773 -13.04725 -12.99807
  Beta  occ. eigenvalues --  -11.44556 -11.39768  -8.03857  -1.71662  -1.19085
  Beta  occ. eigenvalues --   -0.97948  -0.83717  -0.67068  -0.63268  -0.55887
  Beta  occ. eigenvalues --   -0.54633  -0.42349  -0.39980  -0.32558  -0.24250
  Beta virt. eigenvalues --    0.02872   0.03941   0.05282   0.05867   0.06083
  Beta virt. eigenvalues --    0.06578   0.07853   0.12432   0.13130   0.13519
  Beta virt. eigenvalues --    0.14371   0.15696   0.17018   0.17926   0.18715

 Mulliken charges and spin densities:
               1          2
     1  S    0.541687   1.140800
     2  C   -3.912909  -0.146655
     3  C   -0.571623   0.002094
     4  O   -2.485438   0.003554
     5  H    1.490326   0.002157
     6  H    1.423586   0.009021
     7  H    1.308167   0.001565
     8  H    1.335940   0.005565
     9  H    0.870263  -0.018101
 Sum of Mulliken charges =   0.00000   1.00000

 Dipole moment (field-independent basis, Debye):
    X=             -0.8400    Y=              0.3810    Z=              0.1728  Tot=              0.9384
                          Isotropic Fermi Contact Couplings
        Atom                 a.u.       MegaHertz       Gauss      10(-4) cm-1
     1  S(33)              0.27136      93.20386      33.25745      31.08946
     2  C(13)             -0.01526     -17.15658      -6.12189      -5.72282
     3  C(13)              0.00213       2.38996       0.85280       0.79720
     4  O(17)             -0.00047       0.28401       0.10134       0.09474
     5  H(1)               0.01331      59.47461      21.22202      19.83859
     6  H(1)               0.00679      30.35364      10.83093      10.12489
     7  H(1)              -0.00027      -1.22763      -0.43805      -0.40949
     8  H(1)              -0.00023      -1.03951      -0.37092      -0.34674

 Normal termination of Gaussian 16 at Wed Apr  9 01:16:11 2025.
