 Gaussian 16, Revision C.01,

 ----------------------------------------------------------------------
 #t hf aug-cc-pvdz symm=none int=(grid=ultrafine) guess=(read,tcheck) s
 table=(opt,rrhf)
 ----------------------------------------------------------------------
 -----
 title
 -----
 Symbolic Z-matrix:
 Charge = -1 Multiplicity = 1

 SCF Done:  E(RHF) =  -366.297262142     A.U. after   14 cycles
 Normal termination of Gaussian 16 at Wed Apr  9 01:33:07 2025.
 Gaussian 16:  ES64L-G16RevC.01  3-Jul-2019

 ----------------------------------------------------------------------
 #t hf aug-cc-pvdz iop(5/13=1,5/36=2,99/5=2) pseudo=read geom=check gue
 ss=(read,tcheck) scf=(maxcycle=1)
 ----------------------------------------------------------------------
 -----
 title
 -----
 Structure from the checkpoint file:  "BH10_318_forward_mol1.chk"
 Charge = -1 Multiplicity = 1

                         Standard orientation:
 ---------------------------------------------------------------------
 Center     Atomic      Atomic             Coordinates (Angstroms)
 Number     Number       Type             X           Y           Z
 ---------------------------------------------------------------------
      1          6           0       -1.226248    0.146570    0.000004
      2          8           0       -1.039082    1.359028    0.000048
      3          6           0       -2.647181   -0.413201   -0.000011
      4          1           0       -2.793194   -1.043206    0.880027
      5          1           0       -2.793179   -1.043210   -0.880048
      6          1           0       -3.373519    0.398821   -0.000016
      7          8           0       -0.325508   -0.769973   -0.000031
      8          6           0        1.428098   -0.268785   -0.000011
      9          1           0        1.726937   -1.298271   -0.000053
     10          1           0        1.384239    0.279193   -0.921389
     11          1           0        1.384239    0.279118    0.921412
     12          9           0        3.339242    0.103068    0.000004
 ---------------------------------------------------------------------

 SCF Done:  E(RHF) =  -367.844333502     A.U. after    2 cycles

 The electronic state is 1-A.
 Alpha  occ. eigenvalues --  -28.90157 -20.86641 -20.86250 -11.33635 -11.28713
 Alpha  occ. eigenvalues --  -11.24607  -1.61180  -1.44782  -0.95250  -0.86035
 Alpha  occ. eigenvalues --   -0.58007  -0.47457  -0.47208  -0.45330  -0.44124
 Alpha  occ. eigenvalues --   -0.40006  -0.36035  -0.32362  -0.28944  -0.16982
 Alpha  occ. eigenvalues --   -0.13042  -0.12009   0.02354   0.02403   0.02581
 Alpha virt. eigenvalues --    0.13037   0.14476   0.14561   0.16570   0.17811
 Alpha virt. eigenvalues --    0.18263   0.20010   0.23846   0.25217   0.25817
 Alpha virt. eigenvalues --    0.26496   0.27300   0.27667   0.29086   0.31419

 Mulliken charges:
               1
     1  C    5.641345
     2  O   -3.004745
     3  C   -4.444498
     4  H    1.219479
     5  H    1.219484
     6  H    1.269277
     7  O   -2.984963
     8  C   -3.382699
     9  H    1.425028
    10  H    1.306590
    11  H    1.306587
    12  F   -0.570885
 Sum of Mulliken charges =  -1.00000

 Dipole moment (field-independent basis, Debye):
    X=             -4.5676    Y=             -1.2004    Z=             -0.0000  Tot=              4.7227

 Test job not archived.
 1\1\GINC-SE090\SP\RHF\Aug-CC-pVDZ\C3H6F1O2(1-)\OHZDE\09-Apr-2025\0\\#t
  hf aug-cc-pvdz iop(5/13=1,5/36=2,99/5=2) pseudo=read geom=check guess
 =(read,tcheck) scf=(maxcycle=1)\\title\\-1,1\C,0,-1.226248,0.14657,0.0
 00004\O,0,-1.039082,1.359028,0.000048\C,0,-2.647181,-0.413201,-0.00001
 1\H,0,-2.793194,-1.043206,0.880027\H,0,-2.793179,-1.04321,-0.880048\H,
 0,-3.373519,0.398821,-0.000016\O,0,-0.325508,-0.769973,-0.000031\C,0,1
 .428098,-0.268785,-0.000011\H,0,1.726937,-1.298271,-0.000053\H,0,1.384
 239,0.279193,-0.921389\H,0,1.384239,0.279118,0.921412\F,0,3.339242,0.1

 Normal termination of Gaussian 16 at Wed Apr  9 01:33:11 2025.
