 Gaussian 16, Revision C.01,

 ----------------------------------------------------------------------
 #t hf aug-cc-pvdz symm=none int=(grid=ultrafine) guess=(read,tcheck) s
 table=(opt,rrhf)
 ----------------------------------------------------------------------
 -----
 title
 -----
 Symbolic Z-matrix:
 Charge =  0 Multiplicity = 1

 SCF Done:  E(RHF) =  -1035.36557436     A.U. after   16 cycles
 Normal termination of Gaussian 16 at Wed Apr  9 01:52:07 2025.
 Gaussian 16:  ES64L-G16RevC.01  3-Jul-2019

 ----------------------------------------------------------------------
 #t hf aug-cc-pvdz iop(5/13=1,5/36=2,99/5=2) pseudo=read geom=check gue
 ss=(read,tcheck) scf=(maxcycle=1)
 ----------------------------------------------------------------------
 -----
 title
 -----
 Structure from the checkpoint file:  "BH10_289_reverse_mol2.chk"
 Charge =  0 Multiplicity = 1

                         Standard orientation:
 ---------------------------------------------------------------------
 Center     Atomic      Atomic             Coordinates (Angstroms)
 Number     Number       Type             X           Y           Z
 ---------------------------------------------------------------------
      1          6           0        1.667873   -2.462403   -0.497620
      2          1           0        1.235812   -3.456192   -0.623136
      3          1           0        0.240747   -1.826575   -2.018115
      4          6           0        0.550646   -1.259276    1.088944
      5          8           0        0.194651   -0.888290    2.166956
      6          6           0       -2.100006    0.093591    0.720074
      7          8           0       -3.120109    0.950433    0.266550
      8          8           0       -1.327898    0.209494   -1.552267
      9          1           0       -4.560248    3.731986    0.149421
     10          1           0       -5.017585    2.342154   -0.847101
     11          1           0       -1.711886    4.056214    0.417408
     12          1           0       -1.034885    3.005904   -0.809703
     13          6           0       -3.334172   -2.003204    0.032465
     14          1           0        1.059459    0.416881   -2.370559
     15          6           0        2.624399    0.434626   -0.901028
     16          6           0        4.748913    0.682370    0.227789
     17          6           0        2.913393    2.109054    0.819245
     18          1           0        1.101028    1.811274   -0.278559
     19          1           0        4.848790    2.197269    1.745758
     20          1           0        4.371581   -0.737946   -1.329394
     21          1           0        2.722097   -2.480395   -0.762019
     22          6           0        0.872997   -1.389420   -1.246018
     23          7           0        0.018520   -0.915569   -0.155947
     24          8           0        1.572365   -2.105832    0.888871
     25          6           0       -1.119493   -0.163767   -0.423924
     26          5           0       -2.937718    2.266431   -0.047374
     27          6           0       -4.197740    3.017659   -0.599020
     28          1           0       -3.948948    3.611967   -1.483444
     29          6           0       -1.562712    3.007463    0.150881
     30          1           0       -0.894306    2.560496    0.890504
     31          6           0       -3.013649   -3.260856   -0.236459
     32          6           0       -2.761527   -1.216926    1.171306
     33          6           0        1.733899   -0.283994   -1.879192
     34          1           0        2.336195   -0.755090   -2.660889
     35          6           0        3.951419    0.053647   -0.717885
     36          6           0        4.229106    1.707797    1.004491
     37          6           0        2.121169    1.479922   -0.129062
     38          1           0        2.502093    2.916615    1.412713
     39          1           0        5.778848    0.371975    0.356328
     40          1           0       -2.045926   -1.814307    1.734990
     41          1           0       -3.556842   -0.923190    1.861584
     42          1           0       -3.452792   -3.792082   -1.072236
     43          1           0       -2.309907   -3.810203    0.381721
     44          1           0       -4.042212   -1.477894   -0.601689
     45          1           0       -1.561320    0.523819    1.564115
 ---------------------------------------------------------------------

 SCF Done:  E(RHF) =  -1040.14022888     A.U. after    2 cycles

 The electronic state is 1-A.
 Alpha  occ. eigenvalues --  -21.10895 -21.05693 -21.05459 -21.02453 -15.78456
 Alpha  occ. eigenvalues --  -11.58196 -11.56068 -11.53319 -11.52736 -11.50075
 Alpha  occ. eigenvalues --  -11.47998 -11.45020 -11.44298 -11.43505 -11.42540
 Alpha  occ. eigenvalues --  -11.41498 -11.41426 -11.40759 -11.37364 -11.36830
 Alpha  occ. eigenvalues --  -11.34157 -11.32150  -7.60558  -1.88597  -1.80147
 Alpha  occ. eigenvalues --   -1.73076  -1.69662  -1.45476  -1.35797  -1.24401
 Alpha  occ. eigenvalues --   -1.20067  -1.12195  -1.10665  -1.09737  -1.06630
 Alpha  occ. eigenvalues --   -1.01180  -1.00497  -0.97589  -0.90001  -0.89541
 Alpha  occ. eigenvalues --   -0.87008  -0.83379  -0.80211  -0.75464  -0.72923
 Alpha  occ. eigenvalues --   -0.71472  -0.70523  -0.69603  -0.65565  -0.64796
 Alpha  occ. eigenvalues --   -0.63423  -0.62954  -0.61700  -0.59907  -0.58661
 Alpha  occ. eigenvalues --   -0.57912  -0.57631  -0.57405  -0.56425  -0.55867
 Alpha  occ. eigenvalues --   -0.54543  -0.53591  -0.52738  -0.52484  -0.52291
 Alpha  occ. eigenvalues --   -0.51416  -0.51113  -0.49839  -0.49272  -0.47571
 Alpha  occ. eigenvalues --   -0.46115  -0.44533  -0.43990  -0.42296  -0.40945
 Alpha  occ. eigenvalues --   -0.38143  -0.35462  -0.35306  -0.34750  -0.33381
 Alpha  occ. eigenvalues --   -0.33042  -0.32000  -0.31652  -0.29774
 Alpha virt. eigenvalues --    0.02975   0.03624   0.04110   0.04289   0.04819
 Alpha virt. eigenvalues --    0.05005   0.05357   0.05530   0.05980   0.06156
 Alpha virt. eigenvalues --    0.06650   0.07195   0.07317   0.07615   0.07993

 Mulliken charges:
               1
     1  C   -3.582873
     2  H    1.504025
     3  H    2.251936
     4  C    7.693212
     5  O   -3.758824
     6  C    3.401216
     7  O   -6.884303
     8  O   -4.244296
     9  H    0.533094
    10  H    1.144863
    11  H    1.378485
    12  H    1.469798
    13  C   -0.794599
    14  H    1.245458
    15  C    6.012594
    16  C   -2.015934
    17  C   -2.109089
    18  H    2.504257
    19  H    1.606940
    20  H    2.038730
    21  H    1.991814
    22  C   -1.445903
    23  N   -1.513191
    24  O   -3.862600
    25  C    6.568332
    26  B    9.873506
    27  C   -6.813697
    28  H    0.941809
    29  C   -7.489795
    30  H    1.520672
    31  C   -3.719231
    32  C   -5.075985
    33  C   -5.833579
    34  H    1.204690
    35  C   -4.208439
    36  C   -2.989972
    37  C   -1.772196
    38  H    1.666291
    39  H    1.563851
    40  H    1.604667
    41  H    1.380820
    42  H    1.418316
    43  H    1.665778
    44  H    1.492527
    45  H    2.436823
 Sum of Mulliken charges =   0.00000

 Dipole moment (field-independent basis, Debye):
    X=              1.7869    Y=             -1.0425    Z=             -1.3738  Tot=              2.4834

 Test job not archived.
 1\1\GINC-SE184\SP\RHF\Aug-CC-pVDZ\C17H22B1N1O4\OHZDE\09-Apr-2025\0\\#t
  hf aug-cc-pvdz iop(5/13=1,5/36=2,99/5=2) pseudo=read geom=check guess
 =(read,tcheck) scf=(maxcycle=1)\\title\\0,1\C,0,1.667873,-2.462403,-0.
 49762\H,0,1.235812,-3.456192,-0.623136\H,0,0.240747,-1.826575,-2.01811
 5\C,0,0.550646,-1.259276,1.088944\O,0,0.194651,-0.88829,2.166956\C,0,-
 2.100006,0.093591,0.720074\O,0,-3.120109,0.950433,0.26655\O,0,-1.32789
 8,0.209494,-1.552267\H,0,-4.560248,3.731986,0.149421\H,0,-5.017585,2.3
 42154,-0.847101\H,0,-1.711886,4.056214,0.417408\H,0,-1.034885,3.005904

 Normal termination of Gaussian 16 at Wed Apr  9 01:54:17 2025.
