 Gaussian 16, Revision C.01,

 ----------------------------------------------------------------------
 #t hf aug-cc-pvdz symm=none int=(grid=ultrafine) guess=(read,tcheck) s
 table=(opt,rrhf)
 ----------------------------------------------------------------------
 -----
 title
 -----
 Symbolic Z-matrix:
 Charge =  0 Multiplicity = 1

 SCF Done:  E(RHF) =  -678.893542095     A.U. after   15 cycles
 Normal termination of Gaussian 16 at Wed Apr  9 01:25:16 2025.
 Gaussian 16:  ES64L-G16RevC.01  3-Jul-2019

 ----------------------------------------------------------------------
 #t hf aug-cc-pvdz iop(5/13=1,5/36=2,99/5=2) pseudo=read geom=check gue
 ss=(read,tcheck) scf=(maxcycle=1)
 ----------------------------------------------------------------------
 -----
 title
 -----
 Structure from the checkpoint file:  "BH10_282_forward_mol1.chk"
 Charge =  0 Multiplicity = 1

                         Standard orientation:
 ---------------------------------------------------------------------
 Center     Atomic      Atomic             Coordinates (Angstroms)
 Number     Number       Type             X           Y           Z
 ---------------------------------------------------------------------
      1          6           0       -1.971191   -0.346818   -1.232411
      2          6           0       -0.756032    0.365443    0.971413
      3          6           0       -2.225515    1.143353   -1.552998
      4          1           0       -1.462002    1.458891   -2.270632
      5          1           0       -3.192321    1.250254   -2.059619
      6          1           0        0.151515    0.356398    1.582578
      7          1           0       -1.917903   -0.869154   -2.194055
      8          1           0        0.299287    0.116284   -1.175297
      9          6           0       -1.033066    1.847067    0.636262
     10          1           0       -0.111034    2.251862    0.209314
     11          1           0       -1.224041    2.412399    1.556396
     12          5           0       -0.552694   -0.335809   -0.450920
     13          6           0        0.876554   -1.648108   -0.258831
     14          6           0        2.147706   -1.406424   -0.067318
     15          1           0        2.788875   -2.268241    0.081883
     16          6           0       -0.291711   -2.273059   -0.341913
     17          1           0       -0.652604   -2.654366   -1.288324
     18          1           0       -0.812255   -2.576141    0.556651
     19          6           0        2.827164   -0.091441   -0.037220
     20          8           0        2.323773    0.996853   -0.047959
     21          8           0        4.156737   -0.292295    0.018535
     22          6           0        4.956766    0.892561    0.063327
     23          1           0        4.704737    1.487187    0.941190
     24          1           0        5.986185    0.548810    0.114537
     25          1           0        4.795703    1.493111   -0.831691
     26          6           0       -1.870802   -0.314617    1.784837
     27          1           0       -1.507570   -1.294801    2.120389
     28          1           0       -2.057597    0.246992    2.707720
     29          6           0       -3.095127   -0.991632   -0.404954
     30          1           0       -2.947784   -2.077854   -0.403238
     31          1           0       -4.058861   -0.832005   -0.902610
     32          6           0       -2.191158    2.093335   -0.344697
     33          1           0       -3.141700    2.038914    0.186776
     34          1           0       -2.126411    3.121841   -0.713159
     35          6           0       -3.208346   -0.502324    1.049526
     36          1           0       -3.826958   -1.209187    1.611701
     37          1           0       -3.759337    0.437374    1.069343
 ---------------------------------------------------------------------

 SCF Done:  E(RHF) =  -682.186716181     A.U. after    2 cycles

 The electronic state is 1-A.
 Alpha  occ. eigenvalues --  -21.09948 -21.05377 -11.55425 -11.52419 -11.49222
 Alpha  occ. eigenvalues --  -11.45399 -11.44693 -11.42247 -11.41725 -11.41326
 Alpha  occ. eigenvalues --  -11.39302 -11.37389 -11.35025 -11.33546 -11.32635
 Alpha  occ. eigenvalues --   -7.57418  -1.85715  -1.67052  -1.34148  -1.26543
 Alpha  occ. eigenvalues --   -1.15141  -1.13831  -1.11513  -1.02079  -1.00148
 Alpha  occ. eigenvalues --   -0.95981  -0.84469  -0.82569  -0.80494  -0.79882
 Alpha  occ. eigenvalues --   -0.73735  -0.70270  -0.67755  -0.66402  -0.65046
 Alpha  occ. eigenvalues --   -0.64597  -0.63681  -0.59847  -0.58539  -0.57239
 Alpha  occ. eigenvalues --   -0.56750  -0.55572  -0.54710  -0.53956  -0.53244
 Alpha  occ. eigenvalues --   -0.51609  -0.48000  -0.46311  -0.43708  -0.42745
 Alpha  occ. eigenvalues --   -0.42117  -0.41509  -0.40432  -0.40221  -0.38169
 Alpha  occ. eigenvalues --   -0.34983  -0.33522  -0.32466  -0.30814  -0.29600
 Alpha virt. eigenvalues --    0.03345   0.04336   0.04762   0.04969   0.05090
 Alpha virt. eigenvalues --    0.05661   0.05857   0.05959   0.06347   0.06497
 Alpha virt. eigenvalues --    0.06638   0.06861   0.07002   0.07613   0.07799

 Mulliken charges:
               1
     1  C   -3.270203
     2  C   -0.373819
     3  C   -3.869617
     4  H    0.903751
     5  H    1.305747
     6  H    0.811807
     7  H    0.599306
     8  H   -9.099231
     9  C   -3.994468
    10  H    0.687677
    11  H    1.443421
    12  B   23.558264
    13  C    2.694871
    14  C   -3.144493
    15  H    1.404768
    16  C   -5.691821
    17  H    1.103301
    18  H    0.950298
    19  C    5.635020
    20  O   -3.548097
    21  O   -3.822831
    22  C   -3.376181
    23  H    1.416496
    24  H    1.431085
    25  H    1.429200
    26  C   -4.498600
    27  H    1.021975
    28  H    1.239394
    29  C   -4.634559
    30  H    1.100433
    31  H    1.267869
    32  C   -3.370141
    33  H    1.336497
    34  H    1.286751
    35  C   -2.719062
    36  H    1.237972
    37  H    1.547220
 Sum of Mulliken charges =  -0.00000

 Dipole moment (field-independent basis, Debye):
    X=              2.0225    Y=             -1.9741    Z=              0.0293  Tot=              2.8264

 Test job not archived.
 1\1\GINC-SE339\SP\RHF\Aug-CC-pVDZ\C13H21B1O2\OHZDE\09-Apr-2025\0\\#t h
 f aug-cc-pvdz iop(5/13=1,5/36=2,99/5=2) pseudo=read geom=check guess=(
 read,tcheck) scf=(maxcycle=1)\\title\\0,1\C,0,-1.971191,-0.346818,-1.2
 32411\C,0,-0.756032,0.365443,0.971413\C,0,-2.225515,1.143353,-1.552998
 \H,0,-1.462002,1.458891,-2.270632\H,0,-3.192321,1.250254,-2.059619\H,0
 ,0.151515,0.356398,1.582578\H,0,-1.917903,-0.869154,-2.194055\H,0,0.29
 9287,0.116284,-1.175297\C,0,-1.033066,1.847067,0.636262\H,0,-0.111034,
 2.251862,0.209314\H,0,-1.224041,2.412399,1.556396\B,0,-0.552694,-0.335

 Normal termination of Gaussian 16 at Wed Apr  9 01:26:14 2025.
