 Gaussian 16, Revision C.01,

 ----------------------------------------------------------------------
 #t hf aug-cc-pvdz symm=none int=(grid=ultrafine) guess=(read,tcheck) s
 table=(opt,rrhf)
 ----------------------------------------------------------------------
 -----
 title
 -----
 Symbolic Z-matrix:
 Charge =  0 Multiplicity = 1

 SCF Done:  E(RHF) =  -1120.52298764     A.U. after   16 cycles
 Normal termination of Gaussian 16 at Wed Apr  9 02:14:35 2025.
 Gaussian 16:  ES64L-G16RevC.01  3-Jul-2019

 ----------------------------------------------------------------------
 #t hf aug-cc-pvdz iop(5/13=1,5/36=2,99/5=2) pseudo=read geom=check gue
 ss=(read,tcheck) scf=(maxcycle=1)
 ----------------------------------------------------------------------
 -----
 title
 -----
 Structure from the checkpoint file:  "BH10_46_forward_mol3.chk"
 Charge =  0 Multiplicity = 1

                         Standard orientation:
 ---------------------------------------------------------------------
 Center     Atomic      Atomic             Coordinates (Angstroms)
 Number     Number       Type             X           Y           Z
 ---------------------------------------------------------------------
      1          6           0        3.721433   -0.356419   -0.141190
      2          1           0        4.468336   -0.501601    0.634371
      3          1           0        3.442051    0.694288   -0.216972
      4          1           0        4.095557   -0.699007   -1.105408
      5          8           0        2.591215   -1.136036    0.262365
      6          6           0        1.537276   -1.089921   -0.557321
      7          8           0        1.525059   -0.459498   -1.584360
      8          6           0        0.378247   -1.892311   -0.070802
      9          6           0        0.482378   -2.720895    0.962328
     10          6           0       -0.901119   -1.672710   -0.812690
     11          1           0       -1.525900   -2.565174   -0.842514
     12          1           0       -0.729342   -1.303732   -1.821500
     13         16           0       -1.971055   -0.448825   -0.000401
     14          6           0       -0.919607    0.979802    0.172826
     15          6           0       -0.819142    1.873681   -0.882311
     16          6           0       -0.183006    1.133748    1.338168
     17          6           0        0.055696    2.942260   -0.770187
     18          1           0       -1.421203    1.729246   -1.769919
     19          6           0        0.690763    2.206603    1.437605
     20          1           0       -0.306757    0.426287    2.147290
     21          6           0        0.811231    3.104104    0.384480
     22          1           0        0.148301    3.649420   -1.584682
     23          1           0        1.271801    2.345151    2.340889
     24          1           0        1.494159    3.941169    0.466671
     25          8           0       -3.040577   -0.135218   -0.939614
     26          8           0       -2.272039   -0.951472    1.336120
     27          1           0       -0.373239   -3.288309    1.306616
     28          1           0        1.418962   -2.836401    1.490043
 ---------------------------------------------------------------------

 SCF Done:  E(RHF) =  -1124.05604227     A.U. after    2 cycles

 The electronic state is 1-A.
 Alpha  occ. eigenvalues --  -75.87767 -21.10310 -21.05863 -21.03581 -21.03529
 Alpha  occ. eigenvalues --  -13.49968 -13.42266 -13.37258 -11.55511 -11.54213
 Alpha  occ. eigenvalues --  -11.46755 -11.46091 -11.45526 -11.44405 -11.43581
 Alpha  occ. eigenvalues --  -11.42811 -11.42712 -11.42029 -11.38784  -8.22789
 Alpha  occ. eigenvalues --   -1.86384  -1.81597  -1.67711  -1.63998  -1.37031
 Alpha  occ. eigenvalues --   -1.27259  -1.14944  -1.11586  -1.08535  -1.02803
 Alpha  occ. eigenvalues --   -0.95494  -0.90267  -0.88925  -0.83708  -0.74681
 Alpha  occ. eigenvalues --   -0.73042  -0.71108  -0.66843  -0.65314  -0.64103
 Alpha  occ. eigenvalues --   -0.62616  -0.61361  -0.60601  -0.59900  -0.58681
 Alpha  occ. eigenvalues --   -0.56723  -0.55231  -0.53385  -0.53093  -0.51814
 Alpha  occ. eigenvalues --   -0.47397  -0.47241  -0.43103  -0.42386  -0.40040
 Alpha  occ. eigenvalues --   -0.38553  -0.38018  -0.35508  -0.35277  -0.34418
 Alpha  occ. eigenvalues --   -0.33016  -0.32487  -0.31085
 Alpha virt. eigenvalues --    0.03013   0.04000   0.04201   0.04537   0.05057
 Alpha virt. eigenvalues --    0.05412   0.06137   0.06605   0.07251   0.07357
 Alpha virt. eigenvalues --    0.07565   0.08338   0.08887   0.09484   0.10078

 Mulliken charges:
               1
     1  C   -3.444495
     2  H    1.418742
     3  H    1.414657
     4  H    1.396599
     5  O   -3.980329
     6  C    7.771410
     7  O   -3.582700
     8  C    2.131559
     9  C   -5.212621
    10  C   -4.863872
    11  H    1.197186
    12  H    1.352906
    13  S    7.323123
    14  C    3.383865
    15  C   -4.028255
    16  C   -4.465079
    17  C   -0.836587
    18  H    1.965444
    19  C   -0.797650
    20  H    2.182839
    21  C   -2.768785
    22  H    1.577128
    23  H    1.657774
    24  H    1.603583
    25  O   -2.974084
    26  O   -3.015845
    27  H    1.781042
    28  H    1.812445
 Sum of Mulliken charges =   0.00000

 Dipole moment (field-independent basis, Debye):
    X=              3.8360    Y=              0.8487    Z=              0.7433  Tot=              3.9985

 Test job not archived.
 1\1\GINC-SE402\SP\RHF\Aug-CC-pVDZ\C11H12O4S1\OHZDE\09-Apr-2025\0\\#t h
 f aug-cc-pvdz iop(5/13=1,5/36=2,99/5=2) pseudo=read geom=check guess=(
 read,tcheck) scf=(maxcycle=1)\\title\\0,1\C,0,3.721433,-0.356417,-0.14
 119\H,0,4.468336,-0.501599,0.634371\H,0,3.442051,0.69429,-0.216972\H,0
 ,4.095557,-0.699005,-1.105408\O,0,2.591216,-1.136035,0.262365\C,0,1.53
 7277,-1.08992,-0.557321\O,0,1.525059,-0.459497,-1.58436\C,0,0.378248,-
 1.892311,-0.070802\C,0,0.482379,-2.720895,0.962328\C,0,-0.901118,-1.67
 271,-0.81269\H,0,-1.525899,-2.565175,-0.842514\H,0,-0.729341,-1.303732

 Normal termination of Gaussian 16 at Wed Apr  9 02:15:12 2025.
