 Gaussian 16, Revision C.01,

 ----------------------------------------------------------------------
 #t hf aug-cc-pvdz symm=none int=(grid=ultrafine) guess=(read,tcheck) s
 table=(opt,rrhf)
 ----------------------------------------------------------------------
 -----
 title
 -----
 Symbolic Z-matrix:
 Charge =  0 Multiplicity = 1

 SCF Done:  E(RHF) =  -743.240130683     A.U. after   15 cycles
 Normal termination of Gaussian 16 at Wed Apr  9 02:06:26 2025.
 Gaussian 16:  ES64L-G16RevC.01  3-Jul-2019

 ----------------------------------------------------------------------
 #t hf aug-cc-pvdz iop(5/13=1,5/36=2,99/5=2) pseudo=read geom=check gue
 ss=(read,tcheck) scf=(maxcycle=1)
 ----------------------------------------------------------------------
 -----
 title
 -----
 Structure from the checkpoint file:  "BH10_418_reverse_mol2.chk"
 Charge =  0 Multiplicity = 1

                         Standard orientation:
 ---------------------------------------------------------------------
 Center     Atomic      Atomic             Coordinates (Angstroms)
 Number     Number       Type             X           Y           Z
 ---------------------------------------------------------------------
      1          6           0        0.594825   -1.407380    0.496480
      2          6           0       -0.752360   -1.401904   -0.227166
      3          6           0       -1.531967   -0.158235    0.127836
      4          6           0       -2.825366   -0.078717   -0.088549
      5          6           0        2.680327   -0.242868   -0.041794
      6          6           0        1.377830   -0.155308    0.167821
      7          6           0       -0.764893    0.993099    0.729724
      8          9           0       -3.590495    0.971747    0.179215
      9          9           0        3.374795   -1.370401    0.013837
     10          6           0        0.611006    1.108806    0.111947
     11          6           0        1.022321    2.253699   -0.430034
     12          9           0        3.496328    0.755374   -0.326364
     13          9           0       -3.565875   -1.047827   -0.611775
     14          1           0        0.370482    3.118608   -0.427494
     15          1           0        1.994285    2.372137   -0.885565
     16          1           0       -0.575865   -1.432619   -1.307247
     17          1           0       -1.320713   -2.298656    0.024768
     18          1           0        0.426911   -1.461102    1.577544
     19          1           0        1.164025   -2.294495    0.223988
     20          1           0       -0.653053    0.820485    1.807562
     21          1           0       -1.309195    1.928464    0.614641
 ---------------------------------------------------------------------

 SCF Done:  E(RHF) =  -746.244967749     A.U. after    2 cycles

 The electronic state is 1-A.
 Alpha  occ. eigenvalues --  -29.32138 -29.31925 -29.31254 -29.31178 -11.56368
 Alpha  occ. eigenvalues --  -11.54961 -11.49580 -11.46679 -11.44834 -11.42471
 Alpha  occ. eigenvalues --  -11.41463 -11.39701 -11.38284  -1.41972  -1.33130
 Alpha  occ. eigenvalues --   -1.23050  -1.16919  -1.07714  -1.00794  -0.93328
 Alpha  occ. eigenvalues --   -0.88140  -0.83225  -0.80840  -0.78358  -0.70949
 Alpha  occ. eigenvalues --   -0.67014  -0.63642  -0.62705  -0.60316  -0.57979
 Alpha  occ. eigenvalues --   -0.56404  -0.54782  -0.51958  -0.50100  -0.49078
 Alpha  occ. eigenvalues --   -0.46736  -0.45750  -0.44146  -0.40044  -0.39729
 Alpha  occ. eigenvalues --   -0.38073  -0.34087  -0.33469  -0.31430  -0.30806
 Alpha  occ. eigenvalues --   -0.24734  -0.23849  -0.23427  -0.23145
 Alpha virt. eigenvalues --    0.03726   0.04863   0.05568   0.06171   0.06569
 Alpha virt. eigenvalues --    0.07047   0.07265   0.08337   0.09221   0.09638
 Alpha virt. eigenvalues --    0.10081   0.10522   0.10697   0.11346   0.11560

 Mulliken charges:
               1
     1  C   -4.180065
     2  C   -4.461546
     3  C   -0.521865
     4  C    2.213584
     5  C    2.569132
     6  C   -1.477278
     7  C   -5.328507
     8  F    0.705444
     9  F    0.704745
    10  C    2.877727
    11  C   -4.749230
    12  F    0.798548
    13  F    0.706307
    14  H    1.625240
    15  H    1.605730
    16  H    1.222917
    17  H    1.273837
    18  H    1.008325
    19  H    1.146473
    20  H    0.991479
    21  H    1.269003
 Sum of Mulliken charges =   0.00000

 Dipole moment (field-independent basis, Debye):
    X=              0.5928    Y=             -0.7869    Z=             -0.6338  Tot=              1.1715

 Test job not archived.
 1\1\GINC-SE460\SP\RHF\Aug-CC-pVDZ\C9H8F4\OHZDE\09-Apr-2025\0\\#t hf au
 g-cc-pvdz iop(5/13=1,5/36=2,99/5=2) pseudo=read geom=check guess=(read
 ,tcheck) scf=(maxcycle=1)\\title\\0,1\C,0,0.594825,-1.40738,0.49648\C,
 0,-0.75236,-1.401904,-0.227166\C,0,-1.531967,-0.158235,0.127836\C,0,-2
 .825366,-0.078717,-0.088549\C,0,2.680327,-0.242868,-0.041794\C,0,1.377
 83,-0.155308,0.167821\C,0,-0.764893,0.993099,0.729724\F,0,-3.590495,0.
 971747,0.179215\F,0,3.374795,-1.370401,0.013837\C,0,0.611006,1.108806,
 0.111947\C,0,1.022321,2.253699,-0.430034\F,0,3.496328,0.755374,-0.3263

 Normal termination of Gaussian 16 at Wed Apr  9 02:06:40 2025.
