 Gaussian 16, Revision C.01,

 ----------------------------------------------------------------------
 #t hf aug-cc-pvdz symm=none int=(grid=ultrafine) guess=(read,tcheck) s
 table=(opt,rrhf)
 ----------------------------------------------------------------------
 -----
 title
 -----
 Symbolic Z-matrix:
 Charge =  0 Multiplicity = 1

 SCF Done:  E(RHF) =  -764.834010574     A.U. after   14 cycles
 Normal termination of Gaussian 16 at Wed Apr  9 00:57:30 2025.
 Gaussian 16:  ES64L-G16RevC.01  3-Jul-2019

 ----------------------------------------------------------------------
 #t hf aug-cc-pvdz iop(5/13=1,5/36=2,99/5=2) pseudo=read geom=check gue
 ss=(read,tcheck) scf=(maxcycle=1)
 ----------------------------------------------------------------------
 -----
 title
 -----
 Structure from the checkpoint file:  "BH10_133_reverse_mol3.chk"
 Charge =  0 Multiplicity = 1

                         Standard orientation:
 ---------------------------------------------------------------------
 Center     Atomic      Atomic             Coordinates (Angstroms)
 Number     Number       Type             X           Y           Z
 ---------------------------------------------------------------------
      1          6           0        1.498148    0.470495    0.646023
      2          6           0        0.139108    0.858997    0.111459
      3          8           0       -0.756436   -0.105564    0.300327
      4          6           0       -2.083638    0.137828   -0.209185
      5          6           0       -2.906410   -1.094108    0.071534
      6          8           0       -0.097095    1.920658   -0.398262
      7         17           0        2.188424   -0.906068   -0.269706
      8          1           0        1.422477    0.162551    1.686300
      9          1           0        2.169792    1.315157    0.538002
     10          1           0       -2.007653    0.350080   -1.276679
     11          1           0       -2.485066    1.025721    0.281912
     12          1           0       -2.475821   -1.967683   -0.419501
     13          1           0       -3.921643   -0.952132   -0.303787
     14          1           0       -2.960301   -1.290575    1.143259
 ---------------------------------------------------------------------

 SCF Done:  E(RHF) =  -766.441385155     A.U. after    2 cycles

 The electronic state is 1-A.
 Alpha  occ. eigenvalues --  -99.89479 -21.09815 -21.06196 -11.53742 -11.45373
 Alpha  occ. eigenvalues --  -11.44935 -11.37860 -10.46753  -9.66642  -9.65967
 Alpha  occ. eigenvalues --   -9.65827  -1.86121  -1.67721  -1.34399  -1.15494
 Alpha  occ. eigenvalues --   -1.06726  -0.91187  -0.78254  -0.69628  -0.67574
 Alpha  occ. eigenvalues --   -0.65744  -0.63324  -0.58538  -0.54179  -0.53883
 Alpha  occ. eigenvalues --   -0.52171  -0.49552  -0.48921  -0.47804  -0.42393
 Alpha  occ. eigenvalues --   -0.33255  -0.30977
 Alpha virt. eigenvalues --    0.03265   0.04560   0.05685   0.05831   0.06147
 Alpha virt. eigenvalues --    0.06498   0.06905   0.07272   0.10371   0.10739
 Alpha virt. eigenvalues --    0.11863   0.12560   0.14386   0.14578   0.14943

 Mulliken charges:
               1
     1  C   -4.558810
     2  C    6.126259
     3  O   -2.876697
     4  C   -2.109587
     5  C   -3.530680
     6  O   -3.054389
     7  Cl   0.126525
     8  H    1.539995
     9  H    1.582201
    10  H    1.564117
    11  H    1.548132
    12  H    1.284750
    13  H    1.105707
    14  H    1.252477
 Sum of Mulliken charges =   0.00000

 Dipole moment (field-independent basis, Debye):
    X=             -1.7646    Y=              0.1003    Z=              1.2363  Tot=              2.1570

 Test job not archived.
 1\1\GINC-SE112\SP\RHF\Aug-CC-pVDZ\C4H7Cl1O2\OHZDE\09-Apr-2025\0\\#t hf
  aug-cc-pvdz iop(5/13=1,5/36=2,99/5=2) pseudo=read geom=check guess=(r
 ead,tcheck) scf=(maxcycle=1)\\title\\0,1\C,0,1.498148,0.470495,0.64602
 3\C,0,0.139108,0.858997,0.111459\O,0,-0.756436,-0.105564,0.300327\C,0,
 -2.083638,0.137828,-0.209185\C,0,-2.90641,-1.094108,0.071534\O,0,-0.09
 7095,1.920658,-0.398262\Cl,0,2.188424,-0.906068,-0.269706\H,0,1.422477
 ,0.162551,1.6863\H,0,2.169792,1.315157,0.538002\H,0,-2.007653,0.35008,
 -1.276679\H,0,-2.485066,1.025721,0.281912\H,0,-2.475821,-1.967683,-0.4

 Normal termination of Gaussian 16 at Wed Apr  9 00:57:35 2025.
