 Gaussian 16, Revision C.01,

 ----------------------------------------------------------------------
 #t hf aug-cc-pvdz symm=none int=(grid=ultrafine) guess=(read,tcheck) s
 table=opt
 ----------------------------------------------------------------------
 -----
 title
 -----
 Symbolic Z-matrix:
 Charge =  0 Multiplicity = 2

 SCF Done:  E(UHF) =  -670.143783792     A.U. after   23 cycles

 1\1\GINC-SE404\Stability\UHF\Aug-CC-pVDZ\C7H13S1\OHZDE\09-Apr-2025\0\\
 #t hf aug-cc-pvdz symm=none int=(grid=ultrafine) guess=(read,tcheck) s
 table=opt\\title\\0,2\C,0,-0.496463,-0.954416,0.059733\C,0,0.745777,-1
 .436653,-0.616916\C,0,2.00947,-0.677536,-0.151529\H,0,0.647801,-1.3342
 03,-1.7009\H,0,0.893652,-2.503021,-0.409898\C,0,1.932314,0.794558,-0.4
 13261\H,0,2.874148,-1.097539,-0.677542\H,0,2.172223,-0.851898,0.915854
 \S,0,-1.569833,0.07472,-0.842651\C,0,-1.999061,1.383377,0.343564\H,0,-
 2.66614,2.066865,-0.180453\H,0,-1.101831,1.918116,0.653494\H,0,-2.5193

 Normal termination of Gaussian 16 at Wed Apr  9 01:05:57 2025.
 Gaussian 16:  ES64L-G16RevC.01  3-Jul-2019

 ----------------------------------------------------------------------
 #t hf aug-cc-pvdz iop(5/13=1,5/36=2,99/5=2) pseudo=read geom=check gue
 ss=(read,tcheck) scf=(maxcycle=1)
 ----------------------------------------------------------------------
 -----
 title
 -----
 Structure from the checkpoint file:  "BH10_22_forward_mol2.chk"
 Charge =  0 Multiplicity = 2

                         Standard orientation:
 ---------------------------------------------------------------------
 Center     Atomic      Atomic             Coordinates (Angstroms)
 Number     Number       Type             X           Y           Z
 ---------------------------------------------------------------------
      1          6           0       -0.496463   -0.954416    0.059733
      2          6           0        0.745777   -1.436653   -0.616916
      3          6           0        2.009470   -0.677536   -0.151529
      4          1           0        0.647801   -1.334203   -1.700900
      5          1           0        0.893652   -2.503021   -0.409898
      6          6           0        1.932314    0.794558   -0.413261
      7          1           0        2.874148   -1.097539   -0.677542
      8          1           0        2.172223   -0.851898    0.915854
      9         16           0       -1.569833    0.074720   -0.842651
     10          6           0       -1.999061    1.383377    0.343564
     11          1           0       -2.666140    2.066865   -0.180453
     12          1           0       -1.101831    1.918116    0.653494
     13          1           0       -2.519333    0.982949    1.211942
     14          6           0       -0.689235   -1.179533    1.520718
     15          1           0       -1.743021   -1.320077    1.775099
     16          1           0       -0.318069   -0.343559    2.129809
     17          1           0       -0.145561   -2.072490    1.840931
     18          6           0        2.018108    1.736345    0.515421
     19          1           0        1.955806    2.788774    0.265601
     20          1           0        2.162808    1.486644    1.562000
     21          1           0        1.779379    1.087069   -1.449904
 ---------------------------------------------------------------------

 SCF Done:  E(UHF) =  -671.754017304     A.U. after    2 cycles

 The electronic state is 2-A.
 Alpha  occ. eigenvalues --  -75.67042 -13.14271 -13.09475 -13.02823 -11.44719
 Alpha  occ. eigenvalues --  -11.42272 -11.40416 -11.38976 -11.38322 -11.36923
 Alpha  occ. eigenvalues --  -11.35607  -8.01315  -1.31044  -1.20653  -1.11475
 Alpha  occ. eigenvalues --   -1.04612  -0.97113  -0.91247  -0.79167  -0.75765
 Alpha  occ. eigenvalues --   -0.64023  -0.63197  -0.61865  -0.59435  -0.58235
 Alpha  occ. eigenvalues --   -0.55787  -0.55337  -0.54458  -0.50456  -0.46490
 Alpha  occ. eigenvalues --   -0.45518  -0.42965  -0.37027  -0.34382  -0.32665
 Alpha  occ. eigenvalues --   -0.18509
 Alpha virt. eigenvalues --    0.03595   0.04343   0.05230   0.05479   0.05614
 Alpha virt. eigenvalues --    0.05796   0.06161   0.06428   0.06956   0.07987
 Alpha virt. eigenvalues --    0.08366   0.09312   0.09785   0.10747   0.11666

  Beta  occ. eigenvalues --  -75.67067 -13.14658 -13.09632 -13.02480 -11.44630
  Beta  occ. eigenvalues --  -11.41520 -11.40149 -11.38847 -11.38391 -11.36533
  Beta  occ. eigenvalues --  -11.35029  -8.01333  -1.28598  -1.19929  -1.10496
  Beta  occ. eigenvalues --   -1.04283  -0.96058  -0.90995  -0.78701  -0.72134
  Beta  occ. eigenvalues --   -0.63455  -0.62467  -0.59766  -0.58335  -0.57574
  Beta  occ. eigenvalues --   -0.55289  -0.54583  -0.53735  -0.49694  -0.45905
  Beta  occ. eigenvalues --   -0.45096  -0.41355  -0.34800  -0.33928  -0.24114
  Beta virt. eigenvalues --    0.03313   0.04338   0.05242   0.05435   0.05596
  Beta virt. eigenvalues --    0.05796   0.06185   0.06418   0.06919   0.07973
  Beta virt. eigenvalues --    0.08365   0.09193   0.09775   0.10495   0.11178

 Mulliken charges and spin densities:
               1          2
     1  C    1.496295   1.651722
     2  C   -3.462226  -0.331740
     3  C   -2.950088   0.079449
     4  H    1.432979  -0.008620
     5  H    1.231311  -0.006850
     6  C   -0.389859  -0.018202
     7  H    1.246063   0.001357
     8  H    1.658926   0.004019
     9  S    0.798597  -0.022063
    10  C   -4.964775   0.027285
    11  H    1.273400  -0.002247
    12  H    1.652290  -0.003988
    13  H    1.540694  -0.002380
    14  C   -5.199567  -0.407265
    15  H    1.364572   0.017826
    16  H    1.340368   0.034501
    17  H    1.250254   0.006086
    18  C   -3.617309  -0.021236
    19  H    1.448662   0.002131
    20  H    1.428814  -0.000731
    21  H    1.420600   0.000947
 Sum of Mulliken charges =   0.00000   1.00000

 Dipole moment (field-independent basis, Debye):
    X=             -0.0870    Y=              0.0096    Z=             -0.3874  Tot=              0.3972
                          Isotropic Fermi Contact Couplings
        Atom                 a.u.       MegaHertz       Gauss      10(-4) cm-1
     1  C(13)              0.15775     177.34253      63.28022      59.15510
     2  C(13)             -0.03201     -35.98334     -12.83975     -12.00275
     3  C(13)              0.04566      51.32551      18.31422      17.12035
     4  H(1)               0.00266      11.90439       4.24778       3.97088
     5  H(1)               0.00735      32.84295      11.71918      10.95523
     6  C(13)              0.00034       0.38137       0.13608       0.12721
     7  H(1)               0.00047       2.07924       0.74192       0.69356
     8  H(1)              -0.00094      -4.19704      -1.49761      -1.39998

 Normal termination of Gaussian 16 at Wed Apr  9 01:06:09 2025.
