 Gaussian 16, Revision C.01,

 ----------------------------------------------------------------------
 #t hf aug-cc-pvdz symm=none int=(grid=ultrafine) guess=(read,tcheck) s
 table=(opt,rrhf)
 ----------------------------------------------------------------------
 -----
 title
 -----
 Symbolic Z-matrix:
 Charge =  1 Multiplicity = 1

 SCF Done:  E(RHF) =  -1418.02824414     A.U. after   20 cycles
 Normal termination of Gaussian 16 at Wed Apr  9 02:52:44 2025.
 Gaussian 16:  ES64L-G16RevC.01  3-Jul-2019

 ----------------------------------------------------------------------
 #t hf aug-cc-pvdz iop(5/13=1,5/36=2,99/5=2) pseudo=read geom=check gue
 ss=(read,tcheck) scf=(maxcycle=1)
 ----------------------------------------------------------------------
 -----
 title
 -----
 Structure from the checkpoint file:  "BH10_267_reverse_mol1.chk"
 Charge =  1 Multiplicity = 1

                         Standard orientation:
 ---------------------------------------------------------------------
 Center     Atomic      Atomic             Coordinates (Angstroms)
 Number     Number       Type             X           Y           Z
 ---------------------------------------------------------------------
      1          6           0       -1.496114    2.726775   -0.014690
      2          6           0       -1.585617    4.108166   -0.038923
      3          6           0       -2.831524    4.716361   -0.119314
      4          6           0       -3.990114    3.948381   -0.176223
      5          6           0       -3.909896    2.568343   -0.153390
      6          6           0       -2.655930    1.957252   -0.071988
      7          1           0       -0.528760    2.244618    0.046166
      8          1           0       -0.688326    4.711979    0.003636
      9          1           0       -2.902207    5.796772   -0.138400
     10          1           0       -4.957415    4.430323   -0.239114
     11          1           0       -4.801289    1.956074   -0.197595
     12          6           0       -2.574884    0.500399   -0.049336
     13          1           0       -1.338955    0.112252    0.043802
     14          7           0       -3.333449   -0.431443   -0.092892
     15         14           0       -3.757805   -2.174933   -0.112590
     16          6           0       -2.912695   -2.874918   -1.614889
     17          1           0       -1.827988   -2.800643   -1.520766
     18          1           0       -3.170624   -3.930099   -1.736339
     19          1           0       -3.218103   -2.355323   -2.525377
     20          6           0       -3.109570   -2.865782    1.488990
     21          1           0       -3.522660   -2.336800    2.350278
     22          1           0       -3.386714   -3.918632    1.585889
     23          1           0       -2.021166   -2.797041    1.528944
     24          6           0       -5.609699   -2.228646   -0.228695
     25          1           0       -5.966793   -1.742654   -1.138835
     26          1           0       -5.958579   -3.264349   -0.247390
     27          1           0       -6.077937   -1.737021    0.626377
     28          6           0        1.483092   -0.516070   -1.129136
     29          6           0        1.340603   -0.463457    1.545994
     30          6           0        2.671407    0.294904    1.504771
     31          6           0        3.535936   -0.083668    0.316472
     32          6           0        2.787962    0.261625   -0.965996
     33          1           0        2.470822    1.371664    1.469884
     34          1           0        3.194979    0.093407    2.441662
     35          1           0        3.751500   -1.153647    0.326973
     36          1           0        2.580645    1.336851   -0.969619
     37          1           0        3.421659    0.043486   -1.825502
     38          7           0        0.741786   -0.517816    0.173835
     39          8           0       -0.483516   -0.816443    0.118704
     40          6           0        0.604863    0.159785   -2.179888
     41          1           0        1.170544    0.222216   -3.109694
     42          1           0       -0.304466   -0.406950   -2.376755
     43          1           0        0.336787    1.176534   -1.887699
     44          6           0        1.740026   -1.975383   -1.529076
     45          1           0        0.802577   -2.532261   -1.558186
     46          1           0        2.186752   -1.997293   -2.523767
     47          1           0        2.426454   -2.478086   -0.849934
     48          6           0        0.364892    0.263684    2.469465
     49          1           0       -0.567229   -0.286803    2.588903
     50          1           0        0.826198    0.360750    3.452660
     51          1           0        0.141702    1.268721    2.107513
     52          6           0        1.531554   -1.907784    2.029038
     53          1           0        1.864961   -1.897957    3.067829
     54          1           0        0.587584   -2.451317    1.978113
     55          1           0        2.273470   -2.445563    1.440765
     56          7           0        4.818327    0.586332    0.381995
     57          6           0        5.875493    0.111911   -0.343239
     58          8           0        5.752377   -0.866901   -1.054457
     59          1           0        4.927636    1.412938    0.946443
     60          6           0        7.174694    0.859536   -0.203660
     61          1           0        7.497204    1.188085   -1.191831
     62          1           0        7.111326    1.722081    0.460157
     63          1           0        7.931252    0.171523    0.174806
 ---------------------------------------------------------------------

 SCF Done:  E(RHF) =  -1423.70462869     A.U. after    2 cycles

 The electronic state is 1-A.
 Alpha  occ. eigenvalues --  -76.32106 -21.29702 -21.10151 -15.95633 -15.87569
 Alpha  occ. eigenvalues --  -15.85171 -11.66838 -11.64348 -11.62432 -11.60632
 Alpha  occ. eigenvalues --  -11.60106 -11.59209 -11.57582 -11.57439 -11.56819
 Alpha  occ. eigenvalues --  -11.53985 -11.53445 -11.53235 -11.52743 -11.52210
 Alpha  occ. eigenvalues --  -11.50380 -11.49310 -11.48476 -11.46639 -11.45646
 Alpha  occ. eigenvalues --  -11.45598 -11.44310  -5.66361  -2.31706  -2.30089
 Alpha  occ. eigenvalues --   -2.30057  -2.02091  -1.79205  -1.54693  -1.52258
 Alpha  occ. eigenvalues --   -1.45311  -1.43573  -1.39473  -1.26567  -1.24004
 Alpha  occ. eigenvalues --   -1.21801  -1.19403  -1.17914  -1.15922  -1.14421
 Alpha  occ. eigenvalues --   -1.13366  -1.13005  -1.11743  -1.11128  -1.03725
 Alpha  occ. eigenvalues --   -0.99953  -0.98889  -0.98761  -0.92959  -0.89679
 Alpha  occ. eigenvalues --   -0.87303  -0.84076  -0.83160  -0.80451  -0.79113
 Alpha  occ. eigenvalues --   -0.78571  -0.76830  -0.75295  -0.74950  -0.73095
 Alpha  occ. eigenvalues --   -0.71871  -0.71343  -0.70589  -0.69989  -0.69196
 Alpha  occ. eigenvalues --   -0.69119  -0.68616  -0.67686  -0.67520  -0.67302
 Alpha  occ. eigenvalues --   -0.66455  -0.66357  -0.66119  -0.64893  -0.64669
 Alpha  occ. eigenvalues --   -0.64363  -0.63907  -0.63611  -0.63475  -0.62673
 Alpha  occ. eigenvalues --   -0.62347  -0.61519  -0.60787  -0.59408  -0.59269
 Alpha  occ. eigenvalues --   -0.57824  -0.57718  -0.56962  -0.56442  -0.55703
 Alpha  occ. eigenvalues --   -0.54679  -0.53390  -0.51433  -0.50072  -0.49827
 Alpha  occ. eigenvalues --   -0.47794  -0.45042  -0.44392  -0.40420  -0.39639
 Alpha  occ. eigenvalues --   -0.36881
 Alpha virt. eigenvalues --   -0.06054  -0.04523  -0.04119  -0.03767  -0.03514
 Alpha virt. eigenvalues --   -0.03415  -0.03018  -0.02368  -0.02090  -0.01772
 Alpha virt. eigenvalues --   -0.01711  -0.01546  -0.01363  -0.01160  -0.00998

 Mulliken charges:
               1
     1  C    1.648723
     2  C   -3.956547
     3  C   -3.469261
     4  C   -2.082782
     5  C   -4.016950
     6  C    4.202536
     7  H    3.129541
     8  H    1.498879
     9  H    1.658888
    10  H    1.590596
    11  H    1.994850
    12  C    2.677865
    13  H    3.594468
    14  N   -7.653431
    15  Si  10.747139
    16  C   -7.221844
    17  H    2.213586
    18  H    1.096736
    19  H    1.188842
    20  C   -7.211118
    21  H    1.196484
    22  H    1.093632
    23  H    2.207341
    24  C   -6.308948
    25  H    1.163846
    26  H    1.203232
    27  H    1.160435
    28  C    3.453325
    29  C    4.806920
    30  C   -3.866308
    31  C    1.223186
    32  C   -3.448944
    33  H    1.399047
    34  H    1.432811
    35  H    2.581857
    36  H    1.192795
    37  H    1.797702
    38  N    7.535998
    39  O   -6.240127
    40  C   -6.179940
    41  H    1.277930
    42  H    1.569180
    43  H    1.217676
    44  C   -6.793749
    45  H    1.099749
    46  H    1.243973
    47  H    1.245302
    48  C   -7.102391
    49  H    1.483409
    50  H    1.323334
    51  H    1.145879
    52  C   -6.837195
    53  H    1.348088
    54  H    1.056364
    55  H    1.154623
    56  N   -3.973390
    57  C    5.403632
    58  O   -3.485955
    59  H    0.842741
    60  C   -5.292236
    61  H    1.303505
    62  H    1.527629
    63  H    1.206841
 Sum of Mulliken charges =   1.00000

 Dipole moment (field-independent basis, Debye):
    X=             -2.6040    Y=              1.8675    Z=              1.5374  Tot=              3.5541

 Test job not archived.
 1\1\GINC-SE186\SP\RHF\Aug-CC-pVDZ\C21H36N3O2Si1(1+)\OHZDE\09-Apr-2025\
 0\\#t hf aug-cc-pvdz iop(5/13=1,5/36=2,99/5=2) pseudo=read geom=check
 guess=(read,tcheck) scf=(maxcycle=1)\\title\\1,1\C,0,-1.496114,2.72677
 5,-0.01469\C,0,-1.585617,4.108166,-0.038923\C,0,-2.831524,4.716361,-0.
 119314\C,0,-3.990114,3.948381,-0.176223\C,0,-3.909896,2.568343,-0.1533
 9\C,0,-2.65593,1.957252,-0.071988\H,0,-0.52876,2.244618,0.046166\H,0,-
 0.688326,4.711979,0.003636\H,0,-2.902207,5.796772,-0.1384\H,0,-4.95741
 5,4.430323,-0.239114\H,0,-4.801289,1.956074,-0.197595\C,0,-2.574884,0.

 Normal termination of Gaussian 16 at Wed Apr  9 02:57:31 2025.
