 Gaussian 16, Revision C.01,

 ----------------------------------------------------------------------
 #t hf aug-cc-pvdz symm=none int=(grid=ultrafine) guess=(read,tcheck) s
 table=(opt,rrhf)
 ----------------------------------------------------------------------
 -----
 title
 -----
 Symbolic Z-matrix:
 Charge =  0 Multiplicity = 1

 SCF Done:  E(RHF) =  -1566.58083720     A.U. after   14 cycles
 Normal termination of Gaussian 16 at Wed Apr  9 00:59:38 2025.
 Gaussian 16:  ES64L-G16RevC.01  3-Jul-2019

 ----------------------------------------------------------------------
 #t hf aug-cc-pvdz iop(5/13=1,5/36=2,99/5=2) pseudo=read geom=check gue
 ss=(read,tcheck) scf=(maxcycle=1)
 ----------------------------------------------------------------------
 -----
 title
 -----
 Structure from the checkpoint file:  "BH10_166_reverse_mol3.chk"
 Charge =  0 Multiplicity = 1

                         Standard orientation:
 ---------------------------------------------------------------------
 Center     Atomic      Atomic             Coordinates (Angstroms)
 Number     Number       Type             X           Y           Z
 ---------------------------------------------------------------------
      1          8           0        1.947460    0.120187    1.075988
      2          8           0        0.546123   -0.013160    1.288554
      3          6           0       -0.114264    0.006548    0.078736
      4         17           0       -1.812607   -0.112399    0.543284
      5         17           0        0.192837    1.505286   -0.823171
      6         17           0        0.354398   -1.398991   -0.931610
      7          1           0        2.248239   -0.791742    1.206695
 ---------------------------------------------------------------------

 SCF Done:  E(RHF) =  -1568.09388064     A.U. after    2 cycles

 The electronic state is 1-A.
 Alpha  occ. eigenvalues --  -99.92666 -99.92309 -99.91927 -21.16157 -21.15647
 Alpha  occ. eigenvalues --  -11.58941 -10.50181 -10.49722 -10.49365  -9.70057
 Alpha  occ. eigenvalues --   -9.69585  -9.69202  -9.69114  -9.69077  -9.68765
 Alpha  occ. eigenvalues --   -9.68719  -9.68373  -9.68331  -2.02829  -1.54306
 Alpha  occ. eigenvalues --   -1.38855  -1.32225  -1.31796  -0.94970  -0.75962
 Alpha  occ. eigenvalues --   -0.74962  -0.70778  -0.64718  -0.58875  -0.56326
 Alpha  occ. eigenvalues --   -0.52809  -0.52187  -0.51454  -0.50775  -0.48605
 Alpha  occ. eigenvalues --   -0.39104  -0.37509
 Alpha virt. eigenvalues --    0.00116   0.04197   0.06032   0.06856   0.07439
 Alpha virt. eigenvalues --    0.09823   0.09917   0.12840   0.13466   0.13804
 Alpha virt. eigenvalues --    0.14869   0.16882   0.17508   0.17972   0.18339

 Mulliken charges:
               1
     1  O   -0.655321
     2  O   -1.291614
     3  C   -0.475522
     4  Cl   0.492674
     5  Cl   0.549340
     6  Cl   0.507685
     7  H    0.872758
 Sum of Mulliken charges =  -0.00000

 Dipole moment (field-independent basis, Debye):
    X=              1.8594    Y=             -0.4964    Z=              1.6026  Tot=              2.5044

 Test job not archived.
 1\1\GINC-SE129\SP\RHF\Aug-CC-pVDZ\C1H1Cl3O2\OHZDE\09-Apr-2025\0\\#t hf
  aug-cc-pvdz iop(5/13=1,5/36=2,99/5=2) pseudo=read geom=check guess=(r
 ead,tcheck) scf=(maxcycle=1)\\title\\0,1\O,0,1.94746,0.120186,1.075988
 \O,0,0.546123,-0.01316,1.288554\C,0,-0.114264,0.006548,0.078736\Cl,0,-
 1.812607,-0.112398,0.543284\Cl,0,0.192837,1.505286,-0.823171\Cl,0,0.35
 4398,-1.398991,-0.93161\H,0,2.248239,-0.791743,1.206695\\Version=ES64L
 -G16RevC.01\State=1-A\HF=-1568.0938806\RMSD=4.959e-02\Dipole=0.7315564
 ,-0.1953122,0.6304991\Quadrupole=2.3960896,-0.8474261,-1.5486635,-1.50

 Normal termination of Gaussian 16 at Wed Apr  9 00:59:40 2025.
