 Gaussian 16, Revision C.01,

 ----------------------------------------------------------------------
 #t hf aug-cc-pvdz symm=none int=(grid=ultrafine) guess=(read,tcheck) s
 table=(opt,rrhf)
 ----------------------------------------------------------------------
 -----
 title
 -----
 Symbolic Z-matrix:
 Charge =  0 Multiplicity = 1

 SCF Done:  E(RHF) =  -482.545365443     A.U. after   15 cycles
 Normal termination of Gaussian 16 at Wed Apr  9 01:03:33 2025.
 Gaussian 16:  ES64L-G16RevC.01  3-Jul-2019

 ----------------------------------------------------------------------
 #t hf aug-cc-pvdz iop(5/13=1,5/36=2,99/5=2) pseudo=read geom=check gue
 ss=(read,tcheck) scf=(maxcycle=1)
 ----------------------------------------------------------------------
 -----
 title
 -----
 Structure from the checkpoint file:  "BH10_205_forward_mol3.chk"
 Charge =  0 Multiplicity = 1

                         Standard orientation:
 ---------------------------------------------------------------------
 Center     Atomic      Atomic             Coordinates (Angstroms)
 Number     Number       Type             X           Y           Z
 ---------------------------------------------------------------------
      1          6           0       -1.021818   -1.220907   -0.000050
      2          6           0        0.370246   -1.205798   -0.000014
      3          6           0        1.022699    0.025927    0.000029
      4          6           0        0.322956    1.233059    0.000035
      5          6           0       -1.065095    1.191214   -0.000005
      6          6           0       -1.708576   -0.028498   -0.000046
      7          1           0       -1.568770   -2.155117   -0.000083
      8          1           0       -1.647952    2.103553   -0.000001
      9          9           0       -3.062186   -0.053382   -0.000082
     10          8           0        2.389320    0.118261    0.000060
     11          1           0        2.783409   -0.757435    0.000120
     12          6           0        1.076221    2.530558    0.000079
     13          1           0        0.390675    3.377747    0.000131
     14          1           0        1.724060    2.605177    0.876132
     15          1           0        1.724023    2.605259   -0.875995
     16          6           0        1.160416   -2.485426   -0.000023
     17          1           0        1.799703   -2.567881    0.885351
     18          1           0        0.497947   -3.349877   -0.000043
     19          1           0        1.799724   -2.567852   -0.885383
 ---------------------------------------------------------------------

 SCF Done:  E(RHF) =  -484.688340250     A.U. after    2 cycles

 The electronic state is 1-A.
 Alpha  occ. eigenvalues --  -29.27234 -21.10102 -11.52996 -11.47952 -11.45461
 Alpha  occ. eigenvalues --  -11.44598 -11.42074 -11.41003 -11.39170 -11.37051
 Alpha  occ. eigenvalues --   -1.76132  -1.36802  -1.18596  -1.15797  -1.02088
 Alpha  occ. eigenvalues --   -1.00690  -0.89592  -0.84908  -0.72639  -0.69555
 Alpha  occ. eigenvalues --   -0.65697  -0.61089  -0.58112  -0.57571  -0.57474
 Alpha  occ. eigenvalues --   -0.56063  -0.52621  -0.52491  -0.50634  -0.47542
 Alpha  occ. eigenvalues --   -0.45658  -0.41512  -0.37209  -0.33680  -0.32893
 Alpha  occ. eigenvalues --   -0.26192  -0.20241
 Alpha virt. eigenvalues --    0.03097   0.04714   0.05460   0.05685   0.05992
 Alpha virt. eigenvalues --    0.06544   0.06852   0.07030   0.07882   0.10214
 Alpha virt. eigenvalues --    0.11803   0.11926   0.12320   0.12652   0.12810

 Mulliken charges:
               1
     1  C   -4.907089
     2  C    1.998135
     3  C    6.278218
     4  C    2.345520
     5  C   -5.501783
     6  C    3.133412
     7  H    1.942766
     8  H    1.957221
     9  F    0.588544
    10  O   -4.857195
    11  H    1.145767
    12  C   -5.368189
    13  H    1.271831
    14  H    1.040040
    15  H    1.040027
    16  C   -5.267233
    17  H    0.944645
    18  H    1.270690
    19  H    0.944673
 Sum of Mulliken charges =  -0.00000

 Dipole moment (field-independent basis, Debye):
    X=             -0.7986    Y=             -0.6727    Z=             -0.0000  Tot=              1.0442

 Test job not archived.
 1\1\GINC-SE458\SP\RHF\Aug-CC-pVDZ\C8H9F1O1\OHZDE\09-Apr-2025\0\\#t hf
 aug-cc-pvdz iop(5/13=1,5/36=2,99/5=2) pseudo=read geom=check guess=(re
 ad,tcheck) scf=(maxcycle=1)\\title\\0,1\C,0,1.021818,-1.220907,0.00005
 \C,0,-0.370246,-1.205798,0.000014\C,0,-1.022699,0.025927,-0.000029\C,0
 ,-0.322956,1.233059,-0.000035\C,0,1.065095,1.191214,0.000005\C,0,1.708
 576,-0.028498,0.000046\H,0,1.568769,-2.155117,0.000083\H,0,1.647953,2.
 103553,0.000001\F,0,3.062186,-0.053383,0.000082\O,0,-2.38932,0.118262,
 -0.00006\H,0,-2.783409,-0.757434,-0.00012\C,0,-1.07622,2.530558,-0.000

 Normal termination of Gaussian 16 at Wed Apr  9 01:03:43 2025.
