 Gaussian 16, Revision C.01,

 ----------------------------------------------------------------------
 #t hf aug-cc-pvdz symm=none int=(grid=ultrafine) guess=(read,tcheck) s
 table=(opt,rrhf)
 ----------------------------------------------------------------------
 -----
 title
 -----
 Symbolic Z-matrix:
 Charge =  0 Multiplicity = 1

 SCF Done:  E(RHF) =  -559.777310559     A.U. after   14 cycles
 Normal termination of Gaussian 16 at Wed Apr  9 00:58:46 2025.
 Gaussian 16:  ES64L-G16RevC.01  3-Jul-2019

 ----------------------------------------------------------------------
 #t hf aug-cc-pvdz iop(5/13=1,5/36=2,99/5=2) pseudo=read geom=check gue
 ss=(read,tcheck) scf=(maxcycle=1)
 ----------------------------------------------------------------------
 -----
 title
 -----
 Structure from the checkpoint file:  "BH10-RE_129_mol3.chk"
 Charge =  0 Multiplicity = 1

                         Standard orientation:
 ---------------------------------------------------------------------
 Center     Atomic      Atomic             Coordinates (Angstroms)
 Number     Number       Type             X           Y           Z
 ---------------------------------------------------------------------
      1          6           0        2.574234   -0.348383   -0.072484
      2          6           0        2.119788    0.994526   -0.632492
      3          6           0        1.407058   -1.283421    0.222957
      4          6           0        0.738551    1.376046   -0.110637
      5          6           0       -0.312543    0.377223   -0.592965
      6          6           0        0.260784   -1.034621   -0.753151
      7          8           0       -1.356111    0.387642    0.409387
      8          6           0       -2.581498   -0.010714    0.029907
      9          6           0       -3.548358    0.056245    1.175249
     10          8           0       -2.847287   -0.371778   -1.086450
     11          1           0        2.106235    0.938330   -1.725463
     12          1           0        2.865646    1.745164   -0.367254
     13          1           0        1.070740   -1.080462    1.243080
     14          1           0        1.734124   -2.323665    0.197090
     15          1           0        0.465005    2.387454   -0.414446
     16          1           0        0.748405    1.365825    0.981782
     17          1           0       -0.762647    0.695116   -1.532962
     18          1           0        0.611942   -1.154873   -1.782441
     19          1           0       -0.537686   -1.764707   -0.623879
     20          1           0       -3.571289    1.067068    1.584029
     21          1           0       -3.218955   -0.612348    1.972173
     22          1           0       -4.538223   -0.233804    0.832885
     23          9           0        3.267101   -0.122699    1.132779
     24          1           0        3.301873   -0.813126   -0.741419
 ---------------------------------------------------------------------

 SCF Done:  E(RHF) =  -562.262880832     A.U. after    2 cycles

 The electronic state is 1-A.
 Alpha  occ. eigenvalues --  -29.23669 -21.08376 -21.04554 -11.53063 -11.52565
 Alpha  occ. eigenvalues --  -11.48397 -11.44991 -11.40781 -11.40111 -11.39437
 Alpha  occ. eigenvalues --  -11.36190  -1.84769  -1.66375  -1.34348  -1.15335
 Alpha  occ. eigenvalues --   -1.12479  -1.09501  -0.93222  -0.92593  -0.80604
 Alpha  occ. eigenvalues --   -0.75878  -0.71637  -0.71166  -0.65974  -0.62882
 Alpha  occ. eigenvalues --   -0.60991  -0.59821  -0.58376  -0.55390  -0.54089
 Alpha  occ. eigenvalues --   -0.53722  -0.52249  -0.51839  -0.48554  -0.45904
 Alpha  occ. eigenvalues --   -0.43611  -0.42575  -0.40008  -0.34501  -0.31849
 Alpha  occ. eigenvalues --   -0.29333  -0.24061  -0.23134
 Alpha virt. eigenvalues --    0.03558   0.04308   0.04424   0.05440   0.05591
 Alpha virt. eigenvalues --    0.05656   0.06392   0.06830   0.07273   0.07516
 Alpha virt. eigenvalues --    0.07646   0.08246   0.09198   0.11581   0.12293

 Mulliken charges:
               1
     1  C   -0.121503
     2  C   -3.657402
     3  C   -3.704228
     4  C   -3.814540
     5  C    2.419398
     6  C   -4.045830
     7  O   -3.852627
     8  C    5.736313
     9  C   -4.843586
    10  O   -3.212988
    11  H    1.379962
    12  H    1.251928
    13  H    1.444731
    14  H    1.313805
    15  H    1.312240
    16  H    1.578828
    17  H    2.063791
    18  H    1.312149
    19  H    1.728572
    20  H    1.347084
    21  H    1.343785
    22  H    1.236830
    23  F    0.095193
    24  H    1.688096
 Sum of Mulliken charges =  -0.00000

 Dipole moment (field-independent basis, Debye):
    X=              1.2414    Y=              0.5425    Z=              1.6666  Tot=              2.1478

 Test job not archived.
 1\1\GINC-SE072\SP\RHF\Aug-CC-pVDZ\C8H13F1O2\OHZDE\09-Apr-2025\0\\#t hf
  aug-cc-pvdz iop(5/13=1,5/36=2,99/5=2) pseudo=read geom=check guess=(r
 ead,tcheck) scf=(maxcycle=1)\\title\\0,1\C,0,2.574234,-0.348383,-0.072
 484\C,0,2.119788,0.994526,-0.632492\C,0,1.407058,-1.283421,0.222957\C,
 0,0.738551,1.376046,-0.110637\C,0,-0.312543,0.377223,-0.592965\C,0,0.2
 60784,-1.034621,-0.753151\O,0,-1.356111,0.387642,0.409387\C,0,-2.58149
 8,-0.010714,0.029907\C,0,-3.548358,0.056245,1.175249\O,0,-2.847287,-0.
 371778,-1.08645\H,0,2.106235,0.93833,-1.725463\H,0,2.865646,1.745164,-

 Normal termination of Gaussian 16 at Wed Apr  9 00:59:03 2025.
