 Gaussian 16, Revision C.01,

 ----------------------------------------------------------------------
 #t hf aug-cc-pvdz symm=none int=(grid=ultrafine) guess=(read,tcheck) s
 table=opt
 ----------------------------------------------------------------------
 -----
 title
 -----
 Symbolic Z-matrix:
 Charge =  0 Multiplicity = 2

 SCF Done:  E(UHF) =  -1247.52047547     A.U. after   17 cycles
 Normal termination of Gaussian 16 at Wed Apr  9 01:14:21 2025.
 Gaussian 16:  ES64L-G16RevC.01  3-Jul-2019

 ----------------------------------------------------------------------
 #t hf aug-cc-pvdz iop(5/13=1,5/36=2,99/5=2) pseudo=read geom=check gue
 ss=(read,tcheck) scf=(maxcycle=1)
 ----------------------------------------------------------------------
 -----
 title
 -----
 Structure from the checkpoint file:  "BH10_182_reverse_mol2.chk"
 Charge =  0 Multiplicity = 2

                         Standard orientation:
 ---------------------------------------------------------------------
 Center     Atomic      Atomic             Coordinates (Angstroms)
 Number     Number       Type             X           Y           Z
 ---------------------------------------------------------------------
      1          7           0        0.482203    0.474211   -1.113904
      2         16           0        1.857344   -0.205343   -0.509921
      3          8           0        1.584742   -0.502944    1.046038
      4          6           0        1.101885   -1.794231    1.492577
      5          6           0       -0.412772   -1.882789    1.491167
      6          1           0        1.493444   -1.866211    2.505330
      7          1           0        1.555973   -2.570532    0.875815
      8          6           0       -1.039328   -2.047633    0.149695
      9          1           0       -0.824017   -1.007957    2.006021
     10          1           0       -0.674654   -2.746036    2.126765
     11          6           0       -2.510496   -1.908962   -0.024579
     12          1           0       -0.474768   -2.575991   -0.615661
     13          6           0        0.141331    1.855422   -0.870330
     14          1           0       -0.306114    2.284705   -1.768565
     15          6           0       -0.853734    2.045242    0.255139
     16          9           0       -1.973345    1.321595    0.032924
     17          9           0       -1.219358    3.332125    0.342732
     18          9           0       -0.378745    1.670664    1.446972
     19          8           0        2.856236    0.826409   -0.516780
     20          8           0        2.012086   -1.469403   -1.185878
     21          6           0       -2.939631   -1.710747   -1.476358
     22          1           0       -2.876871   -1.081104    0.591161
     23          1           0       -3.007344   -2.809348    0.373162
     24          1           0       -2.556324   -0.768913   -1.877197
     25          1           0       -4.026802   -1.684776   -1.566824
     26          1           0       -2.569352   -2.519978   -2.110097
     27          1           0        1.047268    2.414834   -0.639473
     28          1           0       -0.278373   -0.192441   -1.198921
 ---------------------------------------------------------------------

 SCF Done:  E(UHF) =  -1251.31121868     A.U. after    2 cycles

 The electronic state is 2-A.
 Alpha  occ. eigenvalues --  -75.93812 -29.32153 -29.32013 -29.31906 -21.09684
 Alpha  occ. eigenvalues --  -21.06439 -21.06241 -15.78733 -13.57269 -13.47793
 Alpha  occ. eigenvalues --  -13.44804 -11.62953 -11.48592 -11.46194 -11.44583
 Alpha  occ. eigenvalues --  -11.42013 -11.39134 -11.36640  -8.29074  -1.92054
 Alpha  occ. eigenvalues --   -1.74693  -1.67805  -1.49133  -1.38048  -1.27283
 Alpha  occ. eigenvalues --   -1.14643  -1.07748  -1.00784  -0.93739  -0.90505
 Alpha  occ. eigenvalues --   -0.90057  -0.86405  -0.82733  -0.77200  -0.71587
 Alpha  occ. eigenvalues --   -0.68287  -0.67464  -0.64606  -0.62652  -0.61548
 Alpha  occ. eigenvalues --   -0.60001  -0.58647  -0.56774  -0.53606  -0.52210
 Alpha  occ. eigenvalues --   -0.50418  -0.49808  -0.48946  -0.46408  -0.45704
 Alpha  occ. eigenvalues --   -0.44811  -0.44623  -0.43538  -0.42766  -0.41451
 Alpha  occ. eigenvalues --   -0.38133  -0.37939  -0.37486  -0.36451  -0.35758
 Alpha  occ. eigenvalues --   -0.32520  -0.29564  -0.26640  -0.26336  -0.22508
 Alpha virt. eigenvalues --    0.03940   0.04336   0.04774   0.05057   0.05710
 Alpha virt. eigenvalues --    0.06104   0.06204   0.06540   0.07256   0.08009
 Alpha virt. eigenvalues --    0.08633   0.08700   0.09071   0.10538   0.10712

  Beta  occ. eigenvalues --  -75.93812 -29.32153 -29.32012 -29.31906 -21.09695
  Beta  occ. eigenvalues --  -21.06437 -21.06238 -15.78652 -13.57269 -13.47791
  Beta  occ. eigenvalues --  -13.44806 -11.62952 -11.48592 -11.46196 -11.43843
  Beta  occ. eigenvalues --  -11.42106 -11.38702 -11.35950  -8.29075  -1.92052
  Beta  occ. eigenvalues --   -1.74693  -1.67799  -1.49071  -1.37950  -1.24638
  Beta  occ. eigenvalues --   -1.14554  -1.07587  -0.98909  -0.93139  -0.90498
  Beta  occ. eigenvalues --   -0.89962  -0.85899  -0.79784  -0.76972  -0.71367
  Beta  occ. eigenvalues --   -0.68095  -0.66676  -0.63197  -0.62381  -0.60324
  Beta  occ. eigenvalues --   -0.59695  -0.58121  -0.56337  -0.53175  -0.51459
  Beta  occ. eigenvalues --   -0.49794  -0.49564  -0.48451  -0.46188  -0.45194
  Beta  occ. eigenvalues --   -0.44740  -0.44535  -0.43395  -0.42700  -0.41337
  Beta  occ. eigenvalues --   -0.38099  -0.37851  -0.37461  -0.36345  -0.35632
  Beta  occ. eigenvalues --   -0.30164  -0.26632  -0.26341  -0.22526
  Beta virt. eigenvalues --    0.03748   0.04353   0.04772   0.05070   0.05639
  Beta virt. eigenvalues --    0.05972   0.06210   0.06545   0.07253   0.07553
  Beta virt. eigenvalues --    0.08616   0.08668   0.09071   0.09847   0.10568

 Mulliken charges and spin densities:
               1          2
     1  N   -3.120400  -0.030296
     2  S    8.801697   0.007527
     3  O   -3.415508   0.005671
     4  C   -2.354927   0.035848
     5  C   -2.847191  -0.467979
     6  H    1.255937  -0.000537
     7  H    1.895416  -0.002119
     8  C   -0.397278   1.845505
     9  H    1.621976   0.018256
    10  H    1.258809   0.031203
    11  C   -3.392581  -0.509225
    12  H    2.097071  -0.030641
    13  C   -3.661095   0.007707
    14  H    1.428621  -0.000508
    15  C    0.212846   0.006289
    16  F    0.378252   0.006221
    17  F    0.235153  -0.000263
    18  F    0.282748   0.000983
    19  O   -2.682627  -0.001153
    20  O   -2.713688   0.008675
    21  C   -4.208479   0.048220
    22  H    1.471524   0.005805
    23  H    1.309498   0.035900
    24  H    1.522541   0.020451
    25  H    1.127473  -0.000867
    26  H    1.307684  -0.003955
    27  H    1.571202   0.001661
    28  H    1.015325  -0.038380
 Sum of Mulliken charges =   0.00000   1.00000

 Dipole moment (field-independent basis, Debye):
    X=             -3.8643    Y=             -0.5618    Z=              2.9271  Tot=              4.8802
                          Isotropic Fermi Contact Couplings
        Atom                 a.u.       MegaHertz       Gauss      10(-4) cm-1
     1  N(14)              0.01354       4.37339       1.56053       1.45880
     2  S(33)              0.00202       0.69295       0.24726       0.23114
     3  O(17)             -0.00095       0.57800       0.20624       0.19280
     4  C(13)              0.00913      10.26735       3.66365       3.42482
     5  C(13)             -0.03558     -39.99724     -14.27201     -13.34164
     6  H(1)              -0.00077      -3.45725      -1.23363      -1.15321
     7  H(1)              -0.00053      -2.38067      -0.84948      -0.79411
     8  C(13)              0.14053     157.98591      56.37330      52.69843

 Normal termination of Gaussian 16 at Wed Apr  9 01:14:59 2025.
