 Gaussian 16, Revision C.01,

 ----------------------------------------------------------------------
 #t hf aug-cc-pvdz symm=none int=(grid=ultrafine) guess=(read,tcheck) s
 table=(opt,rrhf)
 ----------------------------------------------------------------------
 -----
 title
 -----
 Symbolic Z-matrix:
 Charge =  0 Multiplicity = 1

 SCF Done:  E(RHF) =  -628.258435845     A.U. after   15 cycles
 Normal termination of Gaussian 16 at Wed Apr  9 01:01:01 2025.
 Gaussian 16:  ES64L-G16RevC.01  3-Jul-2019

 ----------------------------------------------------------------------
 #t hf aug-cc-pvdz iop(5/13=1,5/36=2,99/5=2) pseudo=read geom=check gue
 ss=(read,tcheck) scf=(maxcycle=1)
 ----------------------------------------------------------------------
 -----
 title
 -----
 Structure from the checkpoint file:  "BH10_174_reverse_mol3.chk"
 Charge =  0 Multiplicity = 1

                         Standard orientation:
 ---------------------------------------------------------------------
 Center     Atomic      Atomic             Coordinates (Angstroms)
 Number     Number       Type             X           Y           Z
 ---------------------------------------------------------------------
      1          6           0        2.284159    0.005656   -0.000508
      2          6           0        1.586465   -1.194551    0.001167
      3          6           0        0.200280   -1.202467    0.003772
      4          6           0       -0.504142   -0.001277    0.002097
      5          6           0        0.193273    1.202966   -0.002724
      6          6           0        1.580506    1.201488   -0.001293
      7         16           0       -2.279257   -0.083009   -0.006248
      8          1           0        3.366837    0.008667   -0.000780
      9          1           0        2.123446   -2.135460    0.002492
     10          1           0       -0.336095   -2.143950    0.009423
     11          1           0       -0.342556    2.144570   -0.007542
     12          1           0        2.112389    2.145370   -0.002953
     13          1           0       -2.499156    1.238056    0.084272
 ---------------------------------------------------------------------

 SCF Done:  E(RHF) =  -629.594234178     A.U. after    2 cycles

 The electronic state is 1-A.
 Alpha  occ. eigenvalues --  -75.70043 -13.17248 -13.14689 -13.01850 -11.51601
 Alpha  occ. eigenvalues --  -11.44244 -11.43363 -11.41227 -11.40918 -11.36777
 Alpha  occ. eigenvalues --   -8.04069  -1.36545  -1.17407  -1.09973  -1.03526
 Alpha  occ. eigenvalues --   -0.87399  -0.84370  -0.71428  -0.64851  -0.59517
 Alpha  occ. eigenvalues --   -0.58586  -0.55056  -0.52052  -0.48091  -0.45286
 Alpha  occ. eigenvalues --   -0.38581  -0.37525  -0.33764  -0.22634
 Alpha virt. eigenvalues --    0.02997   0.04435   0.04983   0.05668   0.05874
 Alpha virt. eigenvalues --    0.07313   0.09656   0.10589   0.10944   0.11140
 Alpha virt. eigenvalues --    0.12733   0.13662   0.14150   0.14269   0.14639

 Mulliken charges:
               1
     1  C   -2.540217
     2  C   -0.949350
     3  C   -3.489416
     4  C    2.499350
     5  C   -2.671260
     6  C   -0.770577
     7  S   -1.095639
     8  H    1.504508
     9  H    1.504656
    10  H    1.745030
    11  H    1.766139
    12  H    1.458807
    13  H    1.037970
 Sum of Mulliken charges =   0.00000

 Dipole moment (field-independent basis, Debye):
    X=             -0.2504    Y=             -0.8777    Z=             -0.0622  Tot=              0.9148

 Test job not archived.
 1\1\GINC-SE166\SP\RHF\Aug-CC-pVDZ\C6H6S1\OHZDE\09-Apr-2025\0\\#t hf au
 g-cc-pvdz iop(5/13=1,5/36=2,99/5=2) pseudo=read geom=check guess=(read
 ,tcheck) scf=(maxcycle=1)\\title\\0,1\C,0,2.284159,0.005656,-0.000508\
 C,0,1.586465,-1.194551,0.001167\C,0,0.20028,-1.202467,0.003772\C,0,-0.
 504142,-0.001277,0.002097\C,0,0.193273,1.202966,-0.002724\C,0,1.580506
 ,1.201488,-0.001293\S,0,-2.279257,-0.083009,-0.006248\H,0,3.366837,0.0
 08667,-0.00078\H,0,2.123446,-2.13546,0.002492\H,0,-0.336095,-2.14395,0
 .009423\H,0,-0.342556,2.14457,-0.007542\H,0,2.112389,2.14537,-0.002953

 Normal termination of Gaussian 16 at Wed Apr  9 01:01:06 2025.
