 Gaussian 16, Revision C.01,

 ----------------------------------------------------------------------
 #t hf aug-cc-pvdz symm=none int=(grid=ultrafine) guess=(read,tcheck) s
 table=(opt,rrhf)
 ----------------------------------------------------------------------
 -----
 title
 -----
 Symbolic Z-matrix:
 Charge =  0 Multiplicity = 1

 SCF Done:  E(RHF) =  -727.020915621     A.U. after   15 cycles
 Normal termination of Gaussian 16 at Wed Apr  9 01:31:55 2025.
 Gaussian 16:  ES64L-G16RevC.01  3-Jul-2019

 ----------------------------------------------------------------------
 #t hf aug-cc-pvdz iop(5/13=1,5/36=2,99/5=2) pseudo=read geom=check gue
 ss=(read,tcheck) scf=(maxcycle=1)
 ----------------------------------------------------------------------
 -----
 title
 -----
 Structure from the checkpoint file:  "BH10_312_reverse_mol2.chk"
 Charge =  0 Multiplicity = 1

                         Standard orientation:
 ---------------------------------------------------------------------
 Center     Atomic      Atomic             Coordinates (Angstroms)
 Number     Number       Type             X           Y           Z
 ---------------------------------------------------------------------
      1          6           0       -2.353986   -1.255084   -0.000088
      2          6           0       -3.701673   -0.925444   -0.000035
      3          6           0       -4.089333    0.405805    0.000079
      4          6           0       -3.119335    1.402386    0.000139
      5          6           0       -1.775814    1.070685    0.000087
      6          6           0       -1.369494   -0.266343   -0.000027
      7          1           0       -2.054622   -2.297295   -0.000178
      8          1           0       -4.448693   -1.710027   -0.000083
      9          1           0       -5.140136    0.668739    0.000120
     10          1           0       -3.414914    2.444763    0.000226
     11          1           0       -1.035030    1.860310    0.000131
     12          6           0        0.043302   -0.676000   -0.000085
     13          6           0        1.116289    0.114501    0.000008
     14          1           0        1.001463    1.197822    0.000147
     15         15           0        2.811427   -0.555931   -0.000085
     16          6           0        3.517015    0.420719    1.404966
     17          1           0        3.313816    1.490610    1.310150
     18          1           0        3.094741    0.063661    2.345012
     19          1           0        4.597887    0.271477    1.443221
     20          6           0        3.516995    0.421063   -1.404907
     21          1           0        3.094706    0.064237   -2.345035
     22          1           0        3.313801    1.490931   -1.309825
     23          1           0        4.597866    0.271828   -1.443217
     24          1           0        0.203910   -1.751814   -0.000217
 ---------------------------------------------------------------------

 SCF Done:  E(RHF) =  -729.128885644     A.U. after    2 cycles

 The electronic state is 1-A.
 Alpha  occ. eigenvalues -- -105.15523 -11.51890 -11.46028 -11.43354 -11.42589
 Alpha  occ. eigenvalues --  -11.41603 -11.40736 -11.39636 -11.36551 -11.36348
 Alpha  occ. eigenvalues --  -11.36241  -2.74442  -1.49172  -1.46565  -1.44973
 Alpha  occ. eigenvalues --   -1.36019  -1.17351  -1.09560  -1.05931  -1.01441
 Alpha  occ. eigenvalues --   -0.96178  -0.88108  -0.86075  -0.78445  -0.71424
 Alpha  occ. eigenvalues --   -0.66994  -0.64153  -0.59275  -0.58291  -0.57180
 Alpha  occ. eigenvalues --   -0.56600  -0.56195  -0.55191  -0.54160  -0.51608
 Alpha  occ. eigenvalues --   -0.51160  -0.45183  -0.44179  -0.41089  -0.33282
 Alpha  occ. eigenvalues --   -0.30150  -0.20974  -0.19935  -0.00759
 Alpha virt. eigenvalues --    0.03835   0.04928   0.05091   0.05682   0.05922
 Alpha virt. eigenvalues --    0.06363   0.06486   0.06872   0.06892   0.07733
 Alpha virt. eigenvalues --    0.08048   0.09199   0.09275   0.09619   0.10693

 Mulliken charges:
               1
     1  C   -4.083340
     2  C   -2.419222
     3  C   -3.550528
     4  C   -3.775699
     5  C    0.100535
     6  C    6.547875
     7  H    1.627727
     8  H    1.437212
     9  H    1.375929
    10  H    1.504058
    11  H    1.393816
    12  C   -5.113268
    13  C   -1.970127
    14  H    2.326816
    15  P    8.956211
    16  C   -6.254039
    17  H    0.971965
    18  H    1.092847
    19  H    1.134498
    20  C   -6.254043
    21  H    1.092856
    22  H    0.971990
    23  H    1.134470
    24  H    1.751461
 Sum of Mulliken charges =   0.00000

 Dipole moment (field-independent basis, Debye):
    X=             -1.3619    Y=             -2.1959    Z=             -0.0003  Tot=              2.5840

 Test job not archived.
 1\1\GINC-SE173\SP\RHF\Aug-CC-pVDZ\C10H13P1\OHZDE\09-Apr-2025\0\\#t hf
 aug-cc-pvdz iop(5/13=1,5/36=2,99/5=2) pseudo=read geom=check guess=(re
 ad,tcheck) scf=(maxcycle=1)\\title\\0,1\C,0,-2.353986,-1.255084,-0.000
 088\C,0,-3.701673,-0.925444,-0.000035\C,0,-4.089333,0.405805,0.000079\
 C,0,-3.119335,1.402386,0.000139\C,0,-1.775814,1.070685,0.000087\C,0,-1
 .369494,-0.266343,-0.000027\H,0,-2.054622,-2.297295,-0.000178\H,0,-4.4
 48693,-1.710027,-0.000083\H,0,-5.140136,0.668739,0.00012\H,0,-3.414914
 ,2.444763,0.000226\H,0,-1.03503,1.86031,0.000131\C,0,0.043302,-0.676,-

 Normal termination of Gaussian 16 at Wed Apr  9 01:32:12 2025.
