 Gaussian 16, Revision C.01,

 ----------------------------------------------------------------------
 #t hf aug-cc-pvdz symm=none int=(grid=ultrafine) guess=(read,tcheck) s
 table=(opt,rrhf)
 ----------------------------------------------------------------------
 -----
 title
 -----
 Symbolic Z-matrix:
 Charge =  0 Multiplicity = 1

 SCF Done:  E(RHF) =  -1667.48047493     A.U. after   14 cycles
 Normal termination of Gaussian 16 at Wed Apr  9 02:32:33 2025.
 Gaussian 16:  ES64L-G16RevC.01  3-Jul-2019

 ----------------------------------------------------------------------
 #t hf aug-cc-pvdz iop(5/13=1,5/36=2,99/5=2) pseudo=read geom=check gue
 ss=(read,tcheck) scf=(maxcycle=1)
 ----------------------------------------------------------------------
 -----
 title
 -----
 Structure from the checkpoint file:  "BH10_358_reverse_mol2.chk"
 Charge =  0 Multiplicity = 1

                         Standard orientation:
 ---------------------------------------------------------------------
 Center     Atomic      Atomic             Coordinates (Angstroms)
 Number     Number       Type             X           Y           Z
 ---------------------------------------------------------------------
      1          6           0       -0.687031    2.030998   -0.322779
      2          6           0       -0.449015    0.619143    0.143161
      3          6           0        0.804930    0.256833    0.843948
      4          6           0        2.011153    0.364396   -0.189211
      5          6           0        3.314412    0.085713    0.573431
      6          6           0        4.483895    0.192458   -0.373641
      7          7           0       -1.286502   -0.338073   -0.068066
      8          6           0       -2.588944   -0.234682   -0.719624
      9          6           0       -3.714522   -0.048657    0.291450
     10          1           0       -2.738331   -1.149991   -1.294052
     11          1           0       -2.557462    0.593364   -1.427231
     12          6           0       -5.070867    0.049869   -0.395874
     13          1           0       -3.520010    0.849998    0.885484
     14          1           0       -3.712572   -0.892460    0.988448
     15          6           0       -6.207053    0.237490    0.605314
     16          1           0       -5.258754   -0.848507   -0.984876
     17          1           0       -5.065764    0.895389   -1.094067
     18          6           0       -7.601131    0.320696   -0.024326
     19          1           0       -6.043260    1.164473    1.164512
     20          1           0       -6.194059   -0.579397    1.335180
     21          6           0       -8.087711   -1.043373   -0.546790
     22          7           0       -8.632228    0.881735    0.853897
     23          1           0       -7.550960    0.960401   -0.911806
     24          8           0       -7.363452   -1.852086   -1.057705
     25          8           0       -9.395493   -1.236703   -0.405927
     26          1           0       -9.729652   -0.451073    0.077740
     27          8           0        0.271217    2.907808    0.122066
     28          1           0       -1.681194    2.341181    0.023590
     29          1           0       -0.734352    1.977799   -1.425663
     30          1           0        1.157673    2.510428   -0.274574
     31          8           0        0.642673   -1.042110    1.372661
     32          1           0        0.966221    1.006370    1.627379
     33          1           0        1.533226   -1.422091    1.484620
     34          8           0        2.076292    1.547524   -0.821750
     35          1           0        1.850550   -0.504187   -0.867106
     36          8           0        3.271071   -1.227413    1.148656
     37          1           0        3.428986    0.831105    1.368372
     38          1           0        4.124974   -1.405499    1.557413
     39          8           0        5.640593   -0.242915    0.387104
     40          1           0        4.611814    1.217683   -0.711067
     41          1           0        4.350288   -0.472834   -1.230132
     42          1           0       -8.678579    1.890469    0.796159
     43          1           0       -8.476309    0.630583    1.824428
     44         15           0        7.084807   -0.308379   -0.279822
     45          8           0        7.908227   -0.916359    0.955086
     46          1           0        8.696982   -0.401232    1.154657
     47          8           0        6.998877   -1.515550   -1.330871
     48          1           0        6.734685   -2.362922   -0.956758
     49          8           0        7.622755    0.913976   -0.875536
     50          1           0       -0.985903   -1.233689    0.325220
 ---------------------------------------------------------------------

 SCF Done:  E(RHF) =  -1673.56013310     A.U. after    2 cycles

 The electronic state is 1-A.
 Alpha  occ. eigenvalues -- -105.32216 -21.11810 -21.11541 -21.11254 -21.07826
 Alpha  occ. eigenvalues --  -21.07711 -21.07541 -21.05352 -21.01681 -21.00919
 Alpha  occ. eigenvalues --  -20.92613 -15.84296 -15.78395 -11.57027 -11.54389
 Alpha  occ. eigenvalues --  -11.50723 -11.49434 -11.48755 -11.47706 -11.46564
 Alpha  occ. eigenvalues --  -11.46045 -11.44504 -11.43461 -11.39561 -11.39411
 Alpha  occ. eigenvalues --   -2.95352  -2.00564  -1.92052  -1.91217  -1.83700
 Alpha  occ. eigenvalues --   -1.77471  -1.75176  -1.71486  -1.69266  -1.66566
 Alpha  occ. eigenvalues --   -1.59146  -1.50615  -1.43351  -1.40764  -1.40327
 Alpha  occ. eigenvalues --   -1.26929  -1.25276  -1.17350  -1.11813  -1.08931
 Alpha  occ. eigenvalues --   -1.03294  -1.02048  -0.96142  -0.91658  -0.88169
 Alpha  occ. eigenvalues --   -0.86173  -0.83161  -0.81443  -0.79198  -0.75415
 Alpha  occ. eigenvalues --   -0.74695  -0.71225  -0.70861  -0.69054  -0.68452
 Alpha  occ. eigenvalues --   -0.67453  -0.66640  -0.65799  -0.64736  -0.62642
 Alpha  occ. eigenvalues --   -0.61095  -0.60580  -0.60429  -0.59483  -0.58555
 Alpha  occ. eigenvalues --   -0.57941  -0.55833  -0.54790  -0.54217  -0.53419
 Alpha  occ. eigenvalues --   -0.52449  -0.52040  -0.51284  -0.50302  -0.50089
 Alpha  occ. eigenvalues --   -0.49064  -0.48855  -0.47129  -0.46073  -0.45551
 Alpha  occ. eigenvalues --   -0.43984  -0.42320  -0.41216  -0.40044  -0.39267
 Alpha  occ. eigenvalues --   -0.38135  -0.37089  -0.36210  -0.34000  -0.33719
 Alpha  occ. eigenvalues --   -0.33515  -0.33187  -0.29580  -0.29429  -0.28385
 Alpha  occ. eigenvalues --   -0.26711  -0.22821  -0.20304
 Alpha virt. eigenvalues --   -0.15408   0.02243   0.02968   0.03486   0.03645
 Alpha virt. eigenvalues --    0.03961   0.04340   0.04738   0.04874   0.05395
 Alpha virt. eigenvalues --    0.05588   0.05921   0.06181   0.06697   0.07059

 Mulliken charges:
               1
     1  C    0.207450
     2  C    3.284370
     3  C   -0.308492
     4  C    1.401673
     5  C    0.314631
     6  C   -0.969048
     7  N   -4.249605
     8  C   -2.969777
     9  C   -2.236149
    10  H    1.720793
    11  H    2.005143
    12  C   -3.454406
    13  H    1.886799
    14  H    1.708465
    15  C   -3.252996
    16  H    1.861286
    17  H    1.625997
    18  C   -2.051578
    19  H    1.383686
    20  H    1.401989
    21  C    6.746911
    22  N   -2.753000
    23  H    1.569577
    24  O   -3.317599
    25  O   -3.392807
    26  H    1.063009
    27  O   -3.477935
    28  H    1.205473
    29  H    1.398175
    30  H    1.470824
    31  O   -3.896576
    32  H    1.756975
    33  H    1.372796
    34  O   -3.598966
    35  H    1.414964
    36  O   -3.447825
    37  H    1.790298
    38  H    0.916398
    39  O   -4.637734
    40  H    1.573954
    41  H    1.847298
    42  H    0.360824
    43  H    0.493915
    44  P    9.934805
    45  O   -3.264974
    46  H    0.035884
    47  O   -2.625213
    48  H    0.813875
    49  O   -1.476547
    50  H    0.812990
 Sum of Mulliken charges =  -0.00000

 Dipole moment (field-independent basis, Debye):
    X=             50.3744    Y=              4.3961    Z=             -8.6394  Tot=             51.2986

 Test job not archived.
 1\1\GINC-SE016\SP\RHF\Aug-CC-pVDZ\C12H25N2O10P1\OHZDE\09-Apr-2025\0\\#
 t hf aug-cc-pvdz iop(5/13=1,5/36=2,99/5=2) pseudo=read geom=check gues
 s=(read,tcheck) scf=(maxcycle=1)\\title\\0,1\C,0,-0.687031,2.030998,-0
 .322779\C,0,-0.449015,0.619143,0.143161\C,0,0.80493,0.256833,0.843948\
 C,0,2.011153,0.364396,-0.189211\C,0,3.314412,0.085713,0.573431\C,0,4.4
 83895,0.192458,-0.373641\N,0,-1.286502,-0.338073,-0.068066\C,0,-2.5889
 44,-0.234682,-0.719624\C,0,-3.714522,-0.048657,0.29145\H,0,-2.738331,-
 1.149991,-1.294052\H,0,-2.557462,0.593364,-1.427231\C,0,-5.070867,0.04

 Normal termination of Gaussian 16 at Wed Apr  9 02:34:36 2025.
