 Gaussian 16, Revision C.01,

 ----------------------------------------------------------------------
 #t hf aug-cc-pvdz symm=none int=(grid=ultrafine) guess=(read,tcheck) s
 table=opt
 ----------------------------------------------------------------------
 -----
 title
 -----
 Symbolic Z-matrix:
 Charge =  0 Multiplicity = 2

 SCF Done:  E(UHF) =  -811.781572759     A.U. after   24 cycles
 Normal termination of Gaussian 16 at Wed Apr  9 00:59:45 2025.
 Gaussian 16:  ES64L-G16RevC.01  3-Jul-2019

 ----------------------------------------------------------------------
 #t hf aug-cc-pvdz iop(5/13=1,5/36=2,99/5=2) pseudo=read geom=check gue
 ss=(read,tcheck) scf=(maxcycle=1)
 ----------------------------------------------------------------------
 -----
 title
 -----
 Structure from the checkpoint file:  "BH10_152_reverse_mol2.chk"
 Charge =  0 Multiplicity = 2

                         Standard orientation:
 ---------------------------------------------------------------------
 Center     Atomic      Atomic             Coordinates (Angstroms)
 Number     Number       Type             X           Y           Z
 ---------------------------------------------------------------------
      1          7           0       -0.641872   -1.093621   -0.298929
      2          1           0        0.013284   -1.512445   -0.946766
      3          6           0       -0.107384   -0.113245    0.630670
      4          1           0       -0.743867   -0.131447    1.518681
      5          6           0        1.321067   -0.458200    1.022266
      6          6           0       -0.158801    1.300075    0.021932
      7          1           0        1.702474    0.285839    1.719720
      8          1           0        1.333813   -1.430677    1.524681
      9         16           0        2.444592   -0.605012   -0.378702
     10          8           0        0.853669    1.869001   -0.338325
     11          7           0       -1.397656    1.822720   -0.066387
     12          1           0       -1.509064    2.712287   -0.526635
     13          1           0       -2.208402    1.257120    0.155853
     14          6           0       -1.962301   -1.323785   -0.428765
     15          1           0       -2.197881   -2.110129   -1.161544
     16          8           0       -2.826497   -0.734392    0.195304
 ---------------------------------------------------------------------

 SCF Done:  E(UHF) =  -813.804099188     A.U. after    2 cycles

 The electronic state is 2-A.
 Alpha  occ. eigenvalues --  -75.70890 -21.05015 -21.03438 -15.78890 -15.77641
 Alpha  occ. eigenvalues --  -13.13696 -13.07952 -13.06241 -11.52582 -11.50477
 Alpha  occ. eigenvalues --  -11.47301 -11.42192  -8.04522  -1.73540  -1.71392
 Alpha  occ. eigenvalues --   -1.44165  -1.34566  -1.22355  -1.07927  -0.92510
 Alpha  occ. eigenvalues --   -0.87829  -0.79680  -0.75141  -0.72887  -0.67520
 Alpha  occ. eigenvalues --   -0.65285  -0.58051  -0.56608  -0.53532  -0.52591
 Alpha  occ. eigenvalues --   -0.50774  -0.48998  -0.42329  -0.35698  -0.34444
 Alpha  occ. eigenvalues --   -0.32293  -0.30737  -0.26051  -0.24703
 Alpha virt. eigenvalues --    0.03213   0.04303   0.05250   0.05415   0.06026
 Alpha virt. eigenvalues --    0.06626   0.07593   0.08693   0.09770   0.11414
 Alpha virt. eigenvalues --    0.12457   0.12696   0.13035   0.13455   0.13668

  Beta  occ. eigenvalues --  -75.69878 -21.05014 -21.03289 -15.78896 -15.77639
  Beta  occ. eigenvalues --  -13.13024 -13.05998 -13.01598 -11.52589 -11.50478
  Beta  occ. eigenvalues --  -11.47323 -11.42275  -8.03385  -1.73476  -1.71225
  Beta  occ. eigenvalues --   -1.44077  -1.34536  -1.20123  -1.04393  -0.88817
  Beta  occ. eigenvalues --   -0.87772  -0.79343  -0.74972  -0.72754  -0.67267
  Beta  occ. eigenvalues --   -0.64991  -0.57940  -0.55934  -0.53480  -0.52367
  Beta  occ. eigenvalues --   -0.50727  -0.48768  -0.41427  -0.35460  -0.33105
  Beta  occ. eigenvalues --   -0.32152  -0.28985  -0.23790
  Beta virt. eigenvalues --    0.03199   0.04326   0.04493   0.05287   0.05969
  Beta virt. eigenvalues --    0.06386   0.07340   0.07780   0.08771   0.09784
  Beta virt. eigenvalues --    0.11587   0.12518   0.12820   0.13113   0.13665

 Mulliken charges and spin densities:
               1          2
     1  N   -2.641940   0.030557
     2  H    0.662417  -0.034238
     3  C   -1.138535  -0.175408
     4  H    2.016849  -0.001534
     5  C   -3.887576  -0.114626
     6  C    5.170827   0.187980
     7  H    1.251159   0.011160
     8  H    1.322755   0.001102
     9  S    0.442255   1.153343
    10  O   -3.038377  -0.050738
    11  N   -2.984766  -0.019689
    12  H    0.738757   0.006100
    13  H    0.831260  -0.003453
    14  C    2.295303   0.007843
    15  H    1.745718   0.000451
    16  O   -2.786106   0.001151
 Sum of Mulliken charges =  -0.00000   1.00000

 Dipole moment (field-independent basis, Debye):
    X=              0.0540    Y=             -0.4902    Z=             -0.6351  Tot=              0.8041
                          Isotropic Fermi Contact Couplings
        Atom                 a.u.       MegaHertz       Gauss      10(-4) cm-1
     1  N(14)             -0.00232      -0.74861      -0.26712      -0.24971
     2  H(1)               0.00011       0.47953       0.17111       0.15995
     3  C(13)              0.00289       3.25129       1.16014       1.08452
     4  H(1)              -0.00054      -2.40499      -0.85816      -0.80222
     5  C(13)             -0.01667     -18.73535      -6.68524      -6.24944
     6  C(13)             -0.00100      -1.12561      -0.40165      -0.37546
     7  H(1)               0.00270      12.08546       4.31239       4.03127
     8  H(1)               0.01307      58.41126      20.84259      19.48390

 Normal termination of Gaussian 16 at Wed Apr  9 00:59:54 2025.
