 Gaussian 16, Revision C.01,

 ----------------------------------------------------------------------
 #t hf aug-cc-pvdz symm=none int=(grid=ultrafine) guess=(read,tcheck) s
 table=opt
 ----------------------------------------------------------------------
 -----
 title
 -----
 Symbolic Z-matrix:
 Charge =  0 Multiplicity = 2

 SCF Done:  E(UHF) =  -1001.55543166     A.U. after   26 cycles
 Normal termination of Gaussian 16 at Wed Apr  9 01:08:41 2025.
 Gaussian 16:  ES64L-G16RevC.01  3-Jul-2019

 ----------------------------------------------------------------------
 #t hf aug-cc-pvdz iop(5/13=1,5/36=2,99/5=2) pseudo=read geom=check gue
 ss=(read,tcheck) scf=(maxcycle=1)
 ----------------------------------------------------------------------
 -----
 title
 -----
 Structure from the checkpoint file:  "BH10_164_forward_mol1.chk"
 Charge =  0 Multiplicity = 2

                         Standard orientation:
 ---------------------------------------------------------------------
 Center     Atomic      Atomic             Coordinates (Angstroms)
 Number     Number       Type             X           Y           Z
 ---------------------------------------------------------------------
      1          7           0        0.438813   -0.848048    1.337963
      2          1           0        1.113459   -0.641860    2.069599
      3          6           0        0.372635    0.127123    0.322777
      4          1           0       -0.794334    0.769090    0.361163
      5          6           0        0.375199   -0.371524   -1.107207
      6          6           0        1.337848    1.245191    0.664944
      7          1           0       -0.404013   -1.113195   -1.250498
      8          1           0        0.184200    0.450517   -1.793311
      9         16           0        1.992099   -1.062680   -1.613448
     10          8           0        2.109460    1.135884    1.598689
     11          1           0        1.937956   -2.155418   -0.833491
     12          7           0        1.261343    2.336915   -0.129804
     13          1           0        0.410009    2.519720   -0.639838
     14          1           0        1.826893    3.128216    0.136093
     15          6           0       -0.379210   -1.923630    1.458832
     16          1           0       -0.149976   -2.527757    2.350321
     17          8           0       -1.268957   -2.210725    0.686827
     18          8           0       -1.736774    1.507478    0.187174
     19          8           0       -2.427137    1.006331   -0.895791
     20          6           0       -3.423305    0.093136   -0.439701
     21          1           0       -3.975442   -0.187295   -1.336390
     22          1           0       -4.082329    0.590411    0.273311
     23          1           0       -2.952838   -0.785122    0.008029
 ---------------------------------------------------------------------

 SCF Done:  E(UHF) =  -1004.42989774     A.U. after    2 cycles

 The electronic state is 2-A.
 Alpha  occ. eigenvalues --  -75.69493 -21.12896 -21.10695 -21.05412 -21.05086
 Alpha  occ. eigenvalues --  -15.79309 -15.79215 -13.15437 -13.12037 -13.05480
 Alpha  occ. eigenvalues --  -11.55023 -11.51242 -11.49805 -11.43011 -11.40639
 Alpha  occ. eigenvalues --   -8.03367  -2.00176  -1.74467  -1.72732  -1.45197
 Alpha  occ. eigenvalues --   -1.41384  -1.36605  -1.22290  -1.08910  -0.96875
 Alpha  occ. eigenvalues --   -0.94922  -0.87777  -0.80125  -0.77066  -0.72964
 Alpha  occ. eigenvalues --   -0.71257  -0.63927  -0.63858  -0.63508  -0.61429
 Alpha  occ. eigenvalues --   -0.58461  -0.56776  -0.54771  -0.54173  -0.52331
 Alpha  occ. eigenvalues --   -0.50812  -0.50068  -0.45075  -0.44005  -0.39006
 Alpha  occ. eigenvalues --   -0.35545  -0.34602  -0.33615  -0.32396  -0.31222
 Alpha  occ. eigenvalues --   -0.25856  -0.23533
 Alpha virt. eigenvalues --    0.03406   0.04531   0.04785   0.04961   0.05531
 Alpha virt. eigenvalues --    0.05886   0.06867   0.07084   0.07648   0.08426
 Alpha virt. eigenvalues --    0.09108   0.10391   0.11431   0.11768   0.12388

  Beta  occ. eigenvalues --  -75.69426 -21.10671 -21.10097 -21.05203 -21.04893
  Beta  occ. eigenvalues --  -15.79280 -15.79193 -13.15178 -13.11852 -13.05444
  Beta  occ. eigenvalues --  -11.54750 -11.51279 -11.48994 -11.42859 -11.40651
  Beta  occ. eigenvalues --   -8.03292  -1.97129  -1.74085  -1.72368  -1.43782
  Beta  occ. eigenvalues --   -1.37638  -1.36249  -1.21612  -1.06520  -0.96589
  Beta  occ. eigenvalues --   -0.94628  -0.87628  -0.78455  -0.76635  -0.71715
  Beta  occ. eigenvalues --   -0.67840  -0.63788  -0.63243  -0.62670  -0.60602
  Beta  occ. eigenvalues --   -0.57956  -0.55977  -0.54022  -0.53106  -0.51960
  Beta  occ. eigenvalues --   -0.49847  -0.48819  -0.43676  -0.40732  -0.37193
  Beta  occ. eigenvalues --   -0.34848  -0.32988  -0.32016  -0.31755  -0.30592
  Beta  occ. eigenvalues --   -0.24591
  Beta virt. eigenvalues --    0.03405   0.04516   0.04779   0.04967   0.05337
  Beta virt. eigenvalues --    0.05751   0.06859   0.07068   0.07573   0.08424
  Beta virt. eigenvalues --    0.08685   0.09274   0.10658   0.11473   0.11843

 Mulliken charges and spin densities:
               1          2
     1  N   -4.271099   0.046901
     2  H    0.898131  -0.003363
     3  C    2.760070   1.105030
     4  H    3.777511  -0.527936
     5  C   -4.718588  -0.199408
     6  C    4.697972  -0.241320
     7  H    1.594295   0.003502
     8  H    1.444799   0.006590
     9  S   -0.787905   0.062477
    10  O   -3.468113   0.055638
    11  H    0.906751  -0.004595
    12  N   -3.430329  -0.000707
    13  H    0.746404  -0.000554
    14  H    0.771021   0.000928
    15  C    1.923597  -0.017839
    16  H    1.874609  -0.000034
    17  O   -2.921336   0.061040
    18  O   -1.602902   0.611500
    19  O   -1.582806   0.033402
    20  C   -2.886224   0.006137
    21  H    1.259035  -0.004055
    22  H    1.346488   0.000544
    23  H    1.668619   0.006121
 Sum of Mulliken charges =   0.00000   1.00000

 Dipole moment (field-independent basis, Debye):
    X=              0.0198    Y=              1.8483    Z=             -1.0664  Tot=              2.1340
                          Isotropic Fermi Contact Couplings
        Atom                 a.u.       MegaHertz       Gauss      10(-4) cm-1
     1  N(14)             -0.00163      -0.52824      -0.18849      -0.17620
     2  H(1)               0.00065       2.90258       1.03571       0.96820
     3  C(13)              0.12806     143.96224      51.36931      48.02064
     4  H(1)              -0.05447    -243.46077     -86.87286     -81.20977
     5  C(13)             -0.01602     -18.01054      -6.42661      -6.00767
     6  C(13)             -0.01766     -19.85555      -7.08495      -6.62310
     7  H(1)               0.00211       9.43620       3.36707       3.14758
     8  H(1)               0.00148       6.62702       2.36469       2.21054

 1\1\GINC-SE219\SP\UHF\Aug-CC-pVDZ\C5H11N2O4S1(2)\OHZDE\09-Apr-2025\0\\
 #t hf aug-cc-pvdz iop(5/13=1,5/36=2,99/5=2) pseudo=read geom=check gue
 ss=(read,tcheck) scf=(maxcycle=1)\\title\\0,2\N,0,0.438813,-0.848048,1
 .337963\H,0,1.113459,-0.64186,2.069599\C,0,0.372635,0.127123,0.322777\
 H,0,-0.794334,0.76909,0.361163\C,0,0.375199,-0.371524,-1.107207\C,0,1.
 337848,1.245191,0.664944\H,0,-0.404013,-1.113195,-1.250498\H,0,0.1842,
 0.450517,-1.793311\S,0,1.992099,-1.06268,-1.613448\O,0,2.10946,1.13588
 4,1.598689\H,0,1.937956,-2.155418,-0.833491\N,0,1.261343,2.336915,-0.1

 Normal termination of Gaussian 16 at Wed Apr  9 01:09:02 2025.
