 Gaussian 16, Revision C.01,

 ----------------------------------------------------------------------
 #t hf aug-cc-pvdz symm=none int=(grid=ultrafine) guess=(read,tcheck) s
 table=(opt,rrhf)
 ----------------------------------------------------------------------
 -----
 title
 -----
 Symbolic Z-matrix:
 Charge =  0 Multiplicity = 1

 SCF Done:  E(RHF) =  -997.665339196     A.U. after   18 cycles
 Normal termination of Gaussian 16 at Wed Apr  9 02:25:49 2025.
 Gaussian 16:  ES64L-G16RevC.01  3-Jul-2019

 ----------------------------------------------------------------------
 #t hf aug-cc-pvdz iop(5/13=1,5/36=2,99/5=2) pseudo=read geom=check gue
 ss=(read,tcheck) scf=(maxcycle=1)
 ----------------------------------------------------------------------
 -----
 title
 -----
 Structure from the checkpoint file:  "BH10_83_forward_mol1.chk"
 Charge =  0 Multiplicity = 1

                         Standard orientation:
 ---------------------------------------------------------------------
 Center     Atomic      Atomic             Coordinates (Angstroms)
 Number     Number       Type             X           Y           Z
 ---------------------------------------------------------------------
      1          6           0        0.084594   -0.970723   -0.893587
      2          6           0        2.303971   -0.720893    0.029777
      3          6           0       -0.441546   -0.028215   -0.002747
      4          1           0       -0.179796   -0.175677    1.035946
      5          6           0        2.204227    0.684789    0.228658
      6          6           0        1.369259   -1.448344   -0.699881
      7          6           0        3.622070    1.198035    0.324280
      8          1           0        1.730727   -2.312127   -1.250556
      9          1           0       -0.459692   -1.244203   -1.789423
     10          6           0       -1.697154    0.722911   -0.234978
     11          1           0       -1.704555    1.565148    0.466857
     12          6           0       -1.850546    1.254131   -1.662677
     13          1           0       -0.980436    1.849935   -1.949491
     14          1           0       -1.944479    0.447757   -2.392098
     15          1           0       -2.736521    1.884802   -1.755619
     16          7           0        1.127607    1.387507    0.236734
     17          6           0        1.185890    2.825834    0.075623
     18          1           0        1.675835    3.131478   -0.856060
     19          1           0        0.171785    3.226554    0.072995
     20          1           0        1.719496    3.290770    0.911979
     21          8           0        4.451628    0.045925    0.371258
     22          1           0        3.783986    1.790269    1.227784
     23          1           0        3.887322    1.804452   -0.546919
     24          6           0        3.714408   -1.091687    0.119139
     25          8           0        4.240958   -2.159752   -0.001448
     26         14           0       -3.203533   -0.329253    0.321684
     27          6           0       -2.877020   -0.983927    2.047759
     28          6           0       -4.701646    0.801371    0.335248
     29          6           0       -3.482803   -1.748663   -0.869021
     30          1           0       -3.755340   -1.506404    2.435174
     31          1           0       -2.043638   -1.690056    2.057574
     32          1           0       -2.640903   -0.176532    2.745822
     33          1           0       -4.549656    1.658160    0.996555
     34          1           0       -4.930959    1.183965   -0.661824
     35          1           0       -5.584623    0.263699    0.690350
     36          1           0       -3.670454   -1.395954   -1.885835
     37          1           0       -2.622636   -2.420514   -0.896607
     38          1           0       -4.352165   -2.335629   -0.561353
 ---------------------------------------------------------------------

 SCF Done:  E(RHF) =  -1001.21236615     A.U. after    2 cycles

 The electronic state is 1-A.
 Alpha  occ. eigenvalues --  -76.19776 -21.07449 -21.02197 -15.72842 -11.52761
 Alpha  occ. eigenvalues --  -11.52382 -11.51084 -11.47586 -11.44917 -11.43316
 Alpha  occ. eigenvalues --  -11.40816 -11.40436 -11.40070 -11.37591 -11.36065
 Alpha  occ. eigenvalues --  -11.35945 -11.35508  -5.54051  -2.18404  -2.18014
 Alpha  occ. eigenvalues --   -2.17877  -1.83540  -1.64903  -1.42302  -1.28188
 Alpha  occ. eigenvalues --   -1.20977  -1.11357  -1.07862  -1.05014  -1.02239
 Alpha  occ. eigenvalues --   -1.02095  -1.00650  -0.96944  -0.88650  -0.81363
 Alpha  occ. eigenvalues --   -0.77284  -0.70310  -0.67985  -0.67548  -0.67021
 Alpha  occ. eigenvalues --   -0.65963  -0.60936  -0.60801  -0.60341  -0.59335
 Alpha  occ. eigenvalues --   -0.57895  -0.57618  -0.56751  -0.56208  -0.55110
 Alpha  occ. eigenvalues --   -0.55062  -0.54777  -0.53932  -0.52717  -0.51705
 Alpha  occ. eigenvalues --   -0.48834  -0.48692  -0.47004  -0.45812  -0.44296
 Alpha  occ. eigenvalues --   -0.41630  -0.40058  -0.39974  -0.36568  -0.33505
 Alpha  occ. eigenvalues --   -0.30424  -0.27171  -0.25853
 Alpha virt. eigenvalues --    0.02691   0.03866   0.04220   0.04408   0.04660
 Alpha virt. eigenvalues --    0.04829   0.05211   0.05800   0.05908   0.06026
 Alpha virt. eigenvalues --    0.06807   0.07115   0.07152   0.07592   0.07893

 Mulliken charges:
               1
     1  C   -2.263674
     2  C    0.796415
     3  C   -1.453096
     4  H    1.944027
     5  C    4.513524
     6  C   -0.386941
     7  C   -2.559442
     8  H    1.646432
     9  H    2.093712
    10  C   -3.242771
    11  H    1.228323
    12  C   -5.763248
    13  H    1.527733
    14  H    1.447320
    15  H    1.287979
    16  N   -3.815138
    17  C   -4.428171
    18  H    1.557805
    19  H    1.734414
    20  H    1.685006
    21  O   -3.411671
    22  H    1.223845
    23  H    1.261516
    24  C    3.883976
    25  O   -3.757309
    26  Si  13.612515
    27  C   -6.537857
    28  C   -6.351777
    29  C   -6.522124
    30  H    1.013175
    31  H    1.104140
    32  H    0.886599
    33  H    0.906701
    34  H    1.040651
    35  H    1.124736
    36  H    0.972537
    37  H    1.013252
    38  H    0.986885
 Sum of Mulliken charges =  -0.00000

 Dipole moment (field-independent basis, Debye):
    X=             -4.7863    Y=              3.6024    Z=             -0.2382  Tot=              5.9952

 Test job not archived.
 1\1\GINC-SE435\SP\RHF\Aug-CC-pVDZ\C13H21N1O2Si1\OHZDE\09-Apr-2025\0\\#
 t hf aug-cc-pvdz iop(5/13=1,5/36=2,99/5=2) pseudo=read geom=check gues
 s=(read,tcheck) scf=(maxcycle=1)\\title\\0,1\C,0,0.084594,-0.970723,-0
 .893587\C,0,2.303971,-0.720893,0.029777\C,0,-0.441546,-0.028215,-0.002
 747\H,0,-0.179796,-0.175677,1.035946\C,0,2.204227,0.684789,0.228658\C,
 0,1.369259,-1.448344,-0.699881\C,0,3.62207,1.198035,0.32428\H,0,1.7307
 27,-2.312127,-1.250556\H,0,-0.459692,-1.244203,-1.789423\C,0,-1.697154
 ,0.722911,-0.234978\H,0,-1.704555,1.565148,0.466857\C,0,-1.850546,1.25

 Normal termination of Gaussian 16 at Wed Apr  9 02:26:55 2025.
