 Gaussian 16, Revision C.01,

 ----------------------------------------------------------------------
 #t hf aug-cc-pvdz symm=none int=(grid=ultrafine) guess=(read,tcheck) s
 table=(opt,rrhf)
 ----------------------------------------------------------------------
 -----
 title
 -----
 Symbolic Z-matrix:
 Charge =  0 Multiplicity = 1

 SCF Done:  E(RHF) =  -743.238097176     A.U. after   14 cycles
 Normal termination of Gaussian 16 at Wed Apr  9 02:06:15 2025.
 Gaussian 16:  ES64L-G16RevC.01  3-Jul-2019

 ----------------------------------------------------------------------
 #t hf aug-cc-pvdz iop(5/13=1,5/36=2,99/5=2) pseudo=read geom=check gue
 ss=(read,tcheck) scf=(maxcycle=1)
 ----------------------------------------------------------------------
 -----
 title
 -----
 Structure from the checkpoint file:  "BH10_418_forward_mol2.chk"
 Charge =  0 Multiplicity = 1

                         Standard orientation:
 ---------------------------------------------------------------------
 Center     Atomic      Atomic             Coordinates (Angstroms)
 Number     Number       Type             X           Y           Z
 ---------------------------------------------------------------------
      1          6           0        0.617010    1.558571    0.963941
      2          6           0       -0.639698    2.054220    0.225935
      3          6           0       -1.454502    0.926887   -0.372678
      4          6           0       -1.152686   -0.426735    0.199021
      5          6           0        0.335546   -0.797355   -0.009672
      6          6           0        1.240841    0.384531    0.247618
      7          6           0       -2.336978    1.065373   -1.348098
      8          9           0       -1.925919   -1.403571   -0.319750
      9          9           0        0.641206   -1.846903    0.800573
     10          6           0        2.473727    0.341662   -0.165339
     11          6           0        3.700828    0.297622   -0.579986
     12          9           0        0.469654   -1.247309   -1.285631
     13          9           0       -1.388635   -0.413681    1.550317
     14          1           0        3.969034    0.642037   -1.572503
     15          1           0        4.490174   -0.094474    0.051610
     16          1           0       -2.881869    0.216965   -1.739143
     17          1           0       -2.536262    2.037694   -1.782994
     18          1           0       -1.260789    2.625244    0.920521
     19          1           0       -0.350386    2.732575   -0.578729
     20          1           0        1.346844    2.361857    1.048916
     21          1           0        0.351960    1.252608    1.978278
 ---------------------------------------------------------------------

 SCF Done:  E(RHF) =  -746.234197463     A.U. after    2 cycles

 The electronic state is 1-A.
 Alpha  occ. eigenvalues --  -29.29008 -29.28644 -29.28449 -29.28211 -11.62678
 Alpha  occ. eigenvalues --  -11.57859 -11.49040 -11.45933 -11.44906 -11.43942
 Alpha  occ. eigenvalues --  -11.42370 -11.41106 -11.39109  -1.47398  -1.28507
 Alpha  occ. eigenvalues --   -1.25314  -1.14277  -1.10117  -1.01702  -0.92553
 Alpha  occ. eigenvalues --   -0.88061  -0.86803  -0.78786  -0.76226  -0.74052
 Alpha  occ. eigenvalues --   -0.68267  -0.64620  -0.62669  -0.61930  -0.61681
 Alpha  occ. eigenvalues --   -0.57776  -0.53376  -0.52895  -0.48626  -0.45721
 Alpha  occ. eigenvalues --   -0.43973  -0.41146  -0.39363  -0.38599  -0.37202
 Alpha  occ. eigenvalues --   -0.36300  -0.34554  -0.31549  -0.30423  -0.26787
 Alpha  occ. eigenvalues --   -0.25409  -0.24660  -0.21166  -0.19950
 Alpha virt. eigenvalues --    0.03435   0.04638   0.05025   0.05458   0.05677
 Alpha virt. eigenvalues --    0.05914   0.06888   0.07469   0.09355   0.10106
 Alpha virt. eigenvalues --    0.10374   0.10924   0.11185   0.12052   0.12711

 Mulliken charges:
               1
     1  C   -4.097291
     2  C   -4.223068
     3  C    1.709914
     4  C    1.869494
     5  C    0.029231
     6  C    1.669599
     7  C   -4.909682
     8  F    0.424751
     9  F    0.006916
    10  C    2.351254
    11  C   -5.464480
    12  F    0.067317
    13  F    0.010210
    14  H    1.263843
    15  H    1.258269
    16  H    1.627779
    17  H    1.581787
    18  H    1.209242
    19  H    1.298844
    20  H    1.254315
    21  H    1.061755
 Sum of Mulliken charges =   0.00000

 Dipole moment (field-independent basis, Debye):
    X=             -0.2759    Y=             -1.9204    Z=              0.4072  Tot=              1.9824

 Test job not archived.
 1\1\GINC-SE461\SP\RHF\Aug-CC-pVDZ\C9H8F4\OHZDE\09-Apr-2025\0\\#t hf au
 g-cc-pvdz iop(5/13=1,5/36=2,99/5=2) pseudo=read geom=check guess=(read
 ,tcheck) scf=(maxcycle=1)\\title\\0,1\C,0,0.61701,1.558571,0.963941\C,
 0,-0.639698,2.05422,0.225935\C,0,-1.454502,0.926887,-0.372678\C,0,-1.1
 52686,-0.426735,0.199021\C,0,0.335546,-0.797355,-0.009672\C,0,1.240841
 ,0.384531,0.247618\C,0,-2.336978,1.065373,-1.348098\F,0,-1.925919,-1.4
 03571,-0.31975\F,0,0.641206,-1.846903,0.800573\C,0,2.473727,0.341662,-
 0.165339\C,0,3.700828,0.297622,-0.579986\F,0,0.469654,-1.247309,-1.285

 Normal termination of Gaussian 16 at Wed Apr  9 02:06:30 2025.
