 Gaussian 16, Revision C.01,

 ----------------------------------------------------------------------
 #t hf aug-cc-pvdz symm=none int=(grid=ultrafine) guess=(read,tcheck) s
 table=opt
 ----------------------------------------------------------------------
 -----
 title
 -----
 Symbolic Z-matrix:
 Charge =  0 Multiplicity = 2

 SCF Done:  E(UHF) =  -1426.20369263     A.U. after   22 cycles

 1\1\GINC-SE015\Stability\UHF\Aug-CC-pVDZ\C6H11S3\OHZDE\09-Apr-2025\0\\
 #t hf aug-cc-pvdz symm=none int=(grid=ultrafine) guess=(read,tcheck) s
 table=opt\\title\\0,2\C,0,0.395303,1.855468,0.619333\H,0,0.00017,2.861
 36,0.451814\C,0,2.446586,0.473977,-0.168162\H,0,3.309131,0.605312,-0.8
 28322\H,0,0.917218,1.896365,1.58256\H,0,2.816512,0.594008,0.852639\C,0
 ,1.401957,1.543875,-0.489656\H,0,1.945262,2.472784,-0.688187\H,0,0.877
 53,1.294153,-1.414968\C,0,-0.827275,0.949479,0.783674\C,0,-1.506426,-0
 .854884,-1.149339\C,0,-1.413316,-1.664672,0.128996\H,0,-2.315583,-1.21

 Normal termination of Gaussian 16 at Wed Apr  9 01:01:40 2025.
 Gaussian 16:  ES64L-G16RevC.01  3-Jul-2019

 ----------------------------------------------------------------------
 #t hf aug-cc-pvdz iop(5/13=1,5/36=2,99/5=2) pseudo=read geom=check gue
 ss=(read,tcheck) scf=(maxcycle=1)
 ----------------------------------------------------------------------
 -----
 title
 -----
 Structure from the checkpoint file:  "BH10_159_forward_mol2.chk"
 Charge =  0 Multiplicity = 2

                         Standard orientation:
 ---------------------------------------------------------------------
 Center     Atomic      Atomic             Coordinates (Angstroms)
 Number     Number       Type             X           Y           Z
 ---------------------------------------------------------------------
      1          6           0        0.395303    1.855468    0.619333
      2          1           0        0.000171    2.861360    0.451814
      3          6           0        2.446586    0.473977   -0.168162
      4          1           0        3.309131    0.605311   -0.828322
      5          1           0        0.917219    1.896365    1.582560
      6          1           0        2.816512    0.594007    0.852639
      7          6           0        1.401957    1.543875   -0.489656
      8          1           0        1.945263    2.472784   -0.688187
      9          1           0        0.877530    1.294153   -1.414968
     10          6           0       -0.827275    0.949479    0.783674
     11          6           0       -1.506426   -0.854884   -1.149339
     12          6           0       -1.413316   -1.664672    0.128996
     13          1           0       -2.315583   -1.214492   -1.785894
     14          1           0       -0.566582   -0.892910   -1.696079
     15          1           0       -2.396681   -1.832390    0.566339
     16          1           0       -0.922723   -2.624138   -0.041609
     17         16           0       -1.911457    0.856030   -0.690396
     18         16           0       -0.377446   -0.751122    1.312576
     19         16           0        1.964230   -1.251708   -0.429645
     20          1           0       -1.450481    1.369299    1.572081
 ---------------------------------------------------------------------

 SCF Done:  E(UHF) =  -1428.05302105     A.U. after    2 cycles

 The electronic state is 2-A.
 Alpha  occ. eigenvalues --  -75.68608 -75.68158 -75.68012 -13.15666 -13.14523
 Alpha  occ. eigenvalues --  -13.13556 -13.12148 -13.10449 -13.09714 -13.06610
 Alpha  occ. eigenvalues --  -13.04965 -13.03184 -11.47380 -11.44193 -11.43652
 Alpha  occ. eigenvalues --  -11.40540 -11.39629 -11.36954  -8.02829  -8.02107
 Alpha  occ. eigenvalues --   -8.01791  -1.35835  -1.24449  -1.15331  -1.11366
 Alpha  occ. eigenvalues --   -1.06098  -0.96170  -0.86282  -0.85596  -0.79120
 Alpha  occ. eigenvalues --   -0.66508  -0.65524  -0.63246  -0.63009  -0.58836
 Alpha  occ. eigenvalues --   -0.55854  -0.53924  -0.49773  -0.48113  -0.43823
 Alpha  occ. eigenvalues --   -0.42281  -0.41936  -0.38575  -0.33742  -0.31568
 Alpha  occ. eigenvalues --   -0.23340  -0.22820  -0.17555
 Alpha virt. eigenvalues --    0.03164   0.03575   0.04421   0.05536   0.05613
 Alpha virt. eigenvalues --    0.05862   0.06520   0.06840   0.07584   0.08256
 Alpha virt. eigenvalues --    0.08959   0.09530   0.09770   0.10878   0.11384

  Beta  occ. eigenvalues --  -75.68442 -75.68012 -75.67161 -13.15502 -13.13684
  Beta  occ. eigenvalues --  -13.12147 -13.11717 -13.10048 -13.09414 -13.06064
  Beta  occ. eigenvalues --  -13.04286 -12.99742 -11.47389 -11.44207 -11.43679
  Beta  occ. eigenvalues --  -11.40596 -11.39641 -11.36964  -8.02638  -8.02089
  Beta  occ. eigenvalues --   -8.00668  -1.35603  -1.23588  -1.13678  -1.10910
  Beta  occ. eigenvalues --   -1.03917  -0.93531  -0.85513  -0.84220  -0.78720
  Beta  occ. eigenvalues --   -0.66413  -0.65347  -0.62942  -0.62707  -0.58588
  Beta  occ. eigenvalues --   -0.55485  -0.53810  -0.49687  -0.47567  -0.43658
  Beta  occ. eigenvalues --   -0.42223  -0.41834  -0.37991  -0.32711  -0.26106
  Beta  occ. eigenvalues --   -0.23056  -0.21369
  Beta virt. eigenvalues --    0.03128   0.03534   0.04210   0.05481   0.05606
  Beta virt. eigenvalues --    0.05768   0.05880   0.06846   0.07378   0.07720
  Beta virt. eigenvalues --    0.08946   0.09174   0.09594   0.09892   0.11392

 Mulliken charges and spin densities:
               1          2
     1  C   -2.723743   0.023914
     2  H    1.257278   0.001827
     3  C   -3.744949  -0.156144
     4  H    1.461087  -0.002749
     5  H    1.376591  -0.003839
     6  H    1.558040  -0.003024
     7  C   -2.618592   0.025888
     8  H    1.314173   0.000322
     9  H    1.757724  -0.008546
    10  C   -1.780035  -0.001178
    11  C   -3.296487   0.002657
    12  C   -3.551079  -0.011107
    13  H    1.389407  -0.000073
    14  H    1.554849  -0.028590
    15  H    1.492842  -0.000902
    16  H    1.458996   0.004165
    17  S    0.575756  -0.000405
    18  S    0.560425   0.063405
    19  S    0.290499   1.099712
    20  H    1.667218  -0.005335
 Sum of Mulliken charges =  -0.00000   1.00000

 Dipole moment (field-independent basis, Debye):
    X=             -1.2672    Y=             -0.0059    Z=              0.7359  Tot=              1.4654
                          Isotropic Fermi Contact Couplings
        Atom                 a.u.       MegaHertz       Gauss      10(-4) cm-1
     1  C(13)              0.00599       6.73459       2.40307       2.24642
     2  H(1)               0.00016       0.70254       0.25068       0.23434
     3  C(13)             -0.01409     -15.84239      -5.65296      -5.28445
     4  H(1)               0.01079      48.25173      17.21742      16.09504
     5  H(1)               0.00014       0.62465       0.22289       0.20836
     6  H(1)               0.00211       9.41843       3.36073       3.14165
     7  C(13)              0.00455       5.11091       1.82370       1.70482
     8  H(1)              -0.00041      -1.82838      -0.65241      -0.60988

 Normal termination of Gaussian 16 at Wed Apr  9 01:01:54 2025.
