 Gaussian 16, Revision C.01,

 ----------------------------------------------------------------------
 #t hf aug-cc-pvdz symm=none int=(grid=ultrafine) guess=(read,tcheck) s
 table=(opt,rrhf)
 ----------------------------------------------------------------------
 -----
 title
 -----
 Symbolic Z-matrix:
 Charge =  0 Multiplicity = 1

 SCF Done:  E(RHF) =  -728.693257690     A.U. after   15 cycles

 1\1\GINC-SE131\Stability\RHF\Aug-CC-pVDZ\C7H7Cl1\OHZDE\09-Apr-2025\0\\
 #t hf aug-cc-pvdz symm=none int=(grid=ultrafine) guess=(read,tcheck) s
 table=(opt,rrhf)\\title\\0,1\C,0,1.456654,0.000023,0.875219\C,0,0.0252
 96,0.00001,0.447389\C,0,-0.649212,1.200084,0.244315\C,0,-0.649198,-1.2
 00075,0.244332\H,0,-0.128063,2.138654,0.396629\C,0,-1.977059,1.201482,
 -0.155434\C,0,-1.977044,-1.201494,-0.155417\C,0,-2.643266,-0.000012,-0
 .356173\H,0,-0.128037,-2.138636,0.39666\H,0,-2.493362,2.14121,-0.30928
 6\H,0,-2.493336,-2.141231,-0.309255\H,0,-3.680858,-0.00002,-0.667308\H

 Normal termination of Gaussian 16 at Wed Apr  9 00:57:14 2025.
 Gaussian 16:  ES64L-G16RevC.01  3-Jul-2019

 ----------------------------------------------------------------------
 #t hf aug-cc-pvdz iop(5/13=1,5/36=2,99/5=2) pseudo=read geom=check gue
 ss=(read,tcheck) scf=(maxcycle=1)
 ----------------------------------------------------------------------
 -----
 title
 -----
 Structure from the checkpoint file:  "BH10_110_forward_mol2.chk"
 Charge =  0 Multiplicity = 1

                         Standard orientation:
 ---------------------------------------------------------------------
 Center     Atomic      Atomic             Coordinates (Angstroms)
 Number     Number       Type             X           Y           Z
 ---------------------------------------------------------------------
      1          6           0        1.456654    0.000023    0.875219
      2          6           0        0.025296    0.000010    0.447389
      3          6           0       -0.649212    1.200084    0.244315
      4          6           0       -0.649198   -1.200075    0.244332
      5          1           0       -0.128063    2.138654    0.396629
      6          6           0       -1.977059    1.201482   -0.155434
      7          6           0       -1.977044   -1.201494   -0.155417
      8          6           0       -2.643266   -0.000012   -0.356173
      9          1           0       -0.128037   -2.138636    0.396660
     10          1           0       -2.493362    2.141210   -0.309286
     11          1           0       -2.493336   -2.141231   -0.309255
     12          1           0       -3.680858   -0.000020   -0.667308
     13          1           0        1.706994   -0.887232    1.450579
     14          1           0        1.706991    0.887305    1.450537
     15         17           0        2.587802   -0.000009   -0.545526
 ---------------------------------------------------------------------

 SCF Done:  E(RHF) =  -730.249483900     A.U. after    2 cycles

 The electronic state is 1-A.
 Alpha  occ. eigenvalues --  -99.87400 -11.52361 -11.45589 -11.43632 -11.43362
 Alpha  occ. eigenvalues --  -11.41341 -11.40975 -11.36738 -10.44650  -9.64608
 Alpha  occ. eigenvalues --   -9.63882  -9.63800  -1.38360  -1.29694  -1.13248
 Alpha  occ. eigenvalues --   -1.10083  -0.98889  -0.87364  -0.84336  -0.71911
 Alpha  occ. eigenvalues --   -0.66221  -0.65664  -0.61302  -0.58783  -0.58276
 Alpha  occ. eigenvalues --   -0.55318  -0.50140  -0.49506  -0.47505  -0.44753
 Alpha  occ. eigenvalues --   -0.43768  -0.33741  -0.33347
 Alpha virt. eigenvalues --    0.03130   0.04681   0.04915   0.05475   0.06289
 Alpha virt. eigenvalues --    0.07181   0.07511   0.08095   0.09858   0.10194
 Alpha virt. eigenvalues --    0.10992   0.12322   0.12454   0.13688   0.13819

 Mulliken charges:
               1
     1  C   -5.180544
     2  C    4.764434
     3  C   -2.436304
     4  C   -2.436276
     5  H    1.728275
     6  C   -1.177815
     7  C   -1.177716
     8  C   -3.083105
     9  H    1.728275
    10  H    1.484566
    11  H    1.484567
    12  H    1.521678
    13  H    1.305513
    14  H    1.305528
    15  Cl   0.168924
 Sum of Mulliken charges =  -0.00000

 Dipole moment (field-independent basis, Debye):
    X=             -2.1156    Y=              0.0000    Z=              1.4638  Tot=              2.5726

 Test job not archived.
 1\1\GINC-SE131\SP\RHF\Aug-CC-pVDZ\C7H7Cl1\OHZDE\09-Apr-2025\0\\#t hf a
 ug-cc-pvdz iop(5/13=1,5/36=2,99/5=2) pseudo=read geom=check guess=(rea
 d,tcheck) scf=(maxcycle=1)\\title\\0,1\C,0,1.456654,0.000023,0.875219\
 C,0,0.025296,0.00001,0.447389\C,0,-0.649212,1.200084,0.244315\C,0,-0.6
 49198,-1.200075,0.244332\H,0,-0.128063,2.138654,0.396629\C,0,-1.977059
 ,1.201482,-0.155434\C,0,-1.977044,-1.201494,-0.155417\C,0,-2.643266,-0
 .000012,-0.356173\H,0,-0.128037,-2.138636,0.39666\H,0,-2.493362,2.1412
 1,-0.309286\H,0,-2.493336,-2.141231,-0.309255\H,0,-3.680858,-0.00002,-

 Normal termination of Gaussian 16 at Wed Apr  9 00:57:20 2025.
