 Gaussian 16, Revision C.01,

 ----------------------------------------------------------------------
 #t hf aug-cc-pvdz symm=none int=(grid=ultrafine) guess=(read,tcheck) s
 table=(opt,rrhf)
 ----------------------------------------------------------------------
 -----
 title
 -----
 Symbolic Z-matrix:
 Charge =  0 Multiplicity = 1

 SCF Done:  E(RHF) =  -1375.35010810     A.U. after   18 cycles
 Normal termination of Gaussian 16 at Wed Apr  9 03:17:38 2025.
 Gaussian 16:  ES64L-G16RevC.01  3-Jul-2019

 ----------------------------------------------------------------------
 #t hf aug-cc-pvdz iop(5/13=1,5/36=2,99/5=2) pseudo=read geom=check gue
 ss=(read,tcheck) scf=(maxcycle=1)
 ----------------------------------------------------------------------
 -----
 title
 -----
 Structure from the checkpoint file:  "BH10_396_forward_mol1.chk"
 Charge =  0 Multiplicity = 1

                         Standard orientation:
 ---------------------------------------------------------------------
 Center     Atomic      Atomic             Coordinates (Angstroms)
 Number     Number       Type             X           Y           Z
 ---------------------------------------------------------------------
      1          6           0       -0.586434   -2.193783    1.322254
      2          1           0       -0.713328   -3.207169    1.703485
      3          1           0       -0.819618   -1.509122    2.148833
      4          6           0       -1.585645   -1.923786    0.190440
      5          6           0        0.136173   -0.499745   -0.893441
      6          1           0        0.491848   -1.162863   -1.688549
      7          1           0        0.271926    0.509542   -1.266942
      8          6           0        1.018939   -0.706077    0.354507
      9          1           0        0.729328    0.043276    1.095739
     10          7           0        0.803960   -2.011217    0.971077
     11          6           0       -2.342004    0.117391   -0.905984
     12          6           0       -2.779563   -2.634226    0.168165
     13          1           0       -3.092776   -3.057436   -0.767832
     14          1           0       -3.012042   -3.266574    1.023764
     15          6           0       -3.670704   -0.017467   -0.494095
     16          1           0       -4.138479    0.879755   -0.094218
     17          6           0       -4.367452   -1.216191   -0.407085
     18          6           0       -1.318742   -0.814544   -0.629934
     19          6           0       -5.634142   -1.310435    0.399129
     20          1           0       -5.822995   -2.337623    0.715852
     21          1           0       -5.586275   -0.686130    1.292481
     22          1           0       -6.497041   -0.992689   -0.195395
     23          1           0       -4.360809   -1.827493   -1.293554
     24          6           0        2.472389   -0.490650    0.012170
     25          6           0        1.378998   -3.096623    0.191673
     26          1           0        1.009381   -3.113831   -0.846239
     27          1           0        1.080377   -4.042128    0.648432
     28          6           0        2.894121   -2.968847    0.206224
     29          1           0        3.337319   -3.670623   -0.505526
     30          6           0        3.352386   -1.564798   -0.101840
     31          1           0        3.258786   -3.245488    1.200415
     32          6           0        4.674966   -1.318725   -0.467169
     33          1           0        5.360610   -2.154793   -0.559234
     34          6           0        2.928702    0.803906   -0.226625
     35          1           0        2.240580    1.635628   -0.122796
     36          6           0        5.123690   -0.031591   -0.709720
     37          1           0        6.155482    0.139006   -0.992985
     38          6           0        4.245128    1.038235   -0.584218
     39          1           0        4.586992    2.050661   -0.762998
     40         16           0       -1.952214    1.763244   -1.509188
     41          6           0       -0.935175    2.473189   -0.226712
     42          6           0       -1.058587    2.114057    1.111496
     43          6           0       -0.261686    2.723362    2.069611
     44          6           0        0.649142    3.706866    1.707200
     45          6           0        0.759506    4.076851    0.373842
     46          6           0       -0.021949    3.458919   -0.592009
     47          1           0       -1.770576    1.351279    1.400490
     48          1           0       -0.356904    2.428626    3.108009
     49          1           0        1.270026    4.179110    2.458154
     50          1           0        1.469049    4.840502    0.078266
     51          1           0        0.084509    3.731455   -1.635441
 ---------------------------------------------------------------------

 SCF Done:  E(RHF) =  -1380.40151626     A.U. after    2 cycles

 The electronic state is 1-A.
 Alpha  occ. eigenvalues --  -75.68454 -15.69874 -13.20266 -13.17321 -13.10825
 Alpha  occ. eigenvalues --  -11.52820 -11.51750 -11.51054 -11.48997 -11.47322
 Alpha  occ. eigenvalues --  -11.46912 -11.46586 -11.45290 -11.44957 -11.44151
 Alpha  occ. eigenvalues --  -11.43649 -11.42854 -11.42579 -11.41912 -11.41582
 Alpha  occ. eigenvalues --  -11.41396 -11.40549 -11.40467 -11.40249 -11.39086
 Alpha  occ. eigenvalues --  -11.38262 -11.37368 -11.36920 -11.35128  -8.02621
 Alpha  occ. eigenvalues --   -1.48955  -1.36850  -1.33516  -1.30674  -1.20379
 Alpha  occ. eigenvalues --   -1.18618  -1.16125  -1.14802  -1.10091  -1.09632
 Alpha  occ. eigenvalues --   -1.06967  -1.05179  -1.01162  -0.99446  -0.94443
 Alpha  occ. eigenvalues --   -0.90892  -0.87217  -0.86848  -0.86178  -0.84394
 Alpha  occ. eigenvalues --   -0.82446  -0.81314  -0.75443  -0.71474  -0.69896
 Alpha  occ. eigenvalues --   -0.68306  -0.66667  -0.65285  -0.64613  -0.62976
 Alpha  occ. eigenvalues --   -0.62575  -0.62060  -0.59693  -0.59361  -0.58866
 Alpha  occ. eigenvalues --   -0.57979  -0.57870  -0.56776  -0.56342  -0.55637
 Alpha  occ. eigenvalues --   -0.54974  -0.54174  -0.54006  -0.51853  -0.51545
 Alpha  occ. eigenvalues --   -0.51335  -0.49984  -0.48919  -0.47807  -0.46678
 Alpha  occ. eigenvalues --   -0.45473  -0.45170  -0.44931  -0.44050  -0.40499
 Alpha  occ. eigenvalues --   -0.40203  -0.38678  -0.37782  -0.35132  -0.33674
 Alpha  occ. eigenvalues --   -0.32294  -0.31417  -0.30513  -0.28055  -0.25940
 Alpha  occ. eigenvalues --   -0.21588
 Alpha virt. eigenvalues --    0.03612   0.04218   0.04283   0.04447   0.05108
 Alpha virt. eigenvalues --    0.05154   0.05349   0.05430   0.05684   0.05845
 Alpha virt. eigenvalues --    0.06154   0.06223   0.06708   0.06974   0.07193

 Mulliken charges:
               1
     1  C   -4.708781
     2  H    1.184171
     3  H    1.444954
     4  C    3.977541
     5  C   -6.005913
     6  H    1.225444
     7  H    2.365676
     8  C    0.811666
     9  H    1.494349
    10  N   -2.812531
    11  C    2.524876
    12  C   -7.157950
    13  H    1.291164
    14  H    1.646585
    15  C   -1.613620
    16  H    1.932408
    17  C   -2.536819
    18  C    3.539634
    19  C   -5.612286
    20  H    1.352331
    21  H    1.377019
    22  H    1.161368
    23  H    1.777572
    24  C    5.935900
    25  C   -5.829609
    26  H    1.769433
    27  H    1.388844
    28  C   -5.511122
    29  H    1.069140
    30  C    5.437065
    31  H    0.932138
    32  C   -3.505582
    33  H    1.875097
    34  C    0.329922
    35  H    2.711184
    36  C   -2.728035
    37  H    1.594441
    38  C   -4.271734
    39  H    1.628294
    40  S   -0.022164
    41  C    3.013951
    42  C   -2.762369
    43  C   -2.553357
    44  C   -2.857364
    45  C   -2.047592
    46  C   -4.013975
    47  H    2.716388
    48  H    1.703974
    49  H    1.728303
    50  H    1.723980
    51  H    1.885990
 Sum of Mulliken charges =  -0.00000

 Dipole moment (field-independent basis, Debye):
    X=             -1.1085    Y=             -0.9878    Z=              0.0441  Tot=              1.4854

 Test job not archived.
 1\1\GINC-SE070\SP\RHF\Aug-CC-pVDZ\C24H25N1S1\OHZDE\09-Apr-2025\0\\#t h
 f aug-cc-pvdz iop(5/13=1,5/36=2,99/5=2) pseudo=read geom=check guess=(
 read,tcheck) scf=(maxcycle=1)\\title\\0,1\C,0,-0.586434,-2.193783,1.32
 2254\H,0,-0.713328,-3.207169,1.703485\H,0,-0.819618,-1.509122,2.148833
 \C,0,-1.585645,-1.923786,0.19044\C,0,0.136173,-0.499745,-0.893441\H,0,
 0.491848,-1.162863,-1.688549\H,0,0.271926,0.509542,-1.266942\C,0,1.018
 939,-0.706077,0.354507\H,0,0.729328,0.043276,1.095739\N,0,0.80396,-2.0
 11217,0.971077\C,0,-2.342004,0.117391,-0.905984\C,0,-2.779563,-2.63422

 Normal termination of Gaussian 16 at Wed Apr  9 03:21:09 2025.
