 Gaussian 16, Revision C.01,

 ----------------------------------------------------------------------
 #t hf aug-cc-pvdz symm=none int=(grid=ultrafine) guess=(read,tcheck) s
 table=(opt,rrhf)
 ----------------------------------------------------------------------
 -----
 title
 -----
 Symbolic Z-matrix:
 Charge =  0 Multiplicity = 1

 SCF Done:  E(RHF) =  -893.772288674     A.U. after   16 cycles
 Normal termination of Gaussian 16 at Wed Apr  9 02:13:31 2025.
 Gaussian 16:  ES64L-G16RevC.01  3-Jul-2019

 ----------------------------------------------------------------------
 #t hf aug-cc-pvdz iop(5/13=1,5/36=2,99/5=2) pseudo=read geom=check gue
 ss=(read,tcheck) scf=(maxcycle=1)
 ----------------------------------------------------------------------
 -----
 title
 -----
 Structure from the checkpoint file:  "BH10_90_forward_mol1.chk"
 Charge =  0 Multiplicity = 1

                         Standard orientation:
 ---------------------------------------------------------------------
 Center     Atomic      Atomic             Coordinates (Angstroms)
 Number     Number       Type             X           Y           Z
 ---------------------------------------------------------------------
      1          6           0        0.773503   -1.008950    0.923619
      2          6           0        0.349631   -0.070851    1.850594
      3          6           0        1.176430    1.282179    0.161913
      4          6           0        0.591144    1.236821    1.423440
      5          1           0        1.592003    2.177306   -0.283062
      6          1           0        0.273343    2.115534    1.968823
      7          1           0       -0.198625   -0.323759    2.748024
      8          1           0        0.767226   -2.081447    1.060637
      9         16           0        2.093966   -0.253086   -0.019862
     10          8           0        2.183341   -0.730831   -1.431658
     11          6           0       -2.434213    0.652327    0.089191
     12          6           0       -0.630172   -0.668305   -0.830129
     13          6           0       -0.390597    0.651203   -1.189534
     14          1           0       -2.285504    0.908100    1.142329
     15          1           0       -0.176230   -1.517337   -1.320486
     16          1           0        0.247811    0.885409   -2.031594
     17          1           0       -3.505209    0.699744   -0.105654
     18          6           0       -1.580849    1.528536   -0.836443
     19          1           0       -1.298892    2.480550   -0.384988
     20          1           0       -2.124866    1.763467   -1.755523
     21          6           0       -1.921325   -0.768113   -0.118511
     22          8           0       -2.482821   -1.777579    0.235963
 ---------------------------------------------------------------------

 SCF Done:  E(RHF) =  -896.363352479     A.U. after    2 cycles

 The electronic state is 1-A.
 Alpha  occ. eigenvalues --  -75.80632 -21.03805 -21.02029 -13.37333 -13.27641
 Alpha  occ. eigenvalues --  -13.23579 -11.52097 -11.50735 -11.49525 -11.47024
 Alpha  occ. eigenvalues --  -11.45630 -11.44303 -11.40783 -11.40101 -11.37597
 Alpha  occ. eigenvalues --   -8.15019  -1.71106  -1.69316  -1.38764  -1.30038
 Alpha  occ. eigenvalues --   -1.08917  -1.07580  -1.06207  -0.99404  -0.84533
 Alpha  occ. eigenvalues --   -0.83558  -0.79667  -0.75363  -0.74262  -0.66870
 Alpha  occ. eigenvalues --   -0.64934  -0.58648  -0.57840  -0.55115  -0.54894
 Alpha  occ. eigenvalues --   -0.53893  -0.52407  -0.51578  -0.49489  -0.47520
 Alpha  occ. eigenvalues --   -0.46126  -0.43842  -0.39193  -0.35757  -0.34427
 Alpha  occ. eigenvalues --   -0.31889  -0.27526  -0.26548
 Alpha virt. eigenvalues --    0.03150   0.04210   0.04348   0.04392   0.05268
 Alpha virt. eigenvalues --    0.05871   0.06129   0.06874   0.07145   0.07699
 Alpha virt. eigenvalues --    0.08223   0.09230   0.10378   0.10648   0.10917

 Mulliken charges:
               1
     1  C   -2.993936
     2  C   -0.805527
     3  C   -3.296295
     4  C   -0.719426
     5  H    1.524516
     6  H    1.635440
     7  H    1.642901
     8  H    1.536671
     9  S    3.668743
    10  O   -2.551820
    11  C   -3.943386
    12  C   -2.635449
    13  C   -0.421918
    14  H    1.580232
    15  H    2.024047
    16  H    2.050354
    17  H    1.308099
    18  C   -3.539254
    19  H    1.510671
    20  H    1.226944
    21  C    5.031994
    22  O   -3.833599
 Sum of Mulliken charges =  -0.00000

 Dipole moment (field-independent basis, Debye):
    X=              1.0359    Y=              2.3506    Z=              0.9396  Tot=              2.7352

 Test job not archived.
 1\1\GINC-SE345\SP\RHF\Aug-CC-pVDZ\C9H10O2S1\OHZDE\09-Apr-2025\0\\#t hf
  aug-cc-pvdz iop(5/13=1,5/36=2,99/5=2) pseudo=read geom=check guess=(r
 ead,tcheck) scf=(maxcycle=1)\\title\\0,1\C,0,0.773503,-1.00895,0.92361
 9\C,0,0.349631,-0.070851,1.850594\C,0,1.17643,1.282179,0.161913\C,0,0.
 591144,1.236821,1.42344\H,0,1.592003,2.177306,-0.283062\H,0,0.273343,2
 .115534,1.968823\H,0,-0.198625,-0.323759,2.748024\H,0,0.767226,-2.0814
 47,1.060637\S,0,2.093966,-0.253086,-0.019862\O,0,2.183341,-0.730831,-1
 .431658\C,0,-2.434213,0.652327,0.089191\C,0,-0.630172,-0.668305,-0.830

 Normal termination of Gaussian 16 at Wed Apr  9 02:13:49 2025.
