 Gaussian 16, Revision C.01,

 ----------------------------------------------------------------------
 #t hf aug-cc-pvdz symm=none int=(grid=ultrafine) guess=(read,tcheck) s
 table=(opt,rrhf)
 ----------------------------------------------------------------------
 -----
 title
 -----
 Symbolic Z-matrix:
 Charge =  0 Multiplicity = 1

 SCF Done:  E(RHF) =  -1025.00774689     A.U. after   16 cycles
 Normal termination of Gaussian 16 at Wed Apr  9 01:59:54 2025.
 Gaussian 16:  ES64L-G16RevC.01  3-Jul-2019

 ----------------------------------------------------------------------
 #t hf aug-cc-pvdz iop(5/13=1,5/36=2,99/5=2) pseudo=read geom=check gue
 ss=(read,tcheck) scf=(maxcycle=1)
 ----------------------------------------------------------------------
 -----
 title
 -----
 Structure from the checkpoint file:  "BH10_345_reverse_mol2.chk"
 Charge =  0 Multiplicity = 1

                         Standard orientation:
 ---------------------------------------------------------------------
 Center     Atomic      Atomic             Coordinates (Angstroms)
 Number     Number       Type             X           Y           Z
 ---------------------------------------------------------------------
      1          7           0       -0.639524    0.925629    0.173344
      2          6           0       -1.998350    0.641576   -0.038168
      3          6           0       -2.236238   -0.684882   -0.114106
      4         16           0       -0.762178   -1.582332    0.096992
      5          6           0        0.135332   -0.147299    0.268000
      6          6           0       -2.979810    1.757142   -0.162538
      7          1           0       -2.921658    2.438719    0.687852
      8          1           0       -3.991179    1.359876   -0.203360
      9          1           0       -2.814459    2.337965   -1.072766
     10          6           0       -3.523643   -1.402910   -0.354770
     11          1           0       -4.367559   -0.715806   -0.327423
     12          1           0       -3.693877   -2.170250    0.402566
     13          1           0       -3.522239   -1.892347   -1.331067
     14          6           0       -0.153876    2.311987    0.268036
     15          1           0       -0.293605    2.679568    1.284931
     16          1           0       -0.725161    2.922825   -0.424956
     17          1           0        0.888571    2.324813   -0.047905
     18          6           0        1.608626   -0.278984    0.486439
     19          6           0        2.116637    0.464962    1.717934
     20          1           0        2.008545    1.542966    1.625900
     21          1           0        3.177264    0.238748    1.823963
     22          1           0        1.600176    0.114839    2.614370
     23          8           0        1.844734   -1.656137    0.625396
     24          6           0        2.380664    0.211051   -0.844587
     25          8           0        2.257760    1.406102   -1.124684
     26          8           0        2.995668   -0.718745   -1.377411
     27          1           0        2.445363   -1.829632   -0.141235
 ---------------------------------------------------------------------

 SCF Done:  E(RHF) =  -1028.11466129     A.U. after    2 cycles

 The electronic state is 1-A.
 Alpha  occ. eigenvalues --  -75.76341 -21.04862 -20.97941 -20.97373 -15.85182
 Alpha  occ. eigenvalues --  -13.25620 -13.24416 -13.09112 -11.57056 -11.53179
 Alpha  occ. eigenvalues --  -11.48060 -11.46959 -11.46083 -11.45516 -11.43778
 Alpha  occ. eigenvalues --  -11.42140 -11.39127  -8.10940  -1.76665  -1.68207
 Alpha  occ. eigenvalues --   -1.59281  -1.55989  -1.30389  -1.23771  -1.13910
 Alpha  occ. eigenvalues --   -1.11913  -1.06199  -1.02492  -0.92966  -0.84282
 Alpha  occ. eigenvalues --   -0.80184  -0.73674  -0.69813  -0.68128  -0.65206
 Alpha  occ. eigenvalues --   -0.63784  -0.62494  -0.61053  -0.60167  -0.59702
 Alpha  occ. eigenvalues --   -0.57921  -0.57313  -0.55754  -0.54560  -0.54014
 Alpha  occ. eigenvalues --   -0.49791  -0.49005  -0.45593  -0.44454  -0.43477
 Alpha  occ. eigenvalues --   -0.40767  -0.37910  -0.33717  -0.32411  -0.24308
 Alpha  occ. eigenvalues --   -0.23708  -0.22552
 Alpha virt. eigenvalues --    0.01085   0.03016   0.04030   0.04355   0.04794
 Alpha virt. eigenvalues --    0.04983   0.05376   0.06254   0.06755   0.07151
 Alpha virt. eigenvalues --    0.07588   0.08424   0.08697   0.09267   0.09700

 Mulliken charges:
               1
     1  N   -5.907297
     2  C    3.379460
     3  C    1.639404
     4  S    1.372589
     5  C    3.388214
     6  C   -5.484128
     7  H    1.190612
     8  H    1.253467
     9  H    1.154029
    10  C   -6.326808
    11  H    1.263167
    12  H    1.289923
    13  H    1.249774
    14  C   -4.239170
    15  H    1.480243
    16  H    1.490859
    17  H    2.113064
    18  C    4.615769
    19  C   -5.121618
    20  H    1.409312
    21  H    1.221627
    22  H    1.168250
    23  O   -3.655116
    24  C    5.925556
    25  O   -3.351798
    26  O   -3.191120
    27  H    0.671738
 Sum of Mulliken charges =   0.00000

 Dipole moment (field-independent basis, Debye):
    X=             -9.4382    Y=             -1.3320    Z=              3.0725  Tot=             10.0147

 Test job not archived.
 1\1\GINC-SE094\SP\RHF\Aug-CC-pVDZ\C9H13N1O3S1\OHZDE\09-Apr-2025\0\\#t
 hf aug-cc-pvdz iop(5/13=1,5/36=2,99/5=2) pseudo=read geom=check guess=
 (read,tcheck) scf=(maxcycle=1)\\title\\0,1\N,0,-0.639524,0.925629,0.17
 3344\C,0,-1.99835,0.641576,-0.038168\C,0,-2.236238,-0.684882,-0.114106
 \S,0,-0.762178,-1.582332,0.096992\C,0,0.135332,-0.147299,0.268\C,0,-2.
 97981,1.757142,-0.162538\H,0,-2.921658,2.438719,0.687852\H,0,-3.991179
 ,1.359876,-0.20336\H,0,-2.814459,2.337965,-1.072766\C,0,-3.523643,-1.4
 0291,-0.35477\H,0,-4.367559,-0.715806,-0.327423\H,0,-3.693877,-2.17025

 Normal termination of Gaussian 16 at Wed Apr  9 02:00:24 2025.
