 Gaussian 16, Revision C.01,

 ----------------------------------------------------------------------
 #t hf aug-cc-pvdz symm=none int=(grid=ultrafine) guess=(read,tcheck) s
 table=(opt,rrhf)
 ----------------------------------------------------------------------
 -----
 title
 -----
 Symbolic Z-matrix:
 Charge =  0 Multiplicity = 1

 SCF Done:  E(RHF) =  -958.518389148     A.U. after   16 cycles
 Normal termination of Gaussian 16 at Wed Apr  9 01:02:16 2025.
 Gaussian 16:  ES64L-G16RevC.01  3-Jul-2019

 ----------------------------------------------------------------------
 #t hf aug-cc-pvdz iop(5/13=1,5/36=2,99/5=2) pseudo=read geom=check gue
 ss=(read,tcheck) scf=(maxcycle=1)
 ----------------------------------------------------------------------
 -----
 title
 -----
 Structure from the checkpoint file:  "BH10_135_forward_mol2.chk"
 Charge =  0 Multiplicity = 1

                         Standard orientation:
 ---------------------------------------------------------------------
 Center     Atomic      Atomic             Coordinates (Angstroms)
 Number     Number       Type             X           Y           Z
 ---------------------------------------------------------------------
      1         17           0        2.081345    2.181418   -0.073890
      2          6           0        1.574669    0.460567   -0.485420
      3          6           0        0.110869    0.277855   -0.206298
      4          6           0        2.454567   -0.487724    0.255854
      5          6           0       -0.752489   -0.062640   -1.232911
      6          6           0       -0.410558    0.408798    1.083319
      7          6           0        3.326066   -1.289305   -0.340117
      8          6           0       -2.107783   -0.282725   -1.001269
      9          6           0       -2.608023   -0.153527    0.287065
     10          6           0       -1.748507    0.196684    1.330576
     11          1           0        0.239895    0.699984    1.899427
     12          1           0       -2.750430   -0.546933   -1.828746
     13          8           0       -3.907666   -0.341704    0.629412
     14          1           0       -2.161427    0.301208    2.325677
     15          1           0       -0.370784   -0.163228   -2.242858
     16          6           0       -4.825300   -0.687139   -0.387675
     17          1           0       -5.792299   -0.785377    0.100071
     18          1           0       -4.558723   -1.638706   -0.857733
     19          1           0       -4.883383    0.093065   -1.152698
     20          6           0        4.205546   -2.271491    0.363264
     21          1           0        5.260276   -2.057250    0.169214
     22          1           0        4.017277   -3.289086    0.009644
     23          1           0        4.044932   -2.249286    1.442100
     24          1           0        3.422308   -1.241089   -1.423195
     25          1           0        2.338851   -0.508409    1.335805
     26          1           0        1.757631    0.378518   -1.554213
 ---------------------------------------------------------------------

 SCF Done:  E(RHF) =  -961.155349644     A.U. after    2 cycles

 The electronic state is 1-A.
 Alpha  occ. eigenvalues --  -99.86411 -21.07702 -11.53820 -11.49120 -11.46158
 Alpha  occ. eigenvalues --  -11.44802 -11.44234 -11.43243 -11.41638 -11.40765
 Alpha  occ. eigenvalues --  -11.40141 -11.37790 -11.36779 -10.43656  -9.63677
 Alpha  occ. eigenvalues --   -9.63047  -9.62919  -1.79662  -1.38537  -1.28851
 Alpha  occ. eigenvalues --   -1.21091  -1.12179  -1.10450  -1.04757  -0.99485
 Alpha  occ. eigenvalues --   -0.92027  -0.88418  -0.82399  -0.79619  -0.70765
 Alpha  occ. eigenvalues --   -0.66721  -0.65210  -0.63539  -0.62913  -0.61339
 Alpha  occ. eigenvalues --   -0.60079  -0.58289  -0.56966  -0.55723  -0.54077
 Alpha  occ. eigenvalues --   -0.53659  -0.51225  -0.49867  -0.49450  -0.47243
 Alpha  occ. eigenvalues --   -0.45205  -0.42684  -0.40553  -0.39497  -0.34652
 Alpha  occ. eigenvalues --   -0.33857  -0.26284
 Alpha virt. eigenvalues --    0.03316   0.04553   0.04678   0.05184   0.05693
 Alpha virt. eigenvalues --    0.06156   0.06333   0.06474   0.06707   0.06774
 Alpha virt. eigenvalues --    0.07722   0.08384   0.08549   0.08788   0.09951

 Mulliken charges:
               1
     1  Cl   0.089972
     2  C   -4.949986
     3  C    6.814017
     4  C    0.878047
     5  C   -2.297828
     6  C   -1.504743
     7  C   -1.603976
     8  C   -3.427881
     9  C    3.958722
    10  C   -4.345822
    11  H    1.954348
    12  H    1.842698
    13  O   -4.791935
    14  H    1.914770
    15  H    1.885688
    16  C   -3.878819
    17  H    1.414017
    18  H    1.401465
    19  H    1.403353
    20  C   -4.769717
    21  H    1.185083
    22  H    1.182682
    23  H    1.270836
    24  H    1.487258
    25  H    1.568962
    26  H    1.318789
 Sum of Mulliken charges =   0.00000

 Dipole moment (field-independent basis, Debye):
    X=             -1.7647    Y=             -3.1027    Z=             -0.6442  Tot=              3.6271

 Test job not archived.
 1\1\GINC-SE060\SP\RHF\Aug-CC-pVDZ\C11H13Cl1O1\OHZDE\09-Apr-2025\0\\#t
 hf aug-cc-pvdz iop(5/13=1,5/36=2,99/5=2) pseudo=read geom=check guess=
 (read,tcheck) scf=(maxcycle=1)\\title\\0,1\Cl,0,2.081345,2.181418,-0.0
 7389\C,0,1.574669,0.460567,-0.48542\C,0,0.110869,0.277855,-0.206298\C,
 0,2.454567,-0.487724,0.255854\C,0,-0.752489,-0.06264,-1.232911\C,0,-0.
 410558,0.408798,1.083319\C,0,3.326066,-1.289305,-0.340117\C,0,-2.10778
 3,-0.282725,-1.001269\C,0,-2.608023,-0.153527,0.287065\C,0,-1.748507,0
 .196684,1.330576\H,0,0.239895,0.699984,1.899427\H,0,-2.75043,-0.546933

 Normal termination of Gaussian 16 at Wed Apr  9 01:02:40 2025.
