 Gaussian 16, Revision C.01,

 ----------------------------------------------------------------------
 #t hf aug-cc-pvdz symm=none int=(grid=ultrafine) guess=(read,tcheck) s
 table=opt
 ----------------------------------------------------------------------
 -----
 title
 -----
 Symbolic Z-matrix:
 Charge =  0 Multiplicity = 2

 SCF Done:  E(UHF) =  -1746.58182701     A.U. after   18 cycles
 Normal termination of Gaussian 16 at Wed Apr  9 03:56:40 2025.
 Gaussian 16:  ES64L-G16RevC.01  3-Jul-2019

 ----------------------------------------------------------------------
 #t hf aug-cc-pvdz iop(5/13=1,5/36=2,99/5=2) pseudo=read geom=check gue
 ss=(read,tcheck) scf=(maxcycle=1)
 ----------------------------------------------------------------------
 -----
 title
 -----
 Structure from the checkpoint file:  "BH10_306_reverse_mol2.chk"
 Charge =  0 Multiplicity = 2

                         Standard orientation:
 ---------------------------------------------------------------------
 Center     Atomic      Atomic             Coordinates (Angstroms)
 Number     Number       Type             X           Y           Z
 ---------------------------------------------------------------------
      1         14           0       -0.727017   -0.004328   -0.273321
      2         14           0       -0.828645    2.122130    0.715434
      3         14           0        0.059982   -1.567247    1.294348
      4         14           0       -2.873045   -0.640706   -0.992872
      5          6           0       -3.713784    0.806078   -1.864934
      6          1           0       -4.681683    0.501141   -2.273163
      7          1           0       -3.890327    1.640101   -1.181977
      8          1           0       -3.108119    1.179515   -2.694378
      9          6           0       -2.718447   -2.060640   -2.224206
     10          1           0       -2.237074   -2.931926   -1.774488
     11          1           0       -3.703251   -2.371592   -2.584631
     12          1           0       -2.125291   -1.767104   -3.093776
     13          6           0       -3.964514   -1.193993    0.440619
     14          1           0       -4.045084   -0.420957    1.208024
     15          1           0       -4.974732   -1.418784    0.086730
     16          1           0       -3.573527   -2.096333    0.916121
     17          6           0       -0.177875   -3.323826    0.650179
     18          1           0        0.206658   -4.054602    1.367419
     19          1           0       -1.233597   -3.548526    0.481744
     20          1           0        0.348442   -3.478242   -0.295070
     21          6           0        1.875294   -1.338558    1.743396
     22          1           0        2.084907   -0.316905    2.065369
     23          1           0        2.139914   -2.009826    2.565831
     24          1           0        2.535531   -1.565441    0.905571
     25          6           0       -0.944026   -1.359575    2.878574
     26          1           0       -2.017560   -1.445633    2.701011
     27          1           0       -0.664021   -2.124437    3.608664
     28          1           0       -0.760181   -0.385148    3.337607
     29          6           0        0.697522    2.463664    1.767870
     30          1           0        0.670022    3.479531    2.172507
     31          1           0        0.761092    1.773005    2.611980
     32          1           0        1.613983    2.358388    1.183198
     33          6           0       -0.944521    3.436480   -0.631484
     34          1           0       -1.829425    3.290601   -1.255068
     35          1           0       -1.006501    4.436491   -0.192758
     36          1           0       -0.070576    3.415851   -1.286706
     37          6           0       -2.353210    2.248506    1.818638
     38          1           0       -2.391010    3.223470    2.312837
     39          1           0       -3.275015    2.133711    1.243835
     40          1           0       -2.350347    1.481872    2.596743
     41          6           0        0.358817    0.114321   -1.868355
     42          6           0        1.707567    0.666559   -1.618680
     43          6           0        2.932523   -0.177557   -1.624600
     44          1           0        2.686042   -1.185734   -1.267532
     45          1           0        3.284318   -0.326545   -2.659770
     46          6           0        4.080587    0.395102   -0.797189
     47          1           0        3.738796    0.550209    0.231307
     48          1           0        4.341979    1.386445   -1.185121
     49          6           0        5.321309   -0.489994   -0.789429
     50          1           0        5.661251   -0.646019   -1.819032
     51          1           0        5.053297   -1.480287   -0.404570
     52          6           0        6.458064    0.089427    0.044375
     53          1           0        6.151479    0.223688    1.085147
     54          1           0        7.334510   -0.562038    0.037172
     55          1           0        6.766586    1.066537   -0.336974
     56          1           0        0.417690   -0.881631   -2.318302
     57          1           0       -0.208721    0.744861   -2.563211
     58          1           0        1.819852    1.738435   -1.491183
 ---------------------------------------------------------------------

 SCF Done:  E(UHF) =  -1750.34158445     A.U. after    2 cycles

 The electronic state is 2-A.
 Alpha  occ. eigenvalues --  -76.17917 -76.17799 -76.17773 -76.16537 -11.44258
 Alpha  occ. eigenvalues --  -11.41932 -11.39972 -11.37493 -11.35633 -11.35375
 Alpha  occ. eigenvalues --  -11.35084 -11.35052 -11.34667 -11.34556 -11.34519
 Alpha  occ. eigenvalues --  -11.34448 -11.34357 -11.34305 -11.34160  -5.51962
 Alpha  occ. eigenvalues --   -5.51865  -5.51823  -5.50613  -2.15999  -2.15901
 Alpha  occ. eigenvalues --   -2.15858  -2.15776  -2.15720  -2.15642  -2.15629
 Alpha  occ. eigenvalues --   -2.15561  -2.15248  -2.13779  -2.12748  -2.12679
 Alpha  occ. eigenvalues --   -1.27019  -1.15947  -1.07150  -1.06869  -1.06732
 Alpha  occ. eigenvalues --   -1.04384  -1.00733  -1.00530  -1.00481  -1.00258
 Alpha  occ. eigenvalues --   -1.00154  -1.00035  -0.92982  -0.83284  -0.81448
 Alpha  occ. eigenvalues --   -0.74067  -0.65601  -0.64510  -0.64405  -0.61342
 Alpha  occ. eigenvalues --   -0.59419  -0.58344  -0.58019  -0.57164  -0.57123
 Alpha  occ. eigenvalues --   -0.56477  -0.56133  -0.56010  -0.55714  -0.55653
 Alpha  occ. eigenvalues --   -0.55434  -0.54941  -0.54541  -0.54122  -0.53971
 Alpha  occ. eigenvalues --   -0.53799  -0.53624  -0.53302  -0.53066  -0.52872
 Alpha  occ. eigenvalues --   -0.52558  -0.52444  -0.51991  -0.49750  -0.47125
 Alpha  occ. eigenvalues --   -0.45389  -0.44764  -0.43081  -0.39859  -0.39170
 Alpha  occ. eigenvalues --   -0.39123  -0.38554  -0.38458  -0.38235  -0.36843
 Alpha  occ. eigenvalues --   -0.28398  -0.28079  -0.24611
 Alpha virt. eigenvalues --    0.03773   0.04401   0.04622   0.04746   0.04941
 Alpha virt. eigenvalues --    0.04981   0.05124   0.05534   0.05615   0.05652
 Alpha virt. eigenvalues --    0.05801   0.05884   0.05985   0.06196   0.06291

  Beta  occ. eigenvalues --  -76.17919 -76.17789 -76.17775 -76.16467 -11.43671
  Beta  occ. eigenvalues --  -11.41773 -11.39804 -11.37547 -11.35402 -11.35190
  Beta  occ. eigenvalues --  -11.35061 -11.35049 -11.34623 -11.34547 -11.34517
  Beta  occ. eigenvalues --  -11.34414 -11.34356 -11.34272 -11.33851  -5.51966
  Beta  occ. eigenvalues --   -5.51855  -5.51822  -5.50499  -2.15994  -2.15887
  Beta  occ. eigenvalues --   -2.15840  -2.15771  -2.15718  -2.15625  -2.15610
  Beta  occ. eigenvalues --   -2.15542  -2.15006  -2.13649  -2.12693  -2.12614
  Beta  occ. eigenvalues --   -1.25766  -1.13738  -1.07129  -1.06866  -1.06722
  Beta  occ. eigenvalues --   -1.04083  -1.00722  -1.00527  -1.00475  -1.00253
  Beta  occ. eigenvalues --   -1.00151  -1.00029  -0.92337  -0.82652  -0.77911
  Beta  occ. eigenvalues --   -0.73473  -0.64885  -0.64482  -0.64359  -0.60707
  Beta  occ. eigenvalues --   -0.58692  -0.58131  -0.57449  -0.57151  -0.57028
  Beta  occ. eigenvalues --   -0.56421  -0.56064  -0.55965  -0.55658  -0.55622
  Beta  occ. eigenvalues --   -0.55362  -0.54530  -0.54202  -0.54107  -0.53946
  Beta  occ. eigenvalues --   -0.53753  -0.53598  -0.53284  -0.52846  -0.52712
  Beta  occ. eigenvalues --   -0.52481  -0.52362  -0.51797  -0.48728  -0.46655
  Beta  occ. eigenvalues --   -0.45070  -0.44620  -0.41492  -0.39709  -0.39160
  Beta  occ. eigenvalues --   -0.39108  -0.38544  -0.38436  -0.38234  -0.34977
  Beta  occ. eigenvalues --   -0.28026  -0.27950
  Beta virt. eigenvalues --    0.03731   0.04396   0.04609   0.04748   0.04891
  Beta virt. eigenvalues --    0.04992   0.05126   0.05544   0.05614   0.05657
  Beta virt. eigenvalues --    0.05806   0.05888   0.05986   0.06196   0.06298

 Mulliken charges and spin densities:
               1          2
     1  Si   3.572822  -0.326954
     2  Si  10.734877   0.079030
     3  Si   9.794108  -0.033557
     4  Si  10.251878   0.102428
     5  C   -6.967069  -0.001608
     6  H    1.041401   0.005754
     7  H    1.196717   0.001991
     8  H    1.287712  -0.005002
     9  C   -6.965442  -0.012070
    10  H    1.284106  -0.005488
    11  H    0.997445   0.003575
    12  H    1.076905  -0.001952
    13  C   -6.911571  -0.001045
    14  H    1.371606  -0.001504
    15  H    0.949290   0.005536
    16  H    1.213588  -0.006445
    17  C   -7.014650   0.003947
    18  H    1.076849  -0.000321
    19  H    1.172110   0.002911
    20  H    1.200025  -0.000904
    21  C   -7.261549   0.025881
    22  H    1.539151   0.012303
    23  H    0.862002  -0.001140
    24  H    1.684858   0.000676
    25  C   -7.058980   0.003918
    26  H    1.547751   0.001621
    27  H    0.982428  -0.000526
    28  H    1.182431   0.002895
    29  C   -7.174927   0.014246
    30  H    1.049651   0.003099
    31  H    1.237832   0.005616
    32  H    1.372572   0.004756
    33  C   -7.229661  -0.001379
    34  H    1.175290  -0.000263
    35  H    0.968793   0.002140
    36  H    1.201692   0.000736
    37  C   -7.036042  -0.008299
    38  H    0.940664   0.000767
    39  H    1.096074   0.001929
    40  H    1.434810   0.002846
    41  C   -4.713334  -0.391573
    42  C   -1.444115   2.011067
    43  C   -3.709536  -0.613787
    44  H    1.894232   0.002173
    45  H    1.546779   0.020716
    46  C   -3.347674   0.080190
    47  H    2.413001   0.028545
    48  H    1.720768  -0.005638
    49  C   -3.713104  -0.007440
    50  H    1.481690   0.000902
    51  H    1.653164   0.000205
    52  C   -4.809199  -0.002378
    53  H    1.425128   0.000309
    54  H    1.085434   0.000087
    55  H    1.351093   0.000097
    56  H    1.361683  -0.002351
    57  H    0.931507   0.017589
    58  H    1.994933  -0.018858
 Sum of Mulliken charges =   0.00000   1.00000

 Dipole moment (field-independent basis, Debye):
    X=              0.1905    Y=             -0.0682    Z=             -0.3843  Tot=              0.4344
                          Isotropic Fermi Contact Couplings
        Atom                 a.u.       MegaHertz       Gauss      10(-4) cm-1
     1  Si(29)             0.07981     -70.92845     -25.30904     -23.65918
     2  Si(29)            -0.00229       2.03311       0.72546       0.67817
     3  Si(29)            -0.00245       2.17779       0.77709       0.72643
     4  Si(29)             0.01007      -8.95136      -3.19407      -2.98585
     5  C(13)              0.00052       0.58931       0.21028       0.19657
     6  H(1)               0.00009       0.38463       0.13725       0.12830
     7  H(1)               0.00001       0.04661       0.01663       0.01555
     8  H(1)               0.00000       0.01605       0.00573       0.00535

 Normal termination of Gaussian 16 at Wed Apr  9 04:00:41 2025.
