 Gaussian 16, Revision C.01,

 ----------------------------------------------------------------------
 #t hf aug-cc-pvdz symm=none int=(grid=ultrafine) guess=(read,tcheck) s
 table=(opt,rrhf)
 ----------------------------------------------------------------------
 -----
 title
 -----
 Symbolic Z-matrix:
 Charge =  0 Multiplicity = 1

 SCF Done:  E(RHF) =  -1000.85429166     A.U. after   18 cycles
 Normal termination of Gaussian 16 at Wed Apr  9 02:35:09 2025.
 Gaussian 16:  ES64L-G16RevC.01  3-Jul-2019

 ----------------------------------------------------------------------
 #t hf aug-cc-pvdz iop(5/13=1,5/36=2,99/5=2) pseudo=read geom=check gue
 ss=(read,tcheck) scf=(maxcycle=1)
 ----------------------------------------------------------------------
 -----
 title
 -----
 Structure from the checkpoint file:  "BH10_85_reverse_mol1.chk"
 Charge =  0 Multiplicity = 1

                         Standard orientation:
 ---------------------------------------------------------------------
 Center     Atomic      Atomic             Coordinates (Angstroms)
 Number     Number       Type             X           Y           Z
 ---------------------------------------------------------------------
      1          6           0        0.246730   -0.933914   -0.867100
      2          6           0       -2.064613   -0.705235   -0.073119
      3          6           0        0.705443    0.075458   -0.038460
      4          1           0        0.309343    0.069146    0.969262
      5          6           0       -2.073369    0.752011   -0.154547
      6          6           0       -3.441444    1.396746   -0.286521
      7          6           0       -1.029834   -1.439900   -0.651143
      8          1           0       -1.302968   -2.418788   -1.034517
      9          1           0        0.837714   -1.278868   -1.706980
     10          6           0       -0.991964    2.821695   -0.673869
     11          6           0       -3.302427   -1.458251    0.184307
     12          6           0        1.984333    0.809595   -0.197266
     13          6           0        2.102112    1.992178    0.774428
     14          1           0        2.142708    1.646459    1.811090
     15          1           0        1.247412    2.662533    0.695462
     16          1           0        2.079059    1.159158   -1.231847
     17          1           0        3.004926    2.574038    0.585639
     18          7           0       -0.994171    1.456059   -0.190524
     19         14           0        3.462028   -0.393252    0.075946
     20          6           0        3.613134   -1.624192   -1.331071
     21          6           0        5.031499    0.638063    0.136403
     22          6           0        3.222026   -1.298790    1.699575
     23          1           0       -0.016686    3.022360   -1.121307
     24          1           0       -1.119772    3.528533    0.152998
     25          1           0       -1.751277    3.031555   -1.432425
     26          1           0        5.143961    1.251177   -0.761742
     27          1           0        5.906336   -0.014429    0.199649
     28          1           0        5.054451    1.303312    1.001641
     29          1           0        3.610455   -1.129360   -2.305611
     30          1           0        2.808056   -2.359714   -1.320856
     31          1           0        4.557607   -2.168007   -1.242593
     32          1           0        2.316837   -1.909837    1.678545
     33          1           0        3.143302   -0.608665    2.542915
     34          1           0        4.066759   -1.963456    1.897978
     35          6           0       -4.605011   -0.709445    0.381927
     36          6           0       -4.420358    0.764184    0.696509
     37          1           0       -5.177251   -1.234444    1.147846
     38          1           0       -5.162228   -0.823014   -0.555678
     39          1           0       -4.035874    0.886951    1.713998
     40          1           0       -5.378188    1.287404    0.655290
     41          1           0       -3.811887    1.268533   -1.310278
     42          1           0       -3.368389    2.467122   -0.100517
     43          8           0       -3.308893   -2.677226    0.217767
 ---------------------------------------------------------------------

 SCF Done:  E(RHF) =  -1004.52991673     A.U. after    2 cycles

 The electronic state is 1-A.
 Alpha  occ. eigenvalues --  -76.19105 -21.00699 -15.71058 -11.50685 -11.49931
 Alpha  occ. eigenvalues --  -11.48700 -11.45503 -11.44638 -11.42839 -11.41226
 Alpha  occ. eigenvalues --  -11.40220 -11.39556 -11.38994 -11.37272 -11.36049
 Alpha  occ. eigenvalues --  -11.35489 -11.35325 -11.34816  -5.53347  -2.17668
 Alpha  occ. eigenvalues --   -2.17294  -2.17132  -1.67769  -1.42330  -1.26857
 Alpha  occ. eigenvalues --   -1.25019  -1.17491  -1.08181  -1.06988  -1.05771
 Alpha  occ. eigenvalues --   -1.01525  -1.01294  -1.00434  -0.94586  -0.89104
 Alpha  occ. eigenvalues --   -0.84814  -0.79586  -0.77031  -0.69268  -0.66983
 Alpha  occ. eigenvalues --   -0.65989  -0.65500  -0.61823  -0.61218  -0.60693
 Alpha  occ. eigenvalues --   -0.59271  -0.58182  -0.57465  -0.56938  -0.56782
 Alpha  occ. eigenvalues --   -0.55930  -0.55017  -0.54736  -0.54260  -0.53988
 Alpha  occ. eigenvalues --   -0.53367  -0.53035  -0.50631  -0.49650  -0.48103
 Alpha  occ. eigenvalues --   -0.46605  -0.46273  -0.45290  -0.41498  -0.41301
 Alpha  occ. eigenvalues --   -0.39353  -0.39159  -0.38626  -0.35550  -0.31020
 Alpha  occ. eigenvalues --   -0.25432  -0.24135
 Alpha virt. eigenvalues --    0.03160   0.04304   0.04497   0.04578   0.04741
 Alpha virt. eigenvalues --    0.04954   0.05259   0.05709   0.05877   0.06093
 Alpha virt. eigenvalues --    0.06272   0.06748   0.07134   0.07384   0.07618

 Mulliken charges:
               1
     1  C   -1.343919
     2  C    0.084475
     3  C    0.024418
     4  H    2.054657
     5  C    8.567712
     6  C   -5.155399
     7  C   -2.116872
     8  H    1.716989
     9  H    1.931291
    10  C   -4.404561
    11  C    5.206202
    12  C   -5.595047
    13  C   -5.277250
    14  H    1.127312
    15  H    1.823541
    16  H    1.528144
    17  H    1.268683
    18  N   -4.987826
    19  Si  13.478762
    20  C   -6.721682
    21  C   -6.404141
    22  C   -6.442914
    23  H    1.815245
    24  H    1.615448
    25  H    1.417538
    26  H    0.803826
    27  H    1.087194
    28  H    1.138760
    29  H    0.792714
    30  H    1.320049
    31  H    1.019545
    32  H    1.029620
    33  H    0.866101
    34  H    0.946308
    35  C   -4.408254
    36  C   -3.859647
    37  H    1.326321
    38  H    1.263970
    39  H    1.513537
    40  H    1.278235
    41  H    1.374152
    42  H    1.537485
    43  O   -4.240720
 Sum of Mulliken charges =  -0.00000

 Dipole moment (field-independent basis, Debye):
    X=              2.2933    Y=              3.4037    Z=             -0.4489  Tot=              4.1287

 Test job not archived.
 1\1\GINC-SE457\SP\RHF\Aug-CC-pVDZ\C15H25N1O1Si1\OHZDE\09-Apr-2025\0\\#
 t hf aug-cc-pvdz iop(5/13=1,5/36=2,99/5=2) pseudo=read geom=check gues
 s=(read,tcheck) scf=(maxcycle=1)\\title\\0,1\C,0,0.24673,-0.933914,-0.
 8671\C,0,-2.064613,-0.705235,-0.073119\C,0,0.705443,0.075458,-0.03846\
 H,0,0.309343,0.069146,0.969262\C,0,-2.073369,0.752011,-0.154547\C,0,-3
 .441444,1.396746,-0.286521\C,0,-1.029834,-1.4399,-0.651143\H,0,-1.3029
 68,-2.418788,-1.034517\H,0,0.837714,-1.278868,-1.70698\C,0,-0.991964,2
 .821695,-0.673869\C,0,-3.302427,-1.458251,0.184307\C,0,1.984333,0.8095

 Normal termination of Gaussian 16 at Wed Apr  9 02:36:36 2025.
