 Gaussian 16, Revision C.01,

 ----------------------------------------------------------------------
 #t hf aug-cc-pvdz symm=none int=(grid=ultrafine) guess=(read,tcheck) s
 table=(opt,rrhf)
 ----------------------------------------------------------------------
 -----
 title
 -----
 Symbolic Z-matrix:
 Charge =  0 Multiplicity = 1

 SCF Done:  E(RHF) =  -893.758953498     A.U. after   16 cycles
 Normal termination of Gaussian 16 at Wed Apr  9 02:13:53 2025.
 Gaussian 16:  ES64L-G16RevC.01  3-Jul-2019

 ----------------------------------------------------------------------
 #t hf aug-cc-pvdz iop(5/13=1,5/36=2,99/5=2) pseudo=read geom=check gue
 ss=(read,tcheck) scf=(maxcycle=1)
 ----------------------------------------------------------------------
 -----
 title
 -----
 Structure from the checkpoint file:  "BH10_91_forward_mol1.chk"
 Charge =  0 Multiplicity = 1

                         Standard orientation:
 ---------------------------------------------------------------------
 Center     Atomic      Atomic             Coordinates (Angstroms)
 Number     Number       Type             X           Y           Z
 ---------------------------------------------------------------------
      1          6           0        0.759371   -1.174278    0.472785
      2          6           0        0.500566   -0.462347    1.613797
      3          6           0        1.107667    1.239166    0.163792
      4          6           0        0.715334    0.917159    1.444358
      5          1           0        1.476047    2.209984   -0.139796
      6          1           0        0.504345    1.654274    2.208504
      7          1           0        0.077339   -0.902050    2.507436
      8          1           0        0.719815   -2.248872    0.365421
      9         16           0        1.857157   -0.225319   -0.639042
     10          6           0       -2.467681    0.547166    0.467290
     11          6           0       -0.844192   -0.452945   -1.016072
     12          6           0       -0.641352    0.923569   -1.062520
     13          6           0       -1.761011    1.648386   -0.332240
     14          1           0       -2.135821    0.529652    1.509222
     15          1           0       -0.501374   -1.157061   -1.760276
     16          1           0       -0.154951    1.395400   -1.906405
     17          1           0       -2.436864    2.077251   -1.077645
     18          1           0       -1.406168    2.470786    0.288308
     19          1           0       -3.554490    0.619955    0.474545
     20          8           0        3.268425   -0.368785   -0.159778
     21          6           0       -2.027563   -0.758601   -0.180026
     22          8           0       -2.562077   -1.832197   -0.049175
 ---------------------------------------------------------------------

 SCF Done:  E(RHF) =  -896.349917628     A.U. after    2 cycles

 The electronic state is 1-A.
 Alpha  occ. eigenvalues --  -75.80078 -21.04748 -21.00952 -13.37196 -13.27170
 Alpha  occ. eigenvalues --  -13.22284 -11.52595 -11.51420 -11.50321 -11.46818
 Alpha  occ. eigenvalues --  -11.45822 -11.44892 -11.41703 -11.40479 -11.38723
 Alpha  occ. eigenvalues --   -8.14254  -1.70793  -1.69232  -1.38241  -1.29853
 Alpha  occ. eigenvalues --   -1.09368  -1.08549  -1.05510  -1.00433  -0.84783
 Alpha  occ. eigenvalues --   -0.84394  -0.79458  -0.76564  -0.74098  -0.67922
 Alpha  occ. eigenvalues --   -0.65912  -0.58232  -0.57386  -0.55625  -0.55171
 Alpha  occ. eigenvalues --   -0.54069  -0.52735  -0.51677  -0.49946  -0.48918
 Alpha  occ. eigenvalues --   -0.47867  -0.44205  -0.38477  -0.37260  -0.32015
 Alpha  occ. eigenvalues --   -0.30609  -0.28255  -0.26283
 Alpha virt. eigenvalues --    0.03044   0.03651   0.03972   0.04509   0.04555
 Alpha virt. eigenvalues --    0.05517   0.05973   0.06317   0.06496   0.07507
 Alpha virt. eigenvalues --    0.08071   0.09127   0.10368   0.11008   0.11548

 Mulliken charges:
               1
     1  C   -2.654421
     2  C   -0.978244
     3  C   -3.289527
     4  C   -0.685356
     5  H    1.525603
     6  H    1.643980
     7  H    1.669574
     8  H    1.564968
     9  S    3.181113
    10  C   -3.793702
    11  C   -2.375768
    12  C   -0.069388
    13  C   -3.788352
    14  H    1.654152
    15  H    1.914264
    16  H    1.953994
    17  H    1.249663
    18  H    1.540073
    19  H    1.315748
    20  O   -2.505730
    21  C    4.746334
    22  O   -3.818979
 Sum of Mulliken charges =   0.00000

 Dipole moment (field-independent basis, Debye):
    X=             -1.0208    Y=              2.2076    Z=             -0.2935  Tot=              2.4498

 Test job not archived.
 1\1\GINC-SE292\SP\RHF\Aug-CC-pVDZ\C9H10O2S1\OHZDE\09-Apr-2025\0\\#t hf
  aug-cc-pvdz iop(5/13=1,5/36=2,99/5=2) pseudo=read geom=check guess=(r
 ead,tcheck) scf=(maxcycle=1)\\title\\0,1\C,0,0.759371,-1.174278,0.4727
 85\C,0,0.500566,-0.462347,1.613797\C,0,1.107667,1.239166,0.163792\C,0,
 0.715334,0.917159,1.444358\H,0,1.476047,2.209984,-0.139796\H,0,0.50434
 5,1.654274,2.208504\H,0,0.077339,-0.90205,2.507436\H,0,0.719815,-2.248
 872,0.365421\S,0,1.857157,-0.225319,-0.639042\C,0,-2.467681,0.547166,0
 .46729\C,0,-0.844192,-0.452945,-1.016072\C,0,-0.641352,0.923569,-1.062

 Normal termination of Gaussian 16 at Wed Apr  9 02:14:11 2025.
