 Gaussian 16, Revision C.01,

 ----------------------------------------------------------------------
 #t hf aug-cc-pvdz symm=none int=(grid=ultrafine) guess=(read,tcheck) s
 table=(opt,rrhf)
 ----------------------------------------------------------------------
 -----
 title
 -----
 Symbolic Z-matrix:
 Charge =  0 Multiplicity = 1

 SCF Done:  E(RHF) =  -1035.23932588     A.U. after   16 cycles
 Normal termination of Gaussian 16 at Wed Apr  9 02:00:07 2025.
 Gaussian 16:  ES64L-G16RevC.01  3-Jul-2019

 ----------------------------------------------------------------------
 #t hf aug-cc-pvdz iop(5/13=1,5/36=2,99/5=2) pseudo=read geom=check gue
 ss=(read,tcheck) scf=(maxcycle=1)
 ----------------------------------------------------------------------
 -----
 title
 -----
 Structure from the checkpoint file:  "BH10_288_forward_mol1.chk"
 Charge =  0 Multiplicity = 1

                         Standard orientation:
 ---------------------------------------------------------------------
 Center     Atomic      Atomic             Coordinates (Angstroms)
 Number     Number       Type             X           Y           Z
 ---------------------------------------------------------------------
      1          6           0        1.836847    1.619630    1.919106
      2          1           0        1.489688    2.293449    2.703563
      3          1           0        0.316284    0.251307    2.672482
      4          6           0       -1.002814    0.106638    0.258815
      5          1           0       -1.385914    0.715361   -1.817600
      6          6           0       -4.432863    0.391117   -0.779497
      7          1           0       -4.556998    0.129459    0.258808
      8          1           0       -4.046219    2.013211   -2.134854
      9          1           0       -2.964337    1.926482    0.748632
     10          5           0       -2.462252   -1.665882    0.306175
     11          6           0       -1.670888   -2.918580   -0.293282
     12          1           0       -1.326080   -3.577485    0.510048
     13          6           0       -3.755259   -2.005843    1.169243
     14          1           0       -4.579148   -2.365303    0.544929
     15          6           0        0.667625    1.864194   -0.027841
     16          8           0        0.280705    2.339836   -1.054042
     17          1           0        0.946866   -1.719324    1.380686
     18          6           0        2.629427   -0.873722    0.343190
     19          6           0        2.996812   -0.879356   -2.045823
     20          6           0        4.849531   -0.543889   -0.559739
     21          1           0        4.393383   -0.586113    1.532322
     22          1           0        5.016815   -0.557641   -2.700010
     23          1           0        1.091767   -1.188493   -1.124507
     24          1           0        2.884238    1.374967    2.078056
     25          6           0        0.942866    0.378786    1.790828
     26          7           0        0.114778    0.796868    0.661973
     27          6           0       -1.673516    0.178016   -0.934062
     28          8           0       -2.729978   -0.660174   -0.921275
     29          1           0       -5.014924   -0.186037   -1.484870
     30          6           0       -3.951681    1.660282   -1.113638
     31          6           0       -3.052952    2.249503   -0.281887
     32          1           0       -2.485875    3.124623   -0.571798
     33          8           0       -1.491485   -0.756959    1.103286
     34          1           0       -0.797792   -2.633827   -0.888262
     35          1           0       -2.320519   -3.515111   -0.940677
     36          1           0       -4.124949   -1.173559    1.774866
     37          1           0       -3.519224   -2.816083    1.865421
     38          8           0        1.733331    2.306487    0.664327
     39          6           0        1.693126   -0.935596    1.521031
     40          1           0        2.249159   -1.184405    2.428915
     41          6           0        2.144838   -0.995662   -0.957982
     42          6           0        4.351487   -0.648851   -1.850211
     43          6           0        3.992974   -0.656708    0.526303
     44          1           0        5.907373   -0.376086   -0.396920
     45          1           0        2.600278   -0.971338   -3.049616
 ---------------------------------------------------------------------

 SCF Done:  E(RHF) =  -1040.05191276     A.U. after    2 cycles

 The electronic state is 1-A.
 Alpha  occ. eigenvalues --  -21.10077 -21.05605 -21.04592 -21.03954 -15.77908
 Alpha  occ. eigenvalues --  -11.55935 -11.54913 -11.52729 -11.52390 -11.49094
 Alpha  occ. eigenvalues --  -11.47563 -11.46310 -11.44572 -11.43821 -11.42392
 Alpha  occ. eigenvalues --  -11.41867 -11.41034 -11.40942 -11.39794 -11.36253
 Alpha  occ. eigenvalues --  -11.31955 -11.30427  -7.58633  -1.87889  -1.86136
 Alpha  occ. eigenvalues --   -1.70174  -1.68658  -1.46011  -1.35281  -1.23323
 Alpha  occ. eigenvalues --   -1.20431  -1.11965  -1.09659  -1.09197  -1.03248
 Alpha  occ. eigenvalues --   -1.00804  -0.99461  -0.97468  -0.89344  -0.89178
 Alpha  occ. eigenvalues --   -0.86494  -0.82859  -0.82160  -0.75355  -0.73732
 Alpha  occ. eigenvalues --   -0.71105  -0.70341  -0.69532  -0.68852  -0.65079
 Alpha  occ. eigenvalues --   -0.64482  -0.62670  -0.61253  -0.60287  -0.59104
 Alpha  occ. eigenvalues --   -0.57782  -0.57272  -0.56714  -0.55901  -0.55140
 Alpha  occ. eigenvalues --   -0.54144  -0.53792  -0.52708  -0.52214  -0.51263
 Alpha  occ. eigenvalues --   -0.50829  -0.49421  -0.48835  -0.48151  -0.46242
 Alpha  occ. eigenvalues --   -0.44859  -0.44159  -0.43562  -0.41956  -0.40063
 Alpha  occ. eigenvalues --   -0.37431  -0.36273  -0.34494  -0.32971  -0.32928
 Alpha  occ. eigenvalues --   -0.32093  -0.31175  -0.30642  -0.23459
 Alpha virt. eigenvalues --    0.03218   0.04034   0.04153   0.04507   0.04642
 Alpha virt. eigenvalues --    0.04808   0.05259   0.05675   0.05746   0.06266
 Alpha virt. eigenvalues --    0.06461   0.06977   0.07256   0.07478   0.07811

 Mulliken charges:
               1
     1  C   -3.138615
     2  H    1.487366
     3  H    2.137261
     4  C    4.888064
     5  H    2.639699
     6  C   -4.366742
     7  H    2.013161
     8  H    1.430031
     9  H    1.750013
    10  B   15.653269
    11  C   -6.806147
    12  H    0.976897
    13  C   -7.033066
    14  H    0.605634
    15  C    6.865619
    16  O   -3.805328
    17  H    1.533013
    18  C    7.421606
    19  C   -3.210350
    20  C   -1.858446
    21  H    2.009864
    22  H    1.603831
    23  H    2.647846
    24  H    2.055027
    25  C   -1.451629
    26  N   -1.418659
    27  C    1.625447
    28  O   -5.628309
    29  H    1.500295
    30  C   -0.580964
    31  C   -4.397655
    32  H    1.447761
    33  O   -6.908590
    34  H    0.846322
    35  H    0.947427
    36  H    0.521902
    37  H    0.548108
    38  O   -3.742314
    39  C   -6.342535
    40  H    1.322800
    41  C   -1.680062
    42  C   -3.207549
    43  C   -4.116969
    44  H    1.577254
    45  H    1.638410
 Sum of Mulliken charges =  -0.00000

 Dipole moment (field-independent basis, Debye):
    X=              1.1603    Y=              1.3062    Z=              1.3070  Tot=              2.1819

 Test job not archived.
 1\1\GINC-SE247\SP\RHF\Aug-CC-pVDZ\C17H22B1N1O4\OHZDE\09-Apr-2025\0\\#t
  hf aug-cc-pvdz iop(5/13=1,5/36=2,99/5=2) pseudo=read geom=check guess
 =(read,tcheck) scf=(maxcycle=1)\\title\\0,1\C,0,1.836847,1.61963,1.919
 106\H,0,1.489688,2.293449,2.703563\H,0,0.316284,0.251307,2.672482\C,0,
 -1.002814,0.106638,0.258815\H,0,-1.385914,0.715361,-1.8176\C,0,-4.4328
 63,0.391117,-0.779497\H,0,-4.556998,0.129459,0.258808\H,0,-4.046219,2.
 013211,-2.134854\H,0,-2.964337,1.926482,0.748632\B,0,-2.462252,-1.6658
 82,0.306175\C,0,-1.670888,-2.91858,-0.293282\H,0,-1.32608,-3.577485,0.

 Normal termination of Gaussian 16 at Wed Apr  9 02:02:26 2025.
