 Gaussian 16, Revision C.01,

 ----------------------------------------------------------------------
 #t hf aug-cc-pvdz symm=none int=(grid=ultrafine) guess=(read,tcheck) s
 table=(opt,rrhf)
 ----------------------------------------------------------------------
 -----
 title
 -----
 Symbolic Z-matrix:
 Charge =  0 Multiplicity = 1

 SCF Done:  E(RHF) =  -700.952646046     A.U. after   13 cycles
 Normal termination of Gaussian 16 at Wed Apr  9 02:11:07 2025.
 Gaussian 16:  ES64L-G16RevC.01  3-Jul-2019

 ----------------------------------------------------------------------
 #t hf aug-cc-pvdz iop(5/13=1,5/36=2,99/5=2) pseudo=read geom=check gue
 ss=(read,tcheck) scf=(maxcycle=1)
 ----------------------------------------------------------------------
 -----
 title
 -----
 Structure from the checkpoint file:  "BH10_93_forward_mol2.chk"
 Charge =  0 Multiplicity = 1

                         Standard orientation:
 ---------------------------------------------------------------------
 Center     Atomic      Atomic             Coordinates (Angstroms)
 Number     Number       Type             X           Y           Z
 ---------------------------------------------------------------------
      1          6           0       -0.556558   -1.288319    0.000196
      2          6           0       -1.763509   -0.742149    0.000110
      3          6           0       -0.556549    1.288319   -0.000198
      4          6           0       -1.763504    0.742156   -0.000116
      5         16           0        0.687295   -0.000004    0.000001
      6          8           0        1.420280    0.000194    1.255715
      7          8           0        1.420284   -0.000193   -1.255710
      8          1           0       -2.683961    1.309866   -0.000203
      9          1           0       -0.256282    2.324321   -0.000353
     10          1           0       -0.256297   -2.324322    0.000352
     11          1           0       -2.683970   -1.309853    0.000194
 ---------------------------------------------------------------------

 SCF Done:  E(RHF) =  -702.568293731     A.U. after    2 cycles

 The electronic state is 1-A.
 Alpha  occ. eigenvalues --  -75.89271 -21.04800 -21.04800 -13.50563 -13.44834
 Alpha  occ. eigenvalues --  -13.33149 -11.51028 -11.48095 -11.45040 -11.42521
 Alpha  occ. eigenvalues --   -8.24338  -1.82862  -1.64377  -1.35196  -1.10910
 Alpha  occ. eigenvalues --   -1.03650  -0.83962  -0.82553  -0.74646  -0.62014
 Alpha  occ. eigenvalues --   -0.58413  -0.56710  -0.54570  -0.53900  -0.42526
 Alpha  occ. eigenvalues --   -0.42522  -0.37986  -0.36297  -0.34831  -0.34402
 Alpha virt. eigenvalues --    0.02322   0.04282   0.04773   0.04858   0.05213
 Alpha virt. eigenvalues --    0.09944   0.11904   0.12441   0.12446   0.12951
 Alpha virt. eigenvalues --    0.13308   0.14557   0.14617   0.14635   0.14826

 Mulliken charges:
               1
     1  C   -2.840650
     2  C   -0.154405
     3  C   -2.840662
     4  C   -0.154430
     5  S    5.643881
     6  O   -2.534364
     7  O   -2.534366
     8  H    1.496407
     9  H    1.211090
    10  H    1.211091
    11  H    1.496407
 Sum of Mulliken charges =   0.00000

 Dipole moment (field-independent basis, Debye):
    X=             -3.2152    Y=             -0.0000    Z=             -0.0000  Tot=              3.2152

 Test job not archived.
 1\1\GINC-SE292\SP\RHF\Aug-CC-pVDZ\C4H4O2S1\OHZDE\09-Apr-2025\0\\#t hf
 aug-cc-pvdz iop(5/13=1,5/36=2,99/5=2) pseudo=read geom=check guess=(re
 ad,tcheck) scf=(maxcycle=1)\\title\\0,1\C,0,0.556558,1.288319,0.000196
 \C,0,1.763509,0.742149,0.00011\C,0,0.556549,-1.288319,-0.000198\C,0,1.
 763504,-0.742156,-0.000116\S,0,-0.687295,0.000004,0.000001\O,0,-1.4202
 8,-0.000194,1.255715\O,0,-1.420284,0.000193,-1.25571\H,0,2.683961,-1.3
 09866,-0.000203\H,0,0.256282,-2.324321,-0.000353\H,0,0.256297,2.324322
 ,0.000352\H,0,2.68397,1.309853,0.000194\\Version=ES64L-G16RevC.01\Stat

 Normal termination of Gaussian 16 at Wed Apr  9 02:11:11 2025.
