 Gaussian 16, Revision C.01,

 ----------------------------------------------------------------------
 #t hf aug-cc-pvdz symm=none int=(grid=ultrafine) guess=(read,tcheck) s
 table=(opt,rrhf)
 ----------------------------------------------------------------------
 -----
 title
 -----
 Symbolic Z-matrix:
 Charge =  0 Multiplicity = 1

 SCF Done:  E(RHF) =  -770.002403057     A.U. after   15 cycles
 Normal termination of Gaussian 16 at Wed Apr  9 00:58:58 2025.
 Gaussian 16:  ES64L-G16RevC.01  3-Jul-2019

 ----------------------------------------------------------------------
 #t hf aug-cc-pvdz iop(5/13=1,5/36=2,99/5=2) pseudo=read geom=check gue
 ss=(read,tcheck) scf=(maxcycle=1)
 ----------------------------------------------------------------------
 -----
 title
 -----
 Structure from the checkpoint file:  "BH10_137_forward_mol2.chk"
 Charge =  0 Multiplicity = 1

                         Standard orientation:
 ---------------------------------------------------------------------
 Center     Atomic      Atomic             Coordinates (Angstroms)
 Number     Number       Type             X           Y           Z
 ---------------------------------------------------------------------
      1         17           0       -2.255519   -1.052391   -0.198672
      2          6           0       -1.251120    0.478745    0.020711
      3          6           0       -1.859217    1.533672   -0.890036
      4          6           0        0.182643    0.172496   -0.407945
      5          6           0       -1.363163    0.885663    1.481295
      6          1           0       -2.393811    1.140267    1.729555
      7          1           0       -0.736607    1.764161    1.659743
      8          1           0       -1.039233    0.089353    2.149467
      9          1           0       -1.804403    1.226982   -1.934985
     10          1           0       -1.308724    2.471355   -0.775125
     11          1           0       -2.904083    1.712735   -0.635586
     12          1           0        0.731474    1.119861   -0.378771
     13          1           0        0.164325   -0.143992   -1.455064
     14          6           0        0.931960   -0.863394    0.419448
     15          1           0        1.027631   -0.529092    1.454825
     16          6           0        2.334402   -1.144084   -0.135554
     17          1           0        0.371326   -1.800202    0.431806
     18          1           0        2.257775   -1.503848   -1.166471
     19          1           0        2.800649   -1.948518    0.439288
     20          6           0        3.211129    0.023077   -0.104855
     21          6           0        3.917612    0.988939   -0.067060
     22          1           0        4.552022    1.840911   -0.037292
 ---------------------------------------------------------------------

 SCF Done:  E(RHF) =  -771.835729022     A.U. after    2 cycles

 The electronic state is 1-A.
 Alpha  occ. eigenvalues --  -99.86100 -11.47421 -11.45914 -11.43459 -11.40772
 Alpha  occ. eigenvalues --  -11.40060 -11.39905 -11.38613 -11.36394 -10.43422
 Alpha  occ. eigenvalues --   -9.63431  -9.62830  -9.62710  -1.37504  -1.24708
 Alpha  occ. eigenvalues --   -1.17240  -1.08444  -1.02609  -1.00248  -0.89112
 Alpha  occ. eigenvalues --   -0.80073  -0.73312  -0.67833  -0.65486  -0.63352
 Alpha  occ. eigenvalues --   -0.61995  -0.59550  -0.57099  -0.56183  -0.53120
 Alpha  occ. eigenvalues --   -0.50990  -0.50498  -0.48560  -0.47800  -0.47065
 Alpha  occ. eigenvalues --   -0.43498  -0.42113  -0.36579  -0.36217
 Alpha virt. eigenvalues --    0.03565   0.04538   0.05181   0.05382   0.05579
 Alpha virt. eigenvalues --    0.05977   0.06489   0.07043   0.07377   0.07462
 Alpha virt. eigenvalues --    0.08515   0.08713   0.09897   0.10464   0.11363

 Mulliken charges:
               1
     1  Cl  -0.243119
     2  C    1.723511
     3  C   -4.572717
     4  C   -2.851008
     5  C   -4.389436
     6  H    1.294176
     7  H    1.227090
     8  H    1.315502
     9  H    1.200629
    10  H    1.294494
    11  H    1.220561
    12  H    1.761003
    13  H    1.548610
    14  C   -2.610947
    15  H    1.647296
    16  C   -4.531076
    17  H    1.367374
    18  H    1.281111
    19  H    1.123701
    20  C    5.048144
    21  C   -4.590632
    22  H    0.735734
 Sum of Mulliken charges =  -0.00000

 Dipole moment (field-independent basis, Debye):
    X=              1.1580    Y=              1.8095    Z=              0.4023  Tot=              2.1856

 Test job not archived.
 1\1\GINC-SE424\SP\RHF\Aug-CC-pVDZ\C8H13Cl1\OHZDE\09-Apr-2025\0\\#t hf
 aug-cc-pvdz iop(5/13=1,5/36=2,99/5=2) pseudo=read geom=check guess=(re
 ad,tcheck) scf=(maxcycle=1)\\title\\0,1\Cl,0,-2.255519,-1.052391,-0.19
 8672\C,0,-1.25112,0.478745,0.020711\C,0,-1.859217,1.533672,-0.890036\C
 ,0,0.182643,0.172496,-0.407945\C,0,-1.363163,0.885663,1.481295\H,0,-2.
 393811,1.140267,1.729555\H,0,-0.736607,1.764161,1.659743\H,0,-1.039233
 ,0.089353,2.149467\H,0,-1.804403,1.226982,-1.934985\H,0,-1.308724,2.47
 1355,-0.775125\H,0,-2.904083,1.712736,-0.635586\H,0,0.731474,1.119861,

 Normal termination of Gaussian 16 at Wed Apr  9 00:59:11 2025.
