 Gaussian 16, Revision C.01,

 ----------------------------------------------------------------------
 #t hf aug-cc-pvdz symm=none int=(grid=ultrafine) guess=(read,tcheck) s
 table=opt
 ----------------------------------------------------------------------
 -----
 title
 -----
 Symbolic Z-matrix:
 Charge =  0 Multiplicity = 2

 SCF Done:  E(UHF) =  -1728.32606648     A.U. after   18 cycles
 Normal termination of Gaussian 16 at Wed Apr  9 02:47:18 2025.
 Gaussian 16:  ES64L-G16RevC.01  3-Jul-2019

 ----------------------------------------------------------------------
 #t hf aug-cc-pvdz iop(5/13=1,5/36=2,99/5=2) pseudo=read geom=check gue
 ss=(read,tcheck) scf=(maxcycle=1)
 ----------------------------------------------------------------------
 -----
 title
 -----
 Structure from the checkpoint file:  "BH10_292_reverse_mol2.chk"
 Charge =  0 Multiplicity = 2

                         Standard orientation:
 ---------------------------------------------------------------------
 Center     Atomic      Atomic             Coordinates (Angstroms)
 Number     Number       Type             X           Y           Z
 ---------------------------------------------------------------------
      1          6           0        0.579734   -0.259093   -2.122271
      2          6           0        1.886670    0.377810   -2.345393
      3         14           0       -0.033037   -0.010184   -0.283218
      4          9           0        2.955712   -0.252921   -1.783635
      5         14           0       -0.497521    2.268984    0.073911
      6         14           0        1.562857   -0.733586    1.287586
      7         14           0       -2.035157   -1.213585    0.010550
      8          6           0       -2.090336    2.763453   -0.807775
      9          1           0       -2.282114    3.833015   -0.682717
     10          1           0       -2.035434    2.561379   -1.880441
     11          1           0       -2.954153    2.224266   -0.413127
     12          6           0       -0.705346    2.590240    1.919694
     13          1           0       -0.993149    3.631218    2.092378
     14          1           0       -1.475905    1.954759    2.360343
     15          1           0        0.224923    2.411320    2.463380
     16          6           0        0.885450    3.382606   -0.562058
     17          1           0        0.703605    4.416421   -0.253921
     18          1           0        1.861111    3.085106   -0.172294
     19          1           0        0.941219    3.373695   -1.652950
     20          6           0        0.697040   -0.931051    2.953113
     21          1           0       -0.065493   -1.712501    2.921902
     22          1           0        1.422057   -1.210057    3.723186
     23          1           0        0.213664   -0.005837    3.273670
     24          6           0        2.313286   -2.390526    0.804380
     25          1           0        2.891765   -2.300861   -0.116725
     26          1           0        2.986102   -2.745038    1.590727
     27          1           0        1.546204   -3.153479    0.653809
     28          6           0        2.941981    0.533666    1.482158
     29          1           0        3.469695    0.684670    0.538797
     30          1           0        2.558369    1.499936    1.817725
     31          1           0        3.670839    0.192487    2.223073
     32          6           0       -1.701164   -3.050330    0.275536
     33          1           0       -1.105781   -3.219785    1.175563
     34          1           0       -2.641926   -3.595735    0.394100
     35          1           0       -1.162896   -3.493752   -0.564434
     36          6           0       -2.963527   -0.566752    1.518967
     37          1           0       -3.869900   -1.156149    1.684891
     38          1           0       -2.356557   -0.629855    2.424474
     39          1           0       -3.266779    0.474632    1.392078
     40          6           0       -3.142321   -1.004053   -1.501834
     41          1           0       -4.081615   -1.548028   -1.366783
     42          1           0       -3.388309    0.046573   -1.670783
     43          1           0       -2.670104   -1.383506   -2.410680
     44          6           0        0.575940   -1.734567   -2.548901
     45          1           0       -0.424093   -2.162140   -2.475621
     46          1           0        0.912426   -1.838172   -3.583474
     47          1           0        1.239846   -2.330199   -1.922071
     48          1           0       -0.138076    0.294029   -2.737836
     49          1           0        2.044608    1.446676   -2.410818
 ---------------------------------------------------------------------

 SCF Done:  E(UHF) =  -1731.78694689     A.U. after    2 cycles

 The electronic state is 2-A.
 Alpha  occ. eigenvalues --  -76.18360 -76.18317 -76.17900 -76.17117 -29.26781
 Alpha  occ. eigenvalues --  -11.46810 -11.41129 -11.36683 -11.35719 -11.35387
 Alpha  occ. eigenvalues --  -11.35187 -11.34882 -11.34868 -11.34734 -11.34544
 Alpha  occ. eigenvalues --  -11.34248 -11.34055  -5.52405  -5.52345  -5.51932
 Alpha  occ. eigenvalues --   -5.51179  -2.16404  -2.16369  -2.16307  -2.16239
 Alpha  occ. eigenvalues --   -2.16169  -2.16031  -2.15945  -2.15844  -2.15761
 Alpha  occ. eigenvalues --   -2.14232  -2.13358  -2.13145  -1.25593  -1.07553
 Alpha  occ. eigenvalues --   -1.07154  -1.06659  -1.05638  -1.01016  -1.00812
 Alpha  occ. eigenvalues --   -1.00703  -1.00585  -1.00199  -1.00081  -0.88416
 Alpha  occ. eigenvalues --   -0.75367  -0.69571  -0.64883  -0.64546  -0.62650
 Alpha  occ. eigenvalues --   -0.61194  -0.58246  -0.57453  -0.57427  -0.56818
 Alpha  occ. eigenvalues --   -0.56591  -0.56263  -0.56019  -0.55794  -0.55534
 Alpha  occ. eigenvalues --   -0.54624  -0.54464  -0.54183  -0.53959  -0.53783
 Alpha  occ. eigenvalues --   -0.53640  -0.53235  -0.53040  -0.52904  -0.52585
 Alpha  occ. eigenvalues --   -0.51926  -0.49629  -0.48436  -0.40033  -0.39640
 Alpha  occ. eigenvalues --   -0.39256  -0.38923  -0.38542  -0.38362  -0.37413
 Alpha  occ. eigenvalues --   -0.33299  -0.28822  -0.28494  -0.25879  -0.17624
 Alpha virt. eigenvalues --    0.03574   0.04582   0.04830   0.04995   0.05148
 Alpha virt. eigenvalues --    0.05248   0.05430   0.05561   0.05829   0.05962
 Alpha virt. eigenvalues --    0.05974   0.06225   0.06471   0.06502   0.06621

  Beta  occ. eigenvalues --  -76.18363 -76.18305 -76.17903 -76.17046 -29.26433
  Beta  occ. eigenvalues --  -11.44967 -11.40757 -11.36600 -11.35715 -11.35387
  Beta  occ. eigenvalues --  -11.35186 -11.34880 -11.34863 -11.34729 -11.34542
  Beta  occ. eigenvalues --  -11.34248 -11.34055  -5.52407  -5.52329  -5.51937
  Beta  occ. eigenvalues --   -5.51066  -2.16396  -2.16347  -2.16282  -2.16234
  Beta  occ. eigenvalues --   -2.16146  -2.15984  -2.15842  -2.15828  -2.15599
  Beta  occ. eigenvalues --   -2.14118  -2.13308  -2.13086  -1.22330  -1.07526
  Beta  occ. eigenvalues --   -1.07109  -1.06655  -1.02326  -1.01008  -1.00796
  Beta  occ. eigenvalues --   -1.00688  -1.00581  -1.00195  -1.00061  -0.87571
  Beta  occ. eigenvalues --   -0.74841  -0.68189  -0.64831  -0.64483  -0.61520
  Beta  occ. eigenvalues --   -0.59905  -0.57996  -0.57442  -0.57397  -0.56795
  Beta  occ. eigenvalues --   -0.56382  -0.56179  -0.56006  -0.55647  -0.55456
  Beta  occ. eigenvalues --   -0.54606  -0.54360  -0.54112  -0.53919  -0.53769
  Beta  occ. eigenvalues --   -0.53486  -0.53122  -0.52911  -0.52744  -0.52485
  Beta  occ. eigenvalues --   -0.50736  -0.48861  -0.41030  -0.39649  -0.39263
  Beta  occ. eigenvalues --   -0.38897  -0.38775  -0.38421  -0.38316  -0.36481
  Beta  occ. eigenvalues --   -0.31077  -0.28683  -0.28125  -0.25831
  Beta virt. eigenvalues --    0.03581   0.04583   0.04812   0.04910   0.05118
  Beta virt. eigenvalues --    0.05226   0.05422   0.05567   0.05831   0.05937
  Beta virt. eigenvalues --    0.05978   0.06214   0.06442   0.06492   0.06593

 Mulliken charges and spin densities:
               1          2
     1  C   -2.988598  -0.721046
     2  C   -2.483613   1.636266
     3  Si   3.689757  -0.144986
     4  F   -0.176339   0.084218
     5  Si  10.202874   0.013334
     6  Si  10.852616  -0.024481
     7  Si  10.205943   0.092250
     8  C   -6.925155  -0.000484
     9  H    1.091043  -0.000089
    10  H    1.192405   0.000944
    11  H    1.169486   0.001096
    12  C   -6.899026   0.003217
    13  H    0.968858  -0.000412
    14  H    1.485357   0.000859
    15  H    1.196838   0.003002
    16  C   -6.918241   0.010117
    17  H    0.980472   0.002169
    18  H    1.242591   0.009743
    19  H    1.111021  -0.001309
    20  C   -6.980784   0.004608
    21  H    1.161357   0.004159
    22  H    0.900202  -0.000145
    23  H    1.475126   0.003773
    24  C   -7.013002   0.007693
    25  H    1.130113  -0.000652
    26  H    0.960390  -0.001219
    27  H    1.284921   0.001915
    28  C   -6.764156   0.006629
    29  H    1.087373   0.002458
    30  H    1.156440   0.001175
    31  H    1.058139  -0.000253
    32  C   -6.917919  -0.006324
    33  H    1.139391   0.001907
    34  H    1.062981   0.002195
    35  H    1.274816  -0.000037
    36  C   -6.962517   0.010920
    37  H    0.880520   0.006112
    38  H    1.439404  -0.000244
    39  H    1.184555  -0.005597
    40  C   -7.081136  -0.009224
    41  H    0.955128  -0.000315
    42  H    1.250571   0.000391
    43  H    1.134726   0.003465
    44  C   -5.637147   0.075088
    45  H    1.454538   0.003815
    46  H    1.248964   0.000744
    47  H    1.473750  -0.003000
    48  H    1.511182  -0.005150
    49  H    2.133786  -0.069293
 Sum of Mulliken charges =  -0.00000   1.00000

 Dipole moment (field-independent basis, Debye):
    X=              1.3208    Y=             -0.5578    Z=              0.4307  Tot=              1.4970
                          Isotropic Fermi Contact Couplings
        Atom                 a.u.       MegaHertz       Gauss      10(-4) cm-1
     1  C(13)             -0.02947     -33.13181     -11.82225     -11.05158
     2  C(13)              0.16568     186.25747      66.46130      62.12881
     3  Si(29)             0.05818     -51.70993     -18.45139     -17.24858
     4  F(19)              0.02632     110.72362      39.50894      36.93343
     5  Si(29)            -0.00251       2.22649       0.79447       0.74268
     6  Si(29)            -0.00170       1.50825       0.53818       0.50310
     7  Si(29)             0.01098      -9.76195      -3.48331      -3.25624
     8  C(13)              0.00004       0.04696       0.01676       0.01566

 1\1\GINC-SE331\SP\UHF\Aug-CC-pVDZ\C12H32F1Si4(2)\OHZDE\09-Apr-2025\0\\
 #t hf aug-cc-pvdz iop(5/13=1,5/36=2,99/5=2) pseudo=read geom=check gue
 ss=(read,tcheck) scf=(maxcycle=1)\\title\\0,2\C,0,0.579734,-0.259093,-
 2.122271\C,0,1.88667,0.377812,-2.345393\Si,0,-0.033037,-0.010184,-0.28
 3218\F,0,2.955712,-0.252919,-1.783635\Si,0,-0.497523,2.268983,0.073911
 \Si,0,1.562858,-0.733585,1.287586\Si,0,-2.035156,-1.213587,0.01055\C,0
 ,-2.090338,2.763451,-0.807775\H,0,-2.282117,3.833013,-0.682717\H,0,-2.
 035436,2.561377,-1.880441\H,0,-2.954155,2.224263,-0.413127\C,0,-0.7053

 Normal termination of Gaussian 16 at Wed Apr  9 02:49:52 2025.
