 Gaussian 16, Revision C.01,

 ----------------------------------------------------------------------
 #t hf aug-cc-pvdz symm=none int=(grid=ultrafine) guess=(read,tcheck) s
 table=(opt,rrhf)
 ----------------------------------------------------------------------
 -----
 title
 -----
 Symbolic Z-matrix:
 Charge =  0 Multiplicity = 1

 SCF Done:  E(RHF) =  -1000.85867430     A.U. after   18 cycles
 Normal termination of Gaussian 16 at Wed Apr  9 02:35:34 2025.
 Gaussian 16:  ES64L-G16RevC.01  3-Jul-2019

 ----------------------------------------------------------------------
 #t hf aug-cc-pvdz iop(5/13=1,5/36=2,99/5=2) pseudo=read geom=check gue
 ss=(read,tcheck) scf=(maxcycle=1)
 ----------------------------------------------------------------------
 -----
 title
 -----
 Structure from the checkpoint file:  "BH10_84_forward_mol1.chk"
 Charge =  0 Multiplicity = 1

                         Standard orientation:
 ---------------------------------------------------------------------
 Center     Atomic      Atomic             Coordinates (Angstroms)
 Number     Number       Type             X           Y           Z
 ---------------------------------------------------------------------
      1          6           0       -0.186078   -0.901891   -0.996871
      2          6           0        2.107901   -0.675559   -0.131856
      3          6           0       -0.725170   -0.016367   -0.079293
      4          1           0       -0.408305   -0.140911    0.945642
      5          6           0        2.040664    0.772563    0.033454
      6          6           0        1.109034   -1.372213   -0.810246
      7          6           0        3.367620    1.507312    0.024764
      8          1           0        1.433700   -2.278536   -1.313285
      9          1           0       -0.729290   -1.168074   -1.896370
     10          6           0        0.844279    2.847550   -0.032773
     11          6           0        3.385842   -1.393687    0.008300
     12          6           0       -1.993397    0.726438   -0.263512
     13          1           0       -1.967086    1.584779    0.418772
     14          6           0       -2.230000    1.221034   -1.693127
     15          1           0       -1.372129    1.794645   -2.052628
     16          1           0       -2.381034    0.395818   -2.391331
     17          1           0       -3.112218    1.861603   -1.747759
     18          7           0        0.923706    1.409540    0.112774
     19         14           0       -3.456440   -0.322781    0.397448
     20          6           0       -4.974351    0.781617    0.443859
     21          6           0       -3.761662   -1.785562   -0.732866
     22          6           0       -3.044607   -0.915284    2.128220
     23          1           0       -4.026528   -1.469106   -1.744418
     24          1           0       -4.586225   -2.395112   -0.354072
     25          1           0       -2.878414   -2.424182   -0.798900
     26          1           0       -5.254273    1.128092   -0.553521
     27          1           0       -4.808565    1.661807    1.070306
     28          1           0       -5.830774    0.240862    0.855030
     29          1           0       -0.202464    3.121133   -0.175502
     30          1           0        1.414489    3.238144   -0.882227
     31          1           0        1.187342    3.355391    0.874609
     32          1           0       -2.787417   -0.081933    2.787274
     33          1           0       -2.202178   -1.610510    2.122825
     34          1           0       -3.897816   -1.434473    2.572198
     35          6           0        4.650933   -0.614839    0.308030
     36          6           0        4.395615    0.770110    0.875005
     37          8           0        3.455483   -2.602292   -0.137420
     38          1           0        3.729398    1.585713   -1.007269
     39          1           0        3.234104    2.522910    0.394428
     40          1           0        4.023524    0.693335    1.901604
     41          1           0        5.324160    1.343619    0.917336
     42          1           0        5.271519   -1.228973    0.961614
     43          1           0        5.187090   -0.532880   -0.645185
 ---------------------------------------------------------------------

 SCF Done:  E(RHF) =  -1004.53151205     A.U. after    2 cycles

 The electronic state is 1-A.
 Alpha  occ. eigenvalues --  -76.19057 -21.00708 -15.71004 -11.51039 -11.50447
 Alpha  occ. eigenvalues --  -11.48631 -11.45386 -11.44488 -11.42606 -11.41289
 Alpha  occ. eigenvalues --  -11.40060 -11.39671 -11.38847 -11.37258 -11.35874
 Alpha  occ. eigenvalues --  -11.35409 -11.35290 -11.34845  -5.53336  -2.17717
 Alpha  occ. eigenvalues --   -2.17293  -2.17168  -1.67788  -1.42279  -1.26930
 Alpha  occ. eigenvalues --   -1.24994  -1.17247  -1.08177  -1.06957  -1.05577
 Alpha  occ. eigenvalues --   -1.01641  -1.01438  -1.00292  -0.95240  -0.89643
 Alpha  occ. eigenvalues --   -0.84797  -0.78817  -0.76512  -0.68571  -0.67517
 Alpha  occ. eigenvalues --   -0.66789  -0.65506  -0.62130  -0.61058  -0.59766
 Alpha  occ. eigenvalues --   -0.59561  -0.58761  -0.57150  -0.56997  -0.56819
 Alpha  occ. eigenvalues --   -0.55853  -0.55384  -0.54507  -0.54275  -0.54058
 Alpha  occ. eigenvalues --   -0.53759  -0.52581  -0.50867  -0.49555  -0.47873
 Alpha  occ. eigenvalues --   -0.46903  -0.46082  -0.45491  -0.41733  -0.41111
 Alpha  occ. eigenvalues --   -0.39389  -0.39304  -0.38553  -0.35137  -0.31266
 Alpha  occ. eigenvalues --   -0.25417  -0.24019
 Alpha virt. eigenvalues --    0.03070   0.04235   0.04388   0.04499   0.04755
 Alpha virt. eigenvalues --    0.04822   0.05322   0.05705   0.05838   0.06006
 Alpha virt. eigenvalues --    0.06307   0.06759   0.07217   0.07260   0.07609

 Mulliken charges:
               1
     1  C   -1.708060
     2  C    0.787431
     3  C   -1.959393
     4  H    2.035314
     5  C    8.055997
     6  C   -1.365813
     7  C   -5.168874
     8  H    1.700620
     9  H    2.085772
    10  C   -4.520122
    11  C    5.056989
    12  C   -3.647550
    13  H    1.288366
    14  C   -5.936375
    15  H    1.538989
    16  H    1.447809
    17  H    1.287465
    18  N   -4.712127
    19  Si  13.531538
    20  C   -6.354445
    21  C   -6.511176
    22  C   -6.557794
    23  H    1.000186
    24  H    0.989705
    25  H    0.994136
    26  H    1.051496
    27  H    0.913149
    28  H    1.116790
    29  H    1.878873
    30  H    1.487363
    31  H    1.546714
    32  H    0.884944
    33  H    1.125695
    34  H    1.021215
    35  C   -4.444463
    36  C   -3.964469
    37  O   -4.220638
    38  H    1.344133
    39  H    1.471077
    40  H    1.540400
    41  H    1.294436
    42  H    1.326069
    43  H    1.268625
 Sum of Mulliken charges =  -0.00000

 Dipole moment (field-independent basis, Debye):
    X=             -2.4157    Y=              3.3767    Z=              0.2611  Tot=              4.1600

 Test job not archived.
 1\1\GINC-SE460\SP\RHF\Aug-CC-pVDZ\C15H25N1O1Si1\OHZDE\09-Apr-2025\0\\#
 t hf aug-cc-pvdz iop(5/13=1,5/36=2,99/5=2) pseudo=read geom=check gues
 s=(read,tcheck) scf=(maxcycle=1)\\title\\0,1\C,0,-0.186078,-0.901891,-
 0.996871\C,0,2.107901,-0.675559,-0.131856\C,0,-0.72517,-0.016367,-0.07
 9293\H,0,-0.408305,-0.140911,0.945642\C,0,2.040664,0.772563,0.033454\C
 ,0,1.109034,-1.372213,-0.810246\C,0,3.36762,1.507312,0.024764\H,0,1.43
 37,-2.278536,-1.313285\H,0,-0.72929,-1.168074,-1.89637\C,0,0.844279,2.
 84755,-0.032773\C,0,3.385842,-1.393687,0.0083\C,0,-1.993397,0.726438,-

 Normal termination of Gaussian 16 at Wed Apr  9 02:37:01 2025.
