 Gaussian 16, Revision C.01,

 ----------------------------------------------------------------------
 #t hf aug-cc-pvdz symm=none int=(grid=ultrafine) guess=(read,tcheck) s
 table=(opt,rrhf)
 ----------------------------------------------------------------------
 -----
 title
 -----
 Symbolic Z-matrix:
 Charge =  0 Multiplicity = 1

 SCF Done:  E(RHF) =  -693.164090879     A.U. after   12 cycles
 Normal termination of Gaussian 16 at Wed Apr  9 01:25:31 2025.
 Gaussian 16:  ES64L-G16RevC.01  3-Jul-2019

 ----------------------------------------------------------------------
 #t hf aug-cc-pvdz iop(5/13=1,5/36=2,99/5=2) pseudo=read geom=check gue
 ss=(read,tcheck) scf=(maxcycle=1)
 ----------------------------------------------------------------------
 -----
 title
 -----
 Structure from the checkpoint file:  "BH10_305_reverse_mol3.chk"
 Charge =  0 Multiplicity = 1

                         Standard orientation:
 ---------------------------------------------------------------------
 Center     Atomic      Atomic             Coordinates (Angstroms)
 Number     Number       Type             X           Y           Z
 ---------------------------------------------------------------------
      1          6           0       -0.502912    0.507249    0.000000
      2          6           0        0.161190   -0.020589    1.260541
      3         17           0       -0.479661    2.322932    0.000000
      4          6           0        0.161190   -0.020589   -1.260541
      5          6           0        0.161190   -1.551374    1.259575
      6          6           0        0.821970   -2.108825   -0.000000
      7          6           0        0.161190   -1.551374   -1.259575
      8          1           0       -0.352609    0.367329    2.142024
      9          1           0        1.190039    0.351466    1.296694
     10          1           0        1.190039    0.351466   -1.296694
     11          1           0       -0.352609    0.367329   -2.142024
     12          1           0       -0.871203   -1.915200    1.318859
     13          1           0        0.670738   -1.916679    2.154391
     14          1           0        0.775953   -3.200735   -0.000000
     15          1           0        1.884249   -1.838633   -0.000000
     16          1           0       -0.871203   -1.915200   -1.318859
     17          1           0        0.670738   -1.916679   -2.154391
     18          1           0       -1.562808    0.248707    0.000000
 ---------------------------------------------------------------------

 SCF Done:  E(RHF) =  -694.615461287     A.U. after    2 cycles

 The electronic state is 1-A'.
 Alpha  occ. eigenvalues --  -99.86405 -11.46649 -11.44352 -11.42942 -11.39095
 Alpha  occ. eigenvalues --  -11.38284 -11.34994 -10.43706  -9.63732  -9.62962
 Alpha  occ. eigenvalues --   -9.62856  -1.37835  -1.25291  -1.11659  -1.08981
 Alpha  occ. eigenvalues --   -0.89876  -0.88327  -0.79946  -0.67965  -0.64293
 Alpha  occ. eigenvalues --   -0.62682  -0.62473  -0.55110  -0.54821  -0.53608
 Alpha  occ. eigenvalues --   -0.51850  -0.48171  -0.46057  -0.45530  -0.45064
 Alpha  occ. eigenvalues --   -0.40951  -0.39885
 Alpha virt. eigenvalues --    0.03837   0.05222   0.05315   0.05338   0.05491
 Alpha virt. eigenvalues --    0.05653   0.06024   0.06555   0.07169   0.08724
 Alpha virt. eigenvalues --    0.08956   0.09275   0.12387   0.13131   0.13275

 Mulliken charges:
               1
     1  C   -2.361933
     2  C   -2.533082
     3  Cl  -0.140511
     4  C   -2.533082
     5  C   -2.676472
     6  C   -2.582680
     7  C   -2.676472
     8  H    1.450458
     9  H    1.406146
    10  H    1.406146
    11  H    1.450458
    12  H    1.372747
    13  H    1.296530
    14  H    1.277983
    15  H    1.404899
    16  H    1.372747
    17  H    1.296530
    18  H    1.769590
 Sum of Mulliken charges =  -0.00000

 Dipole moment (field-independent basis, Debye):
    X=              0.2843    Y=             -3.0671    Z=              0.0000  Tot=              3.0803

 Test job not archived.
 1\1\GINC-SE368\SP\RHF\Aug-CC-pVDZ\C6H11Cl1\OHZDE\09-Apr-2025\0\\#t hf
 aug-cc-pvdz iop(5/13=1,5/36=2,99/5=2) pseudo=read geom=check guess=(re
 ad,tcheck) scf=(maxcycle=1)\\title\\0,1\C,0,-0.60927,0.,0.372843\C,0,0
 .057091,1.260541,-0.152141\Cl,0,-2.370987,0.,-0.067158\C,0,0.057091,-1
 .260541,-0.152141\C,0,1.546883,1.259575,0.199742\C,0,2.2413,0.,-0.3152
 01\C,0,1.546883,-1.259575,0.199742\H,0,-0.438547,2.142024,0.258728\H,0
 ,-0.068499,1.296694,-1.238963\H,0,-0.068499,-1.296694,-1.238963\H,0,-0
 .438547,-2.142024,0.258728\H,0,1.663649,1.318859,1.288122\H,0,2.019536

 Normal termination of Gaussian 16 at Wed Apr  9 01:25:35 2025.
