 Gaussian 16, Revision C.01,

 ----------------------------------------------------------------------
 #t hf aug-cc-pvdz symm=none int=(grid=ultrafine) guess=(read,tcheck) s
 table=(opt,rrhf)
 ----------------------------------------------------------------------
 -----
 title
 -----
 Symbolic Z-matrix:
 Charge =  0 Multiplicity = 1

 SCF Done:  E(RHF) =  -551.328546707     A.U. after   13 cycles
 Normal termination of Gaussian 16 at Wed Apr  9 01:07:05 2025.
 Gaussian 16:  ES64L-G16RevC.01  3-Jul-2019

 ----------------------------------------------------------------------
 #t hf aug-cc-pvdz iop(5/13=1,5/36=2,99/5=2) pseudo=read geom=check gue
 ss=(read,tcheck) scf=(maxcycle=1)
 ----------------------------------------------------------------------
 -----
 title
 -----
 Structure from the checkpoint file:  "BH10_276_forward_mol2.chk"
 Charge =  0 Multiplicity = 1

                         Standard orientation:
 ---------------------------------------------------------------------
 Center     Atomic      Atomic             Coordinates (Angstroms)
 Number     Number       Type             X           Y           Z
 ---------------------------------------------------------------------
      1          6           0        0.009810   -1.233927    0.000056
      2          6           0        1.264980   -0.712711    0.000056
      3          6           0        1.264980    0.712711    0.000002
      4          6           0        0.009810    1.233927   -0.000061
      5          1           0        2.160727    1.317889   -0.000002
      6          1           0        2.160727   -1.317889    0.000102
      7          1           0       -0.280932   -2.272534    0.000097
      8         16           0       -1.191067   -0.000000   -0.000025
      9          1           0       -0.280934    2.272534   -0.000118
 ---------------------------------------------------------------------

 SCF Done:  E(RHF) =  -552.299354285     A.U. after    2 cycles

 The electronic state is 1-A.
 Alpha  occ. eigenvalues --  -75.70854 -13.14978 -13.14479 -13.02448 -11.46570
 Alpha  occ. eigenvalues --  -11.42614 -11.41064 -11.37086  -8.05454  -1.36791
 Alpha  occ. eigenvalues --   -1.07913  -1.04764  -0.80643  -0.77218  -0.71251
 Alpha  occ. eigenvalues --   -0.56196  -0.50631  -0.50300  -0.45767  -0.38475
 Alpha  occ. eigenvalues --   -0.32328  -0.26448
 Alpha virt. eigenvalues --    0.03230   0.04477   0.05677   0.05800   0.07696
 Alpha virt. eigenvalues --    0.11501   0.11745   0.12828   0.13946   0.14213
 Alpha virt. eigenvalues --    0.14610   0.14990   0.15169   0.15570   0.15785

 Mulliken charges:
               1
     1  C   -3.132436
     2  C   -0.386576
     3  C   -0.386573
     4  C   -3.132438
     5  H    1.416970
     6  H    1.416970
     7  H    1.204329
     8  S    1.795423
     9  H    1.204329
 Sum of Mulliken charges =   0.00000

 Dipole moment (field-independent basis, Debye):
    X=             -1.7414    Y=             -0.0000    Z=             -0.0000  Tot=              1.7414

 Test job not archived.
 1\1\GINC-SE159\SP\RHF\Aug-CC-pVDZ\C4H4S1\OHZDE\09-Apr-2025\0\\#t hf au
 g-cc-pvdz iop(5/13=1,5/36=2,99/5=2) pseudo=read geom=check guess=(read
 ,tcheck) scf=(maxcycle=1)\\title\\0,1\C,0,0.00981,-1.233927,0.000056\C
 ,0,1.26498,-0.712711,0.000056\C,0,1.26498,0.712711,0.000002\C,0,0.0098
 1,1.233927,-0.000061\H,0,2.160727,1.317889,-0.000002\H,0,2.160727,-1.3
 17889,0.000102\H,0,-0.280933,-2.272534,0.000097\S,0,-1.191067,0.,-0.00
 0025\H,0,-0.280934,2.272534,-0.000118\\Version=ES64L-G16RevC.01\State=
 1-A\HF=-552.2993543\RMSD=1.531e+00\Dipole=-0.6851033,0.,-0.0000094\Qua

 Normal termination of Gaussian 16 at Wed Apr  9 01:07:09 2025.
