 Gaussian 16, Revision C.01,

 ----------------------------------------------------------------------
 #t hf aug-cc-pvdz symm=none int=(grid=ultrafine) guess=(read,tcheck) s
 table=opt
 ----------------------------------------------------------------------
 -----
 title
 -----
 Symbolic Z-matrix:
 Charge =  0 Multiplicity = 2

 SCF Done:  E(UHF) =  -780.862646636     A.U. after   17 cycles
 Normal termination of Gaussian 16 at Wed Apr  9 01:00:33 2025.
 Gaussian 16:  ES64L-G16RevC.01  3-Jul-2019

 ----------------------------------------------------------------------
 #t hf aug-cc-pvdz iop(5/13=1,5/36=2,99/5=2) pseudo=read geom=check gue
 ss=(read,tcheck) scf=(maxcycle=1)
 ----------------------------------------------------------------------
 -----
 title
 -----
 Structure from the checkpoint file:  "BH10_158_reverse_mol2.chk"
 Charge =  0 Multiplicity = 2

                         Standard orientation:
 ---------------------------------------------------------------------
 Center     Atomic      Atomic             Coordinates (Angstroms)
 Number     Number       Type             X           Y           Z
 ---------------------------------------------------------------------
      1          6           0       -0.185423    1.540666   -0.169841
      2          1           0        0.355422    2.369660    0.310915
      3          6           0       -2.512563    0.440119   -0.183571
      4          1           0       -3.502096    0.552602    0.260850
      5          1           0       -0.372058    1.842073   -1.203551
      6          1           0       -2.590591    0.754040   -1.226241
      7          6           0       -1.509532    1.314481    0.562856
      8          1           0       -1.972907    2.294662    0.712171
      9          1           0       -1.319429    0.899100    1.555009
     10          6           0        0.722365    0.359802   -0.200432
     11          6           0        2.713505   -0.550583   -0.625847
     12          6           0        2.476573   -0.607460    0.880962
     13          1           0        2.463217   -1.497305   -1.113362
     14          1           0        3.718497   -0.243185   -0.906091
     15          1           0        2.538987   -1.615086    1.291027
     16          1           0        3.146295    0.055655    1.432968
     17         16           0       -2.204407   -1.360619   -0.122152
     18          8           0        1.798693    0.457233   -1.045097
     19          8           0        1.139017   -0.123101    1.020142
     20          1           0       -0.926052   -1.297517   -0.544381
 ---------------------------------------------------------------------

 SCF Done:  E(UHF) =  -782.835616561     A.U. after    2 cycles

 The electronic state is 2-A.
 Alpha  occ. eigenvalues --  -75.66953 -21.07351 -21.06774 -13.11321 -13.08849
 Alpha  occ. eigenvalues --  -13.01356 -11.49416 -11.47109 -11.43594 -11.41810
 Alpha  occ. eigenvalues --  -11.40169 -11.36760  -8.00856  -1.88819  -1.68707
 Alpha  occ. eigenvalues --   -1.26172  -1.15540  -1.08835  -0.98219  -0.89390
 Alpha  occ. eigenvalues --   -0.85666  -0.79534  -0.70833  -0.69835  -0.65279
 Alpha  occ. eigenvalues --   -0.60714  -0.59285  -0.57252  -0.56696  -0.51432
 Alpha  occ. eigenvalues --   -0.49526  -0.49036  -0.47259  -0.43770  -0.41822
 Alpha  occ. eigenvalues --   -0.38588  -0.36918  -0.33044  -0.22658  -0.21021
 Alpha virt. eigenvalues --    0.03735   0.04170   0.04877   0.04960   0.05171
 Alpha virt. eigenvalues --    0.06086   0.06474   0.06727   0.06841   0.07871
 Alpha virt. eigenvalues --    0.08566   0.10221   0.11696   0.12381   0.12828

  Beta  occ. eigenvalues --  -75.66914 -21.06948 -21.06306 -13.11198 -13.08708
  Beta  occ. eigenvalues --  -13.01333 -11.48710 -11.46243 -11.43365 -11.41772
  Beta  occ. eigenvalues --  -11.39856 -11.36575  -8.00813  -1.87392  -1.67680
  Beta  occ. eigenvalues --   -1.25731  -1.14403  -1.08584  -0.97465  -0.89200
  Beta  occ. eigenvalues --   -0.84706  -0.75925  -0.69932  -0.68839  -0.63939
  Beta  occ. eigenvalues --   -0.60497  -0.58788  -0.56665  -0.53652  -0.49879
  Beta  occ. eigenvalues --   -0.48617  -0.47452  -0.45244  -0.43265  -0.40049
  Beta  occ. eigenvalues --   -0.37834  -0.36656  -0.30857  -0.22429
  Beta virt. eigenvalues --    0.03337   0.04168   0.04798   0.04962   0.05160
  Beta virt. eigenvalues --    0.06019   0.06460   0.06727   0.06757   0.07865
  Beta virt. eigenvalues --    0.08545   0.10181   0.11497   0.11987   0.12489

 Mulliken charges and spin densities:
               1          2
     1  C   -3.586871  -0.314709
     2  H    1.308879   0.040491
     3  C   -4.065561  -0.010807
     4  H    1.421423  -0.000653
     5  H    1.554371  -0.007697
     6  H    1.497721  -0.001456
     7  C   -2.206151  -0.004748
     8  H    1.242151  -0.000241
     9  H    1.537998  -0.005621
    10  C    5.883892   1.182059
    11  C   -2.392177   0.008391
    12  C   -1.581260  -0.029980
    13  H    1.493981  -0.012700
    14  H    1.369352   0.000562
    15  H    1.453356  -0.008152
    16  H    1.470100   0.016706
    17  S   -0.452280   0.032885
    18  O   -3.508891   0.055486
    19  O   -3.451154   0.089091
    20  H    1.011122  -0.028906
 Sum of Mulliken charges =   0.00000   1.00000

 Dipole moment (field-independent basis, Debye):
    X=              0.6813    Y=             -0.0257    Z=              0.7085  Tot=              0.9833
                          Isotropic Fermi Contact Couplings
        Atom                 a.u.       MegaHertz       Gauss      10(-4) cm-1
     1  C(13)              0.01628      18.30429       6.53142       6.10565
     2  H(1)               0.01204      53.81484      19.20247      17.95070
     3  C(13)             -0.00044      -0.49841      -0.17784      -0.16625
     4  H(1)               0.00012       0.52704       0.18806       0.17580
     5  H(1)               0.00130       5.80224       2.07038       1.93542
     6  H(1)               0.00003       0.11281       0.04025       0.03763
     7  C(13)              0.00538       6.04451       2.15683       2.01623
     8  H(1)              -0.00069      -3.06369      -1.09320      -1.02194

 Normal termination of Gaussian 16 at Wed Apr  9 01:00:44 2025.
