 Gaussian 16, Revision C.01,

 ----------------------------------------------------------------------
 #t hf aug-cc-pvdz symm=none int=(grid=ultrafine) guess=(read,tcheck) s
 table=(opt,rrhf)
 ----------------------------------------------------------------------
 -----
 title
 -----
 Symbolic Z-matrix:
 Charge =  0 Multiplicity = 1

 SCF Done:  E(RHF) =  -1749.92548691     A.U. after   16 cycles
 Normal termination of Gaussian 16 at Wed Apr  9 01:12:07 2025.
 Gaussian 16:  ES64L-G16RevC.01  3-Jul-2019

 ----------------------------------------------------------------------
 #t hf aug-cc-pvdz iop(5/13=1,5/36=2,99/5=2) pseudo=read geom=check gue
 ss=(read,tcheck) scf=(maxcycle=1)
 ----------------------------------------------------------------------
 -----
 title
 -----
 Structure from the checkpoint file:  "BH10_277_forward_mol1.chk"
 Charge =  0 Multiplicity = 1

                         Standard orientation:
 ---------------------------------------------------------------------
 Center     Atomic      Atomic             Coordinates (Angstroms)
 Number     Number       Type             X           Y           Z
 ---------------------------------------------------------------------
      1          6           0       -3.379036    1.443455   -0.355572
      2          6           0       -2.208331    0.717348   -0.484397
      3          6           0       -2.168254   -0.622335   -0.093495
      4          6           0       -3.313915   -1.211878    0.435420
      5          6           0       -4.488861   -0.484025    0.555869
      6          6           0       -4.522990    0.844427    0.160599
      7          1           0       -3.399241    2.483728   -0.655453
      8          1           0       -1.320287    1.204618   -0.870725
      9          1           0       -3.286833   -2.249252    0.749288
     10          1           0       -5.374834   -0.954660    0.963432
     11          1           0       -5.436795    1.417200    0.259340
     12          6           0       -0.958127   -1.449403   -0.241622
     13          6           0        0.144624   -1.138828   -1.075207
     14          6           0        0.525038   -0.783440    0.405319
     15          1           0       -1.040973   -2.464953    0.124215
     16          1           0        0.096158   -0.273703   -1.722673
     17          1           0        0.773994   -1.940261   -1.438401
     18          1           0        0.074897    0.054542    0.916919
     19          1           0        0.890633   -1.578797    1.038969
     20          5           0        2.123351    0.136040    0.119655
     21         17           0        2.654863    0.475824    1.830402
     22         17           0        1.710213    1.659005   -0.811531
     23         17           0        3.259961   -0.974275   -0.772087
 ---------------------------------------------------------------------

 SCF Done:  E(RHF) =  -1752.50019414     A.U. after    2 cycles

 The electronic state is 1-A.
 Alpha  occ. eigenvalues --  -99.85923 -99.85756 -99.85463 -11.55592 -11.53304
 Alpha  occ. eigenvalues --  -11.48973 -11.46787 -11.46497 -11.44099 -11.43619
 Alpha  occ. eigenvalues --  -11.42133 -11.39491 -10.43357 -10.43126 -10.42649
 Alpha  occ. eigenvalues --   -9.63296  -9.63077  -9.62959  -9.62816  -9.62750
 Alpha  occ. eigenvalues --   -9.62663  -9.62569  -9.62316  -9.62242  -7.72422
 Alpha  occ. eigenvalues --   -1.43570  -1.37321  -1.30731  -1.25943  -1.25533
 Alpha  occ. eigenvalues --   -1.13535  -1.12308  -0.98420  -0.94145  -0.89620
 Alpha  occ. eigenvalues --   -0.85486  -0.78214  -0.75768  -0.72670  -0.67564
 Alpha  occ. eigenvalues --   -0.65712  -0.62679  -0.62309  -0.61012  -0.59061
 Alpha  occ. eigenvalues --   -0.56965  -0.56787  -0.56665  -0.54664  -0.52231
 Alpha  occ. eigenvalues --   -0.50486  -0.49044  -0.47814  -0.47272  -0.46471
 Alpha  occ. eigenvalues --   -0.45588  -0.44858  -0.42866  -0.35920  -0.33516
 Alpha virt. eigenvalues --    0.02177   0.03575   0.03934   0.04665   0.05017
 Alpha virt. eigenvalues --    0.05381   0.05475   0.06282   0.06390   0.06578
 Alpha virt. eigenvalues --    0.06950   0.08747   0.09375   0.10040   0.10430

 Mulliken charges:
               1
     1  C   -2.828557
     2  C   -0.572819
     3  C    5.742366
     4  C   -3.269765
     5  C   -2.050642
     6  C   -3.555070
     7  H    1.451289
     8  H    2.210673
     9  H    1.767913
    10  H    1.490278
    11  H    1.555114
    12  C   -3.898514
    13  C   -2.155739
    14  C   -2.747896
    15  H    1.356821
    16  H    1.558022
    17  H    1.110502
    18  H    1.937155
    19  H    1.068960
    20  B    3.475907
    21  Cl  -1.204568
    22  Cl  -1.148310
    23  Cl  -1.293120
 Sum of Mulliken charges =  -0.00000

 Dipole moment (field-independent basis, Debye):
    X=             -8.0745    Y=             -3.1022    Z=             -0.6372  Tot=              8.6734

 Test job not archived.
 1\1\GINC-SE461\SP\RHF\Aug-CC-pVDZ\C9H10B1Cl3\OHZDE\09-Apr-2025\0\\#t h
 f aug-cc-pvdz iop(5/13=1,5/36=2,99/5=2) pseudo=read geom=check guess=(
 read,tcheck) scf=(maxcycle=1)\\title\\0,1\C,0,-3.379036,1.443455,-0.35
 5572\C,0,-2.208331,0.717348,-0.484397\C,0,-2.168254,-0.622335,-0.09349
 5\C,0,-3.313915,-1.211878,0.43542\C,0,-4.488861,-0.484025,0.555869\C,0
 ,-4.52299,0.844427,0.160599\H,0,-3.399241,2.483728,-0.655453\H,0,-1.32
 0287,1.204618,-0.870725\H,0,-3.286833,-2.249252,0.749288\H,0,-5.374834
 ,-0.95466,0.963432\H,0,-5.436795,1.4172,0.25934\C,0,-0.958127,-1.44940

 Normal termination of Gaussian 16 at Wed Apr  9 01:12:27 2025.
