 Gaussian 16, Revision C.01,

 ----------------------------------------------------------------------
 #t hf aug-cc-pvdz symm=none int=(grid=ultrafine) guess=(read,tcheck) s
 table=(opt,rrhf)
 ----------------------------------------------------------------------
 -----
 title
 -----
 Symbolic Z-matrix:
 Charge =  0 Multiplicity = 1

 SCF Done:  E(RHF) =  -1155.61047624     A.U. after   15 cycles
 Normal termination of Gaussian 16 at Wed Apr  9 02:09:29 2025.
 Gaussian 16:  ES64L-G16RevC.01  3-Jul-2019

 ----------------------------------------------------------------------
 #t hf aug-cc-pvdz iop(5/13=1,5/36=2,99/5=2) pseudo=read geom=check gue
 ss=(read,tcheck) scf=(maxcycle=1)
 ----------------------------------------------------------------------
 -----
 title
 -----
 Structure from the checkpoint file:  "BH10-RE_402_mol1.chk"
 Charge =  0 Multiplicity = 1

                         Standard orientation:
 ---------------------------------------------------------------------
 Center     Atomic      Atomic             Coordinates (Angstroms)
 Number     Number       Type             X           Y           Z
 ---------------------------------------------------------------------
      1          6           0        0.321519   -2.549670    0.399329
      2          1           0        0.265980   -3.481021   -0.173753
      3          1           0        0.428913   -2.849216    1.463297
      4          6           0       -0.963722   -1.797296    0.240716
      5          6           0        0.284683    0.286311   -0.170231
      6          1           0        0.506455    0.474981   -1.225572
      7          1           0        0.178544    1.260968    0.304854
      8          6           0        1.467662   -0.446564    0.459517
      9          1           0        1.304076   -0.471247    1.555566
     10          7           0        1.477868   -1.807378   -0.059271
     11          6           0       -2.302916    0.209790   -0.163228
     12          6           0       -2.242955   -2.562230    0.450574
     13          6           0       -3.399141   -0.537206   -0.363708
     14          6           0       -3.348690   -2.039869   -0.459323
     15          6           0       -0.998406   -0.488634   -0.029731
     16          6           0       -4.696088   -2.685401   -0.156135
     17          1           0       -4.647096   -3.771087   -0.267639
     18          1           0       -5.008811   -2.466012    0.868490
     19          1           0       -5.472153   -2.314054   -0.829705
     20          6           0        2.777110    0.278834    0.214741
     21          6           0        2.716633   -2.512301    0.201136
     22          1           0        2.593151   -3.551463   -0.111984
     23          1           0        2.956642   -2.523161    1.280585
     24          6           0        3.840346   -1.857021   -0.577963
     25          1           0        3.668977   -2.019111   -1.646484
     26          6           0        3.898023   -0.380690   -0.288277
     27          1           0        4.797772   -2.320979   -0.327159
     28          6           0        5.076113    0.334099   -0.497733
     29          1           0        5.943827   -0.187671   -0.887714
     30          6           0        2.875073    1.635794    0.523906
     31          1           0        2.020006    2.153822    0.941939
     32          6           0        5.157744    1.684587   -0.208256
     33          1           0        6.082459    2.223220   -0.376714
     34          6           0        4.048916    2.338314    0.314256
     35          1           0        4.100271    3.392022    0.560526
     36         14           0       -2.493790    2.082456   -0.033313
     37          6           0       -1.909997    2.673609    1.655770
     38          1           0       -0.855337    2.460077    1.840245
     39          1           0       -2.049749    3.753559    1.754705
     40          1           0       -2.485525    2.189273    2.448500
     41          6           0       -1.546977    2.977583   -1.389834
     42          1           0       -0.466074    2.858686   -1.303920
     43          1           0       -1.843632    2.608370   -2.374736
     44          1           0       -1.766602    4.048439   -1.357689
     45          6           0       -4.309762    2.530885   -0.207636
     46          1           0       -4.924533    2.064007    0.565029
     47          1           0       -4.428395    3.613597   -0.112820
     48          1           0       -4.711529    2.242120   -1.181577
     49          1           0       -3.072708   -2.286339   -1.496427
     50          1           0       -2.559721   -2.459285    1.499196
     51          1           0       -2.086224   -3.630498    0.276495
     52          1           0       -4.372010   -0.072280   -0.491591
 ---------------------------------------------------------------------

 SCF Done:  E(RHF) =  -1160.09503289     A.U. after    2 cycles

 The electronic state is 1-A.
 Alpha  occ. eigenvalues --  -76.17855 -15.69930 -11.52275 -11.50261 -11.49742
 Alpha  occ. eigenvalues --  -11.46721 -11.45643 -11.45580 -11.44975 -11.44251
 Alpha  occ. eigenvalues --  -11.43446 -11.42771 -11.41066 -11.40958 -11.40515
 Alpha  occ. eigenvalues --  -11.40207 -11.38481 -11.38322 -11.35759 -11.35033
 Alpha  occ. eigenvalues --  -11.34770 -11.34225 -11.33965  -5.52082  -2.17388
 Alpha  occ. eigenvalues --   -2.16557  -2.15778  -1.49400  -1.34833  -1.31899
 Alpha  occ. eigenvalues --   -1.20987  -1.16361  -1.13768  -1.10443  -1.06845
 Alpha  occ. eigenvalues --   -1.06165  -1.03963  -1.00520  -1.00162  -0.99799
 Alpha  occ. eigenvalues --   -0.93490  -0.90691  -0.87845  -0.85366  -0.84552
 Alpha  occ. eigenvalues --   -0.79670  -0.76681  -0.70214  -0.69073  -0.67764
 Alpha  occ. eigenvalues --   -0.65413  -0.64200  -0.63553  -0.63378  -0.60915
 Alpha  occ. eigenvalues --   -0.59661  -0.58583  -0.57708  -0.57190  -0.56081
 Alpha  occ. eigenvalues --   -0.55987  -0.55336  -0.55033  -0.54709  -0.54044
 Alpha  occ. eigenvalues --   -0.53344  -0.52855  -0.52709  -0.52159  -0.51275
 Alpha  occ. eigenvalues --   -0.50847  -0.49341  -0.47800  -0.47577  -0.47040
 Alpha  occ. eigenvalues --   -0.46039  -0.44516  -0.42223  -0.40892  -0.39598
 Alpha  occ. eigenvalues --   -0.38430  -0.37374  -0.36028  -0.34287  -0.32385
 Alpha  occ. eigenvalues --   -0.31258  -0.30015  -0.27575
 Alpha virt. eigenvalues --    0.03606   0.04158   0.04371   0.04513   0.05085
 Alpha virt. eigenvalues --    0.05255   0.05357   0.05419   0.05581   0.06117
 Alpha virt. eigenvalues --    0.06250   0.06276   0.06777   0.06946   0.07097

 Mulliken charges:
               1
     1  C   -4.832614
     2  H    0.924400
     3  H    1.094690
     4  C    4.317440
     5  C   -6.000351
     6  H    1.166234
     7  H    1.587213
     8  C   -4.219742
     9  H    1.780192
    10  N   -2.401324
    11  C   -1.437795
    12  C   -5.817162
    13  C   -0.642822
    14  C   -3.189052
    15  C    7.602587
    16  C   -5.505497
    17  H    1.323622
    18  H    1.316360
    19  H    1.284291
    20  C    7.045993
    21  C   -5.173210
    22  H    1.659294
    23  H    1.688110
    24  C   -6.028844
    25  H    0.933526
    26  C    5.507737
    27  H    0.969855
    28  C   -3.442161
    29  H    1.745220
    30  C   -0.107355
    31  H    2.080239
    32  C   -2.550989
    33  H    1.563411
    34  C   -4.567037
    35  H    1.584743
    36  Si  12.850198
    37  C   -6.453221
    38  H    1.336816
    39  H    1.013836
    40  H    0.816536
    41  C   -6.312037
    42  H    1.280174
    43  H    0.735247
    44  H    1.077835
    45  C   -6.813787
    46  H    1.148973
    47  H    0.934174
    48  H    1.175503
    49  H    1.704943
    50  H    1.098259
    51  H    1.302820
    52  H    1.844527
 Sum of Mulliken charges =  -0.00000

 Dipole moment (field-independent basis, Debye):
    X=             -0.2712    Y=             -1.0927    Z=             -0.0725  Tot=              1.1282

 Test job not archived.
 1\1\GINC-SE108\SP\RHF\Aug-CC-pVDZ\C21H29N1Si1\OHZDE\09-Apr-2025\0\\#t
 hf aug-cc-pvdz iop(5/13=1,5/36=2,99/5=2) pseudo=read geom=check guess=
 (read,tcheck) scf=(maxcycle=1)\\title\\0,1\C,0,0.321519,-2.54967,0.399
 329\H,0,0.26598,-3.481021,-0.173753\H,0,0.428913,-2.849216,1.463297\C,
 0,-0.963722,-1.797296,0.240716\C,0,0.284683,0.286311,-0.170231\H,0,0.5
 06455,0.474981,-1.225572\H,0,0.178544,1.260968,0.304854\C,0,1.467662,-
 0.446564,0.459517\H,0,1.304076,-0.471247,1.555566\N,0,1.477868,-1.8073
 78,-0.059271\C,0,-2.302916,0.20979,-0.163228\C,0,-2.242955,-2.56223,0.

 Normal termination of Gaussian 16 at Wed Apr  9 02:12:28 2025.
