 Gaussian 16, Revision C.01,

 ----------------------------------------------------------------------
 #t hf aug-cc-pvdz symm=none int=(grid=ultrafine) guess=(read,tcheck) s
 table=(opt,rrhf)
 ----------------------------------------------------------------------
 -----
 title
 -----
 Symbolic Z-matrix:
 Charge =  0 Multiplicity = 1

 SCF Done:  E(RHF) =  -864.111411637     A.U. after   15 cycles
 Normal termination of Gaussian 16 at Wed Apr  9 01:00:44 2025.
 Gaussian 16:  ES64L-G16RevC.01  3-Jul-2019

 ----------------------------------------------------------------------
 #t hf aug-cc-pvdz iop(5/13=1,5/36=2,99/5=2) pseudo=read geom=check gue
 ss=(read,tcheck) scf=(maxcycle=1)
 ----------------------------------------------------------------------
 -----
 title
 -----
 Structure from the checkpoint file:  "BH10_136_forward_mol2.chk"
 Charge =  0 Multiplicity = 1

                         Standard orientation:
 ---------------------------------------------------------------------
 Center     Atomic      Atomic             Coordinates (Angstroms)
 Number     Number       Type             X           Y           Z
 ---------------------------------------------------------------------
      1         17           0       -2.942743   -0.637394   -1.173169
      2          6           0       -2.109930    0.134928    0.326376
      3          6           0       -0.678016   -0.266898    0.301291
      4          6           0        0.345174    0.563255    0.044190
      5          7           0        1.660215    0.224422   -0.013951
      6          1           0        0.160622    1.613931   -0.150875
      7          1           0       -0.490788   -1.319531    0.478628
      8          6           0       -2.826432   -0.456694    1.532607
      9          6           0        2.145471   -1.119694    0.246189
     10          1           0        1.736463   -1.509889    1.184978
     11          6           0        3.668119   -0.956820    0.303935
     12          1           0        1.830155   -1.799082   -0.554942
     13          1           0        3.986093   -0.803851    1.338244
     14          6           0        3.932465    0.311905   -0.512960
     15          1           0        4.195081   -1.830674   -0.078753
     16          6           0        2.736095    1.191769   -0.164360
     17          1           0        3.921413    0.082867   -1.581423
     18          1           0        4.886345    0.783409   -0.275752
     19          1           0        2.498673    1.917430   -0.945604
     20          1           0        2.917152    1.744329    0.768675
     21          1           0       -2.680828   -1.536147    1.578728
     22          1           0       -3.896967   -0.252176    1.493402
     23          1           0       -2.413315   -0.013554    2.442520
     24          6           0       -2.367802    1.628369    0.215864
     25          1           0       -1.949059    2.042712   -0.700647
     26          1           0       -1.926627    2.142427    1.073576
     27          1           0       -3.440152    1.821808    0.211983
 ---------------------------------------------------------------------

 SCF Done:  E(RHF) =  -866.403553619     A.U. after    2 cycles

 The electronic state is 1-A.
 Alpha  occ. eigenvalues --  -99.84224 -15.72436 -11.48796 -11.46306 -11.45816
 Alpha  occ. eigenvalues --  -11.43886 -11.39722 -11.39490 -11.38715 -11.36486
 Alpha  occ. eigenvalues --  -11.35974 -10.41466  -9.61492  -9.60881  -9.60797
 Alpha  occ. eigenvalues --   -1.49254  -1.33995  -1.21449  -1.15873  -1.08811
 Alpha  occ. eigenvalues --   -1.04795  -1.01657  -0.91355  -0.85490  -0.81385
 Alpha  occ. eigenvalues --   -0.75939  -0.70454  -0.69008  -0.64409  -0.63057
 Alpha  occ. eigenvalues --   -0.60392  -0.59773  -0.57771  -0.55616  -0.54352
 Alpha  occ. eigenvalues --   -0.52225  -0.51264  -0.50255  -0.48218  -0.47397
 Alpha  occ. eigenvalues --   -0.46715  -0.45886  -0.45340  -0.43166  -0.42745
 Alpha  occ. eigenvalues --   -0.41496  -0.25838
 Alpha virt. eigenvalues --    0.03653   0.04670   0.04988   0.05079   0.05307
 Alpha virt. eigenvalues --    0.05605   0.05757   0.06459   0.06733   0.06979
 Alpha virt. eigenvalues --    0.07302   0.07423   0.07947   0.09176   0.09363

 Mulliken charges:
               1
     1  Cl  -0.206826
     2  C    0.171049
     3  C    0.077778
     4  C    2.229014
     5  N   -4.081669
     6  H    2.176106
     7  H    1.635013
     8  C   -4.607065
     9  C   -3.218121
    10  H    1.773410
    11  C   -2.827610
    12  H    1.757555
    13  H    1.286995
    14  C   -3.234361
    15  H    1.229936
    16  C   -3.118519
    17  H    1.388006
    18  H    1.304628
    19  H    1.726141
    20  H    1.598627
    21  H    1.204524
    22  H    1.287929
    23  H    1.286331
    24  C   -4.572385
    25  H    1.294269
    26  H    1.274803
    27  H    1.164441
 Sum of Mulliken charges =   0.00000

 Dipole moment (field-independent basis, Debye):
    X=              4.4489    Y=              1.6676    Z=              2.0313  Tot=              5.1672

 Test job not archived.
 1\1\GINC-SE338\SP\RHF\Aug-CC-pVDZ\C9H16Cl1N1\OHZDE\09-Apr-2025\0\\#t h
 f aug-cc-pvdz iop(5/13=1,5/36=2,99/5=2) pseudo=read geom=check guess=(
 read,tcheck) scf=(maxcycle=1)\\title\\0,1\Cl,0,-2.942743,-0.637394,-1.
 173169\C,0,-2.10993,0.134928,0.326376\C,0,-0.678016,-0.266898,0.301291
 \C,0,0.345174,0.563255,0.04419\N,0,1.660215,0.224422,-0.013951\H,0,0.1
 60622,1.613931,-0.150875\H,0,-0.490788,-1.319531,0.478628\C,0,-2.82643
 2,-0.456694,1.532607\C,0,2.145471,-1.119694,0.246189\H,0,1.736463,-1.5
 09889,1.184978\C,0,3.668119,-0.95682,0.303935\H,0,1.830155,-1.799082,-

 Normal termination of Gaussian 16 at Wed Apr  9 01:01:02 2025.
