 Gaussian 16, Revision C.01,

 ----------------------------------------------------------------------
 #t hf aug-cc-pvdz symm=none int=(grid=ultrafine) guess=(read,tcheck) s
 table=opt
 ----------------------------------------------------------------------
 -----
 title
 -----
 Symbolic Z-matrix:
 Charge =  0 Multiplicity = 2

 SCF Done:  E(UHF) =  -811.770485989     A.U. after   24 cycles
 Normal termination of Gaussian 16 at Wed Apr  9 01:00:03 2025.
 Gaussian 16:  ES64L-G16RevC.01  3-Jul-2019

 ----------------------------------------------------------------------
 #t hf aug-cc-pvdz iop(5/13=1,5/36=2,99/5=2) pseudo=read geom=check gue
 ss=(read,tcheck) scf=(maxcycle=1)
 ----------------------------------------------------------------------
 -----
 title
 -----
 Structure from the checkpoint file:  "BH10_150_reverse_mol2.chk"
 Charge =  0 Multiplicity = 2

                         Standard orientation:
 ---------------------------------------------------------------------
 Center     Atomic      Atomic             Coordinates (Angstroms)
 Number     Number       Type             X           Y           Z
 ---------------------------------------------------------------------
      1          7           0        0.190667   -1.520153   -0.012804
      2          1           0       -0.508797   -2.208812   -0.282500
      3          6           0       -0.363185   -0.299105    0.289299
      4          6           0        0.416262    0.812983    0.874401
      5          6           0       -1.791498   -0.247568   -0.015690
      6          1           0       -0.228360    1.419925    1.509336
      7          1           0        1.242659    0.445937    1.474460
      8         16           0        1.102379    1.986437   -0.375030
      9          8           0       -2.394560   -1.267321   -0.335745
     10          1           0        2.014050    1.124671   -0.857593
     11          7           0       -2.414516    0.963153    0.109541
     12          1           0       -3.368441    0.984153   -0.217127
     13          1           0       -1.882934    1.810142   -0.015756
     14          6           0        1.511156   -1.860590   -0.103458
     15          1           0        1.644098   -2.923633   -0.353577
     16          8           0        2.442084   -1.104016    0.060591
 ---------------------------------------------------------------------

 SCF Done:  E(UHF) =  -813.805520171     A.U. after    2 cycles

 The electronic state is 2-A.
 Alpha  occ. eigenvalues --  -75.69337 -21.05771 -21.04564 -15.80177 -15.78710
 Alpha  occ. eigenvalues --  -13.14950 -13.11166 -13.04360 -11.53832 -11.50909
 Alpha  occ. eigenvalues --  -11.47347 -11.42437  -8.03218  -1.74302  -1.72698
 Alpha  occ. eigenvalues --   -1.44943  -1.36017  -1.22045  -1.08686  -0.95575
 Alpha  occ. eigenvalues --   -0.88019  -0.78699  -0.76025  -0.71447  -0.64546
 Alpha  occ. eigenvalues --   -0.62987  -0.62056  -0.58797  -0.55345  -0.52552
 Alpha  occ. eigenvalues --   -0.50819  -0.49425  -0.43784  -0.39472  -0.35884
 Alpha  occ. eigenvalues --   -0.32354  -0.31671  -0.26253  -0.23106
 Alpha virt. eigenvalues --    0.03055   0.04800   0.04937   0.05638   0.06044
 Alpha virt. eigenvalues --    0.07368   0.07924   0.09086   0.09792   0.11026
 Alpha virt. eigenvalues --    0.11349   0.12041   0.12695   0.13587   0.14555

  Beta  occ. eigenvalues --  -75.69217 -21.05257 -21.03823 -15.80178 -15.78658
  Beta  occ. eigenvalues --  -13.14637 -13.10734 -13.04278 -11.53684 -11.50985
  Beta  occ. eigenvalues --  -11.46595 -11.42077  -8.03080  -1.73209  -1.71594
  Beta  occ. eigenvalues --   -1.43151  -1.35683  -1.21066  -1.05166  -0.94970
  Beta  occ. eigenvalues --   -0.87609  -0.78095  -0.75399  -0.71129  -0.63039
  Beta  occ. eigenvalues --   -0.61509  -0.59022  -0.58348  -0.53998  -0.52201
  Beta  occ. eigenvalues --   -0.50458  -0.48741  -0.41445  -0.37324  -0.33230
  Beta  occ. eigenvalues --   -0.31759  -0.30762  -0.24781
  Beta virt. eigenvalues --    0.02952   0.04507   0.04808   0.05020   0.06042
  Beta virt. eigenvalues --    0.07313   0.07686   0.08099   0.09559   0.10270
  Beta virt. eigenvalues --    0.11230   0.11453   0.12120   0.12861   0.13686

 Mulliken charges and spin densities:
               1          2
     1  N   -3.960834   0.058181
     2  H    0.862597   0.011019
     3  C    3.025796   1.364427
     4  C   -3.467417  -0.323686
     5  C    5.167733  -0.500361
     6  H    1.248915   0.009589
     7  H    1.294640  -0.001078
     8  S   -0.672778   0.093641
     9  O   -3.464337   0.216129
    10  H    1.018458  -0.023223
    11  N   -3.290158   0.005700
    12  H    0.795313  -0.002806
    13  H    0.780817   0.003595
    14  C    1.577993  -0.068482
    15  H    1.774655   0.003272
    16  O   -2.691393   0.154083
 Sum of Mulliken charges =   0.00000   1.00000

 Dipole moment (field-independent basis, Debye):
    X=             -0.9797    Y=              1.7057    Z=              0.0054  Tot=              1.9671
                          Isotropic Fermi Contact Couplings
        Atom                 a.u.       MegaHertz       Gauss      10(-4) cm-1
     1  N(14)             -0.01688      -5.45521      -1.94655      -1.81966
     2  H(1)              -0.00045      -1.99528      -0.71196      -0.66555
     3  C(13)              0.11641     130.86188      46.69477      43.65082
     4  C(13)             -0.03760     -42.26517     -15.08126     -14.09814
     5  C(13)             -0.03932     -44.20029     -15.77176     -14.74363
     6  H(1)               0.00497      22.21717       7.92764       7.41085
     7  H(1)               0.00419      18.71541       6.67812       6.24279
     8  S(33)              0.07559      25.96173       9.26379       8.65990

 Normal termination of Gaussian 16 at Wed Apr  9 01:00:11 2025.
