 Gaussian 16, Revision C.01,

 ----------------------------------------------------------------------
 #t hf aug-cc-pvdz symm=none int=(grid=ultrafine) guess=(read,tcheck) s
 table=(opt,rrhf)
 ----------------------------------------------------------------------
 -----
 title
 -----
 Symbolic Z-matrix:
 Charge =  0 Multiplicity = 1

 SCF Done:  E(RHF) =  -1087.47903426     A.U. after   14 cycles
 Normal termination of Gaussian 16 at Wed Apr  9 00:57:04 2025.
 Gaussian 16:  ES64L-G16RevC.01  3-Jul-2019

 ----------------------------------------------------------------------
 #t hf aug-cc-pvdz iop(5/13=1,5/36=2,99/5=2) pseudo=read geom=check gue
 ss=(read,tcheck) scf=(maxcycle=1)
 ----------------------------------------------------------------------
 -----
 title
 -----
 Structure from the checkpoint file:  "BH10_132_reverse_mol3.chk"
 Charge =  0 Multiplicity = 1

                         Standard orientation:
 ---------------------------------------------------------------------
 Center     Atomic      Atomic             Coordinates (Angstroms)
 Number     Number       Type             X           Y           Z
 ---------------------------------------------------------------------
      1          6           0       -1.636994    0.932424    0.095469
      2          6           0       -0.144418    0.777125   -0.145586
      3          6           0        2.269481   -0.429449   -0.493240
      4          6           0        2.985757   -0.082952    0.801556
      5          8           0        0.522906    1.774032   -0.245416
      6         17           0       -2.588011   -0.574216    0.180777
      7          1           0       -2.037889    1.542021   -0.711329
      8          1           0       -1.763548    1.465134    1.035750
      9          1           0        2.310040    0.396322   -1.202164
     10          1           0        2.703487   -1.310359   -0.967513
     11          1           0        2.550615    0.805655    1.258319
     12          1           0        4.039240    0.124457    0.598695
     13          1           0        2.932079   -0.905624    1.516263
     14         16           0        0.514747   -0.858193   -0.261694
 ---------------------------------------------------------------------

 SCF Done:  E(RHF) =  -1089.02668607     A.U. after    2 cycles

 The electronic state is 1-A.
 Alpha  occ. eigenvalues --  -99.89650 -75.70232 -21.07102 -13.15413 -13.13009
 Alpha  occ. eigenvalues --  -13.04381 -11.52182 -11.45596 -11.42770 -11.37187
 Alpha  occ. eigenvalues --  -10.46975  -9.66875  -9.66215  -9.66021  -8.04620
 Alpha  occ. eigenvalues --   -1.73989  -1.35437  -1.24954  -1.10826  -1.04940
 Alpha  occ. eigenvalues --   -0.89447  -0.76818  -0.67823  -0.66730  -0.63334
 Alpha  occ. eigenvalues --   -0.59704  -0.59090  -0.52985  -0.52207  -0.50961
 Alpha  occ. eigenvalues --   -0.49686  -0.48736  -0.45840  -0.39051  -0.28231
 Alpha  occ. eigenvalues --   -0.25637
 Alpha virt. eigenvalues --    0.03218   0.04130   0.05262   0.05844   0.06294
 Alpha virt. eigenvalues --    0.06987   0.07307   0.07598   0.09630   0.10796
 Alpha virt. eigenvalues --    0.10996   0.12246   0.12594   0.13930   0.14261

 Mulliken charges:
               1
     1  C   -4.529849
     2  C    3.841996
     3  C   -4.339371
     4  C   -3.541336
     5  O   -3.131697
     6  Cl   0.178485
     7  H    1.617949
     8  H    1.580668
     9  H    1.622926
    10  H    1.412147
    11  H    1.379125
    12  H    1.148786
    13  H    1.372546
    14  S    1.387623
 Sum of Mulliken charges =  -0.00000

 Dipole moment (field-independent basis, Debye):
    X=              1.3685    Y=             -0.6040    Z=             -0.2280  Tot=              1.5131

 Test job not archived.
 1\1\GINC-SE126\SP\RHF\Aug-CC-pVDZ\C4H7Cl1O1S1\OHZDE\09-Apr-2025\0\\#t
 hf aug-cc-pvdz iop(5/13=1,5/36=2,99/5=2) pseudo=read geom=check guess=
 (read,tcheck) scf=(maxcycle=1)\\title\\0,1\C,0,-1.636994,0.932424,0.09
 5469\C,0,-0.144418,0.777125,-0.145586\C,0,2.269481,-0.429449,-0.49324\
 C,0,2.985757,-0.082952,0.801556\O,0,0.522906,1.774032,-0.245416\Cl,0,-
 2.588011,-0.574216,0.180777\H,0,-2.037889,1.542021,-0.711329\H,0,-1.76
 3548,1.465134,1.03575\H,0,2.31004,0.396322,-1.202164\H,0,2.703487,-1.3
 10359,-0.967513\H,0,2.550615,0.805655,1.258319\H,0,4.03924,0.124457,0.

 Normal termination of Gaussian 16 at Wed Apr  9 00:57:09 2025.
