 Gaussian 16, Revision C.01,

 ----------------------------------------------------------------------
 #t hf aug-cc-pvdz symm=none int=(grid=ultrafine) guess=(read,tcheck) s
 table=(opt,rrhf)
 ----------------------------------------------------------------------
 -----
 title
 -----
 Symbolic Z-matrix:
 Charge =  0 Multiplicity = 1

 SCF Done:  E(RHF) =  -1375.42845775     A.U. after   17 cycles
 Normal termination of Gaussian 16 at Wed Apr  9 03:21:29 2025.
 Gaussian 16:  ES64L-G16RevC.01  3-Jul-2019

 ----------------------------------------------------------------------
 #t hf aug-cc-pvdz iop(5/13=1,5/36=2,99/5=2) pseudo=read geom=check gue
 ss=(read,tcheck) scf=(maxcycle=1)
 ----------------------------------------------------------------------
 -----
 title
 -----
 Structure from the checkpoint file:  "BH10_396_forward_mol2.chk"
 Charge =  0 Multiplicity = 1

                         Standard orientation:
 ---------------------------------------------------------------------
 Center     Atomic      Atomic             Coordinates (Angstroms)
 Number     Number       Type             X           Y           Z
 ---------------------------------------------------------------------
      1          6           0       -1.304497    2.521784    0.958721
      2          1           0       -1.729347    3.502140    1.178283
      3          1           0       -0.852581    2.137083    1.894699
      4          6           0       -0.220092    2.658602   -0.080101
      5          6           0       -0.870717    0.449484   -0.990657
      6          1           0       -1.428384    0.855550   -1.839926
      7          1           0       -0.481412   -0.521547   -1.277261
      8          6           0       -1.849566    0.317601    0.184964
      9          1           0       -1.278986   -0.071567    1.052776
     10          7           0       -2.368571    1.642136    0.504593
     11          6           0        1.570903    1.054357   -0.722588
     12          6           0        0.202464    3.845444   -0.501077
     13          6           0        2.649780    1.889815   -0.181926
     14          6           0        3.950510    1.758414   -0.430376
     15          6           0        0.262747    1.370995   -0.628473
     16          6           0        5.012148    2.606667    0.189559
     17          1           0        4.588545    3.358826    0.857433
     18          1           0        5.712111    1.993457    0.765188
     19          1           0        5.600865    3.120326   -0.576314
     20          6           0       -2.955456   -0.681163   -0.102761
     21          6           0       -3.483343    1.597454    1.431675
     22          1           0       -3.726540    2.619406    1.729372
     23          1           0       -3.223098    1.041030    2.350794
     24          6           0       -4.671890    0.952589    0.745054
     25          1           0       -5.024837    1.620644   -0.046349
     26          6           0       -4.292503   -0.380441    0.156162
     27          1           0       -5.494536    0.822932    1.453011
     28          6           0       -5.272289   -1.334455   -0.112050
     29          1           0       -6.310033   -1.092324    0.092091
     30          6           0       -2.629157   -1.946859   -0.590181
     31          1           0       -1.591678   -2.206128   -0.763016
     32          6           0       -4.942496   -2.578813   -0.619102
     33          1           0       -5.717898   -3.308098   -0.820360
     34          6           0       -3.608695   -2.889212   -0.851178
     35          1           0       -3.331557   -3.864852   -1.231579
     36         16           0        2.046897   -0.449311   -1.570195
     37          6           0        2.742540   -1.426413   -0.251819
     38          6           0        2.350696   -1.282854    1.074620
     39          6           0        2.894580   -2.105983    2.049222
     40          6           0        3.818480   -3.085332    1.710192
     41          6           0        4.202582   -3.231944    0.384353
     42          6           0        3.674380   -2.402312   -0.593806
     43          1           0        1.627352   -0.524008    1.343999
     44          1           0        2.588218   -1.983013    3.081301
     45          1           0        4.237819   -3.728098    2.474262
     46          1           0        4.926113   -3.989614    0.108048
     47          1           0        3.989845   -2.506841   -1.625340
     48          1           0        0.970775    3.936220   -1.258424
     49          1           0       -0.219340    4.762616   -0.105979
     50          1           0        2.329926    2.665113    0.505819
     51          1           0        4.281640    0.990240   -1.122114
 ---------------------------------------------------------------------

 SCF Done:  E(RHF) =  -1380.44703876     A.U. after    2 cycles

 The electronic state is 1-A.
 Alpha  occ. eigenvalues --  -75.68448 -15.70635 -13.21584 -13.16732 -13.13199
 Alpha  occ. eigenvalues --  -11.52726 -11.52176 -11.51866 -11.50403 -11.46619
 Alpha  occ. eigenvalues --  -11.46184 -11.45381 -11.44867 -11.44600 -11.44362
 Alpha  occ. eigenvalues --  -11.43532 -11.43328 -11.42625 -11.41662 -11.41073
 Alpha  occ. eigenvalues --  -11.40999 -11.40926 -11.40539 -11.39806 -11.38862
 Alpha  occ. eigenvalues --  -11.38750 -11.37430 -11.36448 -11.35629  -8.02687
 Alpha  occ. eigenvalues --   -1.49816  -1.36991  -1.33788  -1.30365  -1.21848
 Alpha  occ. eigenvalues --   -1.18120  -1.16528  -1.15030  -1.09784  -1.09286
 Alpha  occ. eigenvalues --   -1.07369  -1.04590  -1.01041  -0.99474  -0.95484
 Alpha  occ. eigenvalues --   -0.90632  -0.87151  -0.86843  -0.85737  -0.84382
 Alpha  occ. eigenvalues --   -0.82466  -0.78165  -0.77480  -0.71822  -0.70540
 Alpha  occ. eigenvalues --   -0.69741  -0.66829  -0.65361  -0.64207  -0.63904
 Alpha  occ. eigenvalues --   -0.63191  -0.61835  -0.60000  -0.59045  -0.58737
 Alpha  occ. eigenvalues --   -0.58439  -0.57396  -0.56642  -0.56292  -0.55832
 Alpha  occ. eigenvalues --   -0.54917  -0.54113  -0.52978  -0.52184  -0.51799
 Alpha  occ. eigenvalues --   -0.50838  -0.50062  -0.48966  -0.47610  -0.47402
 Alpha  occ. eigenvalues --   -0.46584  -0.45145  -0.44804  -0.43313  -0.40404
 Alpha  occ. eigenvalues --   -0.39762  -0.39199  -0.36545  -0.35291  -0.34209
 Alpha  occ. eigenvalues --   -0.33091  -0.32521  -0.31397  -0.30678  -0.28369
 Alpha  occ. eigenvalues --   -0.21354
 Alpha virt. eigenvalues --    0.03621   0.04212   0.04515   0.04575   0.04875
 Alpha virt. eigenvalues --    0.05154   0.05334   0.05439   0.05588   0.05743
 Alpha virt. eigenvalues --    0.05762   0.06387   0.06797   0.06942   0.07083

 Mulliken charges:
               1
     1  C   -6.085194
     2  H    1.631508
     3  H    1.543385
     4  C    3.410988
     5  C   -6.160277
     6  H    1.220864
     7  H    2.057755
     8  C   -3.300567
     9  H    1.628703
    10  N   -2.008094
    11  C    2.065505
    12  C   -6.882999
    13  C   -0.162385
    14  C   -2.992577
    15  C    3.826842
    16  C   -5.674162
    17  H    1.317044
    18  H    1.189132
    19  H    1.056398
    20  C    8.425698
    21  C   -5.077708
    22  H    1.551160
    23  H    1.792633
    24  C   -5.875568
    25  H    0.962980
    26  C    5.919536
    27  H    1.015333
    28  C   -3.367996
    29  H    1.801021
    30  C   -0.779876
    31  H    2.321684
    32  C   -3.038674
    33  H    1.593941
    34  C   -4.400643
    35  H    1.584425
    36  S   -0.666101
    37  C    4.079190
    38  C   -0.950248
    39  C   -2.706425
    40  C   -3.269159
    41  C   -1.694887
    42  C   -4.385403
    43  H    3.045051
    44  H    1.567877
    45  H    1.646594
    46  H    1.626649
    47  H    1.848003
    48  H    1.744722
    49  H    1.654771
    50  H    2.325594
    51  H    2.023960
 Sum of Mulliken charges =   0.00000

 Dipole moment (field-independent basis, Debye):
    X=             -0.5428    Y=              0.4038    Z=             -0.0134  Tot=              0.6767

 Test job not archived.
 1\1\GINC-SE219\SP\RHF\Aug-CC-pVDZ\C24H25N1S1\OHZDE\09-Apr-2025\0\\#t h
 f aug-cc-pvdz iop(5/13=1,5/36=2,99/5=2) pseudo=read geom=check guess=(
 read,tcheck) scf=(maxcycle=1)\\title\\0,1\C,0,-1.304497,2.521784,0.958
 721\H,0,-1.729347,3.50214,1.178283\H,0,-0.852581,2.137083,1.894699\C,0
 ,-0.220092,2.658602,-0.080101\C,0,-0.870717,0.449484,-0.990657\H,0,-1.
 428384,0.85555,-1.839926\H,0,-0.481412,-0.521547,-1.277261\C,0,-1.8495
 66,0.317601,0.184964\H,0,-1.278986,-0.071567,1.052776\N,0,-2.368571,1.
 642136,0.504593\C,0,1.570903,1.054357,-0.722588\C,0,0.202464,3.845444,

 Normal termination of Gaussian 16 at Wed Apr  9 03:24:44 2025.
