 Gaussian 16, Revision C.01,

 ----------------------------------------------------------------------
 #t hf aug-cc-pvdz symm=none int=(grid=ultrafine) guess=(read,tcheck) s
 table=(opt,rrhf)
 ----------------------------------------------------------------------
 -----
 title
 -----
 Symbolic Z-matrix:
 Charge =  0 Multiplicity = 1

 SCF Done:  E(RHF) =  -1125.16563879     A.U. after   15 cycles
 Normal termination of Gaussian 16 at Wed Apr  9 02:18:30 2025.
 Gaussian 16:  ES64L-G16RevC.01  3-Jul-2019

 ----------------------------------------------------------------------
 #t hf aug-cc-pvdz iop(5/13=1,5/36=2,99/5=2) pseudo=read geom=check gue
 ss=(read,tcheck) scf=(maxcycle=1)
 ----------------------------------------------------------------------
 -----
 title
 -----
 Structure from the checkpoint file:  "BH10_297_forward_mol1.chk"
 Charge =  0 Multiplicity = 1

                         Standard orientation:
 ---------------------------------------------------------------------
 Center     Atomic      Atomic             Coordinates (Angstroms)
 Number     Number       Type             X           Y           Z
 ---------------------------------------------------------------------
      1          6           0        1.710966   -2.792700   -0.758595
      2          6           0        0.834357   -2.104453    0.314562
      3          6           0        2.827710    0.213955   -0.135770
      4          1           0        1.077283   -3.424784   -1.390719
      5          6           0        1.492524   -2.168841    1.705632
      6          1           0        0.843263   -1.661196    2.427486
      7          1           0        1.547366   -3.216762    2.024381
      8          1           0        3.420566    1.119175   -0.297496
      9          1           0       -0.077853   -2.707104    0.415037
     10          1           0       -0.266302   -0.214814    0.968700
     11          6           0        2.894806   -1.579772    1.795901
     12          1           0        3.233786   -1.656378    2.833976
     13          1           0        3.586467   -2.201336    1.220405
     14          6           0        3.042588   -0.123259    1.358114
     15          1           0        2.378805    0.499616    1.965194
     16          1           0        4.060600    0.186346    1.616995
     17          6           0        3.442057   -0.835838   -1.094191
     18          1           0        3.884038   -0.295370   -1.937501
     19          6           0        2.498838   -1.879385   -1.701841
     20          1           0        1.790054   -1.359839   -2.353383
     21          1           0        3.091851   -2.511821   -2.370964
     22          1           0        4.280353   -1.335812   -0.599025
     23          1           0        2.400035   -3.490324   -0.269046
     24          6           0        1.365978    0.565200   -0.521820
     25          1           0        1.368423    0.613492   -1.618071
     26         14           0        0.852884    2.321611   -0.052750
     27          6           0        0.466498    2.559253    1.775171
     28          1           0        1.361405    2.475054    2.395278
     29          1           0        0.046228    3.555158    1.941243
     30          1           0       -0.259258    1.828846    2.138807
     31          6           0       -0.687704    2.787701   -1.037953
     32          1           0       -0.959543    3.829094   -0.845546
     33          1           0       -0.515555    2.692538   -2.113903
     34          1           0       -1.554310    2.175477   -0.780792
     35          6           0        2.206570    3.544637   -0.523849
     36          1           0        2.509718    3.422063   -1.567343
     37          1           0        1.855788    4.572871   -0.400708
     38          1           0        3.098654    3.426975    0.095693
     39          5           0        0.350379   -0.597816   -0.006067
     40          6           0       -1.597081   -0.556274   -0.402787
     41          6           0       -2.590536   -0.354681    0.422475
     42          1           0       -2.445063   -0.112076    1.464233
     43          6           0       -0.875271   -0.823731   -1.486014
     44          1           0       -0.676075   -0.036042   -2.200522
     45          1           0       -0.728263   -1.846240   -1.807749
     46          6           0       -3.980905   -0.454737   -0.088806
     47          8           0       -4.302817   -0.716079   -1.216564
     48          8           0       -4.849938   -0.206243    0.900080
     49          6           0       -6.234399   -0.267466    0.539560
     50          1           0       -6.485752   -1.262393    0.173130
     51          1           0       -6.783275   -0.042749    1.449671
     52          1           0       -6.455642    0.465791   -0.235488
 ---------------------------------------------------------------------

 SCF Done:  E(RHF) =  -1129.47171267     A.U. after    2 cycles

 The electronic state is 1-A.
 Alpha  occ. eigenvalues --  -76.16491 -21.10703 -21.05999 -11.56343 -11.54537
 Alpha  occ. eigenvalues --  -11.49610 -11.47025 -11.45468 -11.44840 -11.43907
 Alpha  occ. eigenvalues --  -11.42737 -11.41529 -11.40906 -11.37471 -11.35985
 Alpha  occ. eigenvalues --  -11.34952 -11.34593 -11.34447 -11.33613 -11.33316
 Alpha  occ. eigenvalues --   -7.60306  -5.50752  -2.15653  -2.14777  -2.14651
 Alpha  occ. eigenvalues --   -1.86345  -1.67689  -1.33593  -1.28055  -1.18312
 Alpha  occ. eigenvalues --   -1.16213  -1.12561  -1.07185  -1.04396  -1.02084
 Alpha  occ. eigenvalues --   -0.99972  -0.99788  -0.97053  -0.92750  -0.86598
 Alpha  occ. eigenvalues --   -0.83690  -0.82295  -0.74121  -0.73532  -0.72765
 Alpha  occ. eigenvalues --   -0.69102  -0.67005  -0.65508  -0.64798  -0.64362
 Alpha  occ. eigenvalues --   -0.63280  -0.61497  -0.60173  -0.58351  -0.57006
 Alpha  occ. eigenvalues --   -0.56813  -0.56378  -0.56255  -0.55905  -0.55542
 Alpha  occ. eigenvalues --   -0.55336  -0.54323  -0.53473  -0.52969  -0.52491
 Alpha  occ. eigenvalues --   -0.52149  -0.49806  -0.47595  -0.45216  -0.44459
 Alpha  occ. eigenvalues --   -0.44118  -0.43228  -0.42566  -0.40327  -0.39780
 Alpha  occ. eigenvalues --   -0.38571  -0.37980  -0.36961  -0.36412  -0.35838
 Alpha  occ. eigenvalues --   -0.34642  -0.33371  -0.31306  -0.29766
 Alpha virt. eigenvalues --    0.03510   0.04259   0.04497   0.04880   0.04979
 Alpha virt. eigenvalues --    0.05198   0.05437   0.05565   0.05789   0.05839
 Alpha virt. eigenvalues --    0.06096   0.06141   0.06297   0.06513   0.06793

 Mulliken charges:
               1
     1  C   -4.207197
     2  C   -5.084271
     3  C    0.488337
     4  H    0.944906
     5  C   -4.319366
     6  H    0.970409
     7  H    1.408254
     8  H    1.659991
     9  H   -0.348448
    10  H  -10.530007
    11  C   -3.535631
    12  H    1.346663
    13  H    1.409806
    14  C   -5.083727
    15  H    1.700792
    16  H    1.466898
    17  C   -4.002900
    18  H    1.058969
    19  C   -4.352114
    20  H    1.519673
    21  H    1.524943
    22  H    1.331245
    23  H    1.408630
    24  C   -8.267270
    25  H    1.595153
    26  Si  14.505081
    27  C   -7.138329
    28  H    1.025654
    29  H    0.937282
    30  H    0.986312
    31  C   -6.809282
    32  H    1.074699
    33  H    0.897840
    34  H    1.291388
    35  C   -7.166591
    36  H    0.853003
    37  H    0.884666
    38  H    0.997266
    39  B   32.416172
    40  C    4.496786
    41  C   -5.580893
    42  H    2.150766
    43  C   -7.301634
    44  H    0.684070
    45  H    0.508238
    46  C    7.059528
    47  O   -3.586611
    48  O   -3.776147
    49  C   -3.724697
    50  H    1.386605
    51  H    1.435395
    52  H    1.389695
 Sum of Mulliken charges =  -0.00000

 Dipole moment (field-independent basis, Debye):
    X=             -2.1583    Y=             -0.2868    Z=             -0.1710  Tot=              2.1840

 Test job not archived.
 1\1\GINC-SE423\SP\RHF\Aug-CC-pVDZ\C17H31B1O2Si1\OHZDE\09-Apr-2025\0\\#
 t hf aug-cc-pvdz iop(5/13=1,5/36=2,99/5=2) pseudo=read geom=check gues
 s=(read,tcheck) scf=(maxcycle=1)\\title\\0,1\C,0,1.710966,-2.7927,-0.7
 58595\C,0,0.834357,-2.104453,0.314562\C,0,2.82771,0.213955,-0.13577\H,
 0,1.077283,-3.424784,-1.390719\C,0,1.492524,-2.168841,1.705632\H,0,0.8
 43263,-1.661196,2.427486\H,0,1.547366,-3.216762,2.024381\H,0,3.420566,
 1.119175,-0.297496\H,0,-0.077853,-2.707104,0.415037\H,0,-0.266302,-0.2
 14814,0.9687\C,0,2.894806,-1.579772,1.795901\H,0,3.233786,-1.656378,2.

 Normal termination of Gaussian 16 at Wed Apr  9 02:21:10 2025.
