 Gaussian 16, Revision C.01,

 ----------------------------------------------------------------------
 #t hf aug-cc-pvdz symm=none int=(grid=ultrafine) guess=(read,tcheck) s
 table=(opt,rrhf)
 ----------------------------------------------------------------------
 -----
 title
 -----
 Symbolic Z-matrix:
 Charge =  0 Multiplicity = 1

 SCF Done:  E(RHF) =  -778.934783087     A.U. after   15 cycles
 Normal termination of Gaussian 16 at Wed Apr  9 02:12:10 2025.
 Gaussian 16:  ES64L-G16RevC.01  3-Jul-2019

 ----------------------------------------------------------------------
 #t hf aug-cc-pvdz iop(5/13=1,5/36=2,99/5=2) pseudo=read geom=check gue
 ss=(read,tcheck) scf=(maxcycle=1)
 ----------------------------------------------------------------------
 -----
 title
 -----
 Structure from the checkpoint file:  "BH10_93_forward_mol1.chk"
 Charge =  0 Multiplicity = 1

                         Standard orientation:
 ---------------------------------------------------------------------
 Center     Atomic      Atomic             Coordinates (Angstroms)
 Number     Number       Type             X           Y           Z
 ---------------------------------------------------------------------
      1          6           0       -0.132916    0.495284    1.254942
      2          6           0       -0.623141    1.649136    0.707817
      3          6           0       -0.132954    0.495326   -1.254922
      4          6           0       -0.623163    1.649160   -0.707744
      5          1           0        0.075912    0.308241   -2.298220
      6          1           0       -1.066972    2.440227   -1.296375
      7          1           0       -1.066933    2.440184    1.296488
      8          1           0        0.075981    0.308165    2.298228
      9         16           0        0.924336   -0.266683   -0.000018
     10          6           0       -1.772543   -0.992009    0.687050
     11          6           0       -1.772563   -0.991986   -0.687029
     12          1           0       -1.256074   -1.777834    1.220977
     13          1           0       -1.256111   -1.777794   -1.220997
     14          1           0       -2.524502   -0.442746    1.236284
     15          1           0       -2.524539   -0.442705   -1.236222
     16          8           0        2.223203    0.394285   -0.000027
     17          8           0        0.913990   -1.721569   -0.000042
 ---------------------------------------------------------------------

 SCF Done:  E(RHF) =  -781.006799233     A.U. after    2 cycles

 The electronic state is 1-A.
 Alpha  occ. eigenvalues --  -75.88341 -21.04069 -21.03687 -13.49624 -13.44158
 Alpha  occ. eigenvalues --  -13.34813 -11.50143 -11.46894 -11.45003 -11.44338
 Alpha  occ. eigenvalues --  -11.40426 -11.38917  -8.23366  -1.82189  -1.63740
 Alpha  occ. eigenvalues --   -1.35657  -1.14878  -1.09271  -1.03551  -0.85809
 Alpha  occ. eigenvalues --   -0.83407  -0.80105  -0.73619  -0.66831  -0.59193
 Alpha  occ. eigenvalues --   -0.57845  -0.57692  -0.57044  -0.54527  -0.53031
 Alpha  occ. eigenvalues --   -0.51131  -0.42038  -0.41019  -0.38470  -0.35982
 Alpha  occ. eigenvalues --   -0.33852  -0.33020  -0.32973
 Alpha virt. eigenvalues --    0.03097   0.04314   0.04699   0.05052   0.05277
 Alpha virt. eigenvalues --    0.05277   0.05556   0.07030   0.08083   0.10129
 Alpha virt. eigenvalues --    0.12003   0.12295   0.12842   0.13057   0.13117

 Mulliken charges:
               1
     1  C   -3.437159
     2  C   -0.209142
     3  C   -3.437159
     4  C   -0.209151
     5  H    1.505647
     6  H    1.531528
     7  H    1.531528
     8  H    1.505647
     9  S    6.331943
    10  C   -2.898944
    11  C   -2.898942
    12  H    1.570656
    13  H    1.570656
    14  H    1.474874
    15  H    1.474874
    16  O   -2.691695
    17  O   -2.715162
 Sum of Mulliken charges =   0.00000

 Dipole moment (field-independent basis, Debye):
    X=             -2.8396    Y=              1.3767    Z=              0.0001  Tot=              3.1558

 Test job not archived.
 1\1\GINC-SE024\SP\RHF\Aug-CC-pVDZ\C6H8O2S1\OHZDE\09-Apr-2025\0\\#t hf
 aug-cc-pvdz iop(5/13=1,5/36=2,99/5=2) pseudo=read geom=check guess=(re
 ad,tcheck) scf=(maxcycle=1)\\title\\0,1\C,0,-0.132916,0.495284,1.25494
 2\C,0,-0.623141,1.649136,0.707817\C,0,-0.132954,0.495326,-1.254922\C,0
 ,-0.623163,1.64916,-0.707744\H,0,0.075912,0.308241,-2.29822\H,0,-1.066
 972,2.440227,-1.296375\H,0,-1.066933,2.440184,1.296488\H,0,0.075981,0.
 308165,2.298228\S,0,0.924336,-0.266683,-0.000018\C,0,-1.772543,-0.9920
 09,0.68705\C,0,-1.772563,-0.991986,-0.687029\H,0,-1.256074,-1.777834,1

 Normal termination of Gaussian 16 at Wed Apr  9 02:12:19 2025.
