 Gaussian 16, Revision C.01,

 ----------------------------------------------------------------------
 #t hf aug-cc-pvdz symm=none int=(grid=ultrafine) guess=(read,tcheck) s
 table=(opt,rrhf)
 ----------------------------------------------------------------------
 -----
 title
 -----
 Symbolic Z-matrix:
 Charge =  0 Multiplicity = 1

 SCF Done:  E(RHF) =  -974.734116041     A.U. after   13 cycles
 Normal termination of Gaussian 16 at Wed Apr  9 00:56:07 2025.
 Gaussian 16:  ES64L-G16RevC.01  3-Jul-2019

 ----------------------------------------------------------------------
 #t hf aug-cc-pvdz iop(5/13=1,5/36=2,99/5=2) pseudo=read geom=check gue
 ss=(read,tcheck) scf=(maxcycle=1)
 ----------------------------------------------------------------------
 -----
 title
 -----
 Structure from the checkpoint file:  "BH10_102_reverse_mol3.chk"
 Charge =  0 Multiplicity = 1

                         Standard orientation:
 ---------------------------------------------------------------------
 Center     Atomic      Atomic             Coordinates (Angstroms)
 Number     Number       Type             X           Y           Z
 ---------------------------------------------------------------------
      1          6           0       -0.002065    0.338508    0.017708
      2          6           0        0.042281    1.237885   -1.206828
      3          6           0        0.087302    1.127566    1.312503
      4          1           0        0.005614    0.653224   -2.125464
      5          1           0        0.964011    1.819980   -1.202156
      6          1           0       -0.806871    1.924197   -1.189474
      7          1           0        1.012211    1.706388    1.333325
      8          1           0        0.076128    0.467646    2.179713
      9          1           0       -0.762077    1.808948    1.381623
     10         16           0       -1.538480   -0.639882   -0.084503
     11          1           0       -1.376838   -1.293766    1.078219
     12         17           0        1.455200   -0.768956   -0.049650
 ---------------------------------------------------------------------

 SCF Done:  E(RHF) =  -975.823978281     A.U. after    2 cycles

 The electronic state is 1-A.
 Alpha  occ. eigenvalues --  -99.87574 -75.69745 -13.15976 -13.11421 -13.03859
 Alpha  occ. eigenvalues --  -11.48346 -11.40835 -11.38341 -10.44876  -9.64835
 Alpha  occ. eigenvalues --   -9.64113  -9.64038  -8.03750  -1.37641  -1.20015
 Alpha  occ. eigenvalues --   -1.07621  -1.03861  -0.82564  -0.66600  -0.63983
 Alpha  occ. eigenvalues --   -0.62279  -0.57154  -0.53984  -0.51684  -0.50148
 Alpha  occ. eigenvalues --   -0.48220  -0.45712  -0.38541  -0.25608
 Alpha virt. eigenvalues --    0.03020   0.04946   0.05698   0.06053   0.06793
 Alpha virt. eigenvalues --    0.07050   0.07276   0.08012   0.09259   0.10953
 Alpha virt. eigenvalues --    0.13202   0.13595   0.14565   0.15210   0.16053

 Mulliken charges:
               1
     1  C   -1.298580
     2  C   -3.364972
     3  C   -3.244918
     4  H    1.288495
     5  H    1.207370
     6  H    1.266585
     7  H    1.222456
     8  H    1.201818
     9  H    1.335275
    10  S   -0.424680
    11  H    0.975187
    12  Cl  -0.164036
 Sum of Mulliken charges =  -0.00000

 Dipole moment (field-independent basis, Debye):
    X=             -2.5065    Y=              1.8211    Z=             -0.7816  Tot=              3.1953

 Test job not archived.
 1\1\GINC-SE345\SP\RHF\Aug-CC-pVDZ\C3H7Cl1S1\OHZDE\09-Apr-2025\0\\#t hf
  aug-cc-pvdz iop(5/13=1,5/36=2,99/5=2) pseudo=read geom=check guess=(r
 ead,tcheck) scf=(maxcycle=1)\\title\\0,1\C,0,-0.002065,0.338508,0.0177
 08\C,0,0.04228,1.237885,-1.206828\C,0,0.087301,1.127566,1.312503\H,0,0
 .005614,0.653224,-2.125464\H,0,0.96401,1.81998,-1.202156\H,0,-0.806872
 ,1.924197,-1.189474\H,0,1.01221,1.706388,1.333325\H,0,0.076128,0.46764
 6,2.179713\H,0,-0.762078,1.808948,1.381623\S,0,-1.53848,-0.639883,-0.0
 84503\H,0,-1.376838,-1.293767,1.078219\Cl,0,1.4552,-0.768956,-0.04965\

 Normal termination of Gaussian 16 at Wed Apr  9 00:56:12 2025.
