 Gaussian 16, Revision C.01,

 ----------------------------------------------------------------------
 #t hf aug-cc-pvdz symm=none int=(grid=ultrafine) guess=(read,tcheck) s
 table=(opt,rrhf)
 ----------------------------------------------------------------------
 -----
 title
 -----
 Symbolic Z-matrix:
 Charge =  0 Multiplicity = 1

 SCF Done:  E(RHF) =  -855.861017461     A.U. after   18 cycles
 Normal termination of Gaussian 16 at Wed Apr  9 02:13:25 2025.
 Gaussian 16:  ES64L-G16RevC.01  3-Jul-2019

 ----------------------------------------------------------------------
 #t hf aug-cc-pvdz iop(5/13=1,5/36=2,99/5=2) pseudo=read geom=check gue
 ss=(read,tcheck) scf=(maxcycle=1)
 ----------------------------------------------------------------------
 -----
 title
 -----
 Structure from the checkpoint file:  "BH10_92_forward_mol1.chk"
 Charge =  0 Multiplicity = 1

                         Standard orientation:
 ---------------------------------------------------------------------
 Center     Atomic      Atomic             Coordinates (Angstroms)
 Number     Number       Type             X           Y           Z
 ---------------------------------------------------------------------
      1          6           0       -0.907374    1.217133   -0.455359
      2          6           0       -0.474402    1.510775    0.810110
      3          6           0       -0.680469   -0.781424    0.951898
      4          6           0       -0.370654    0.374869    1.634761
      5          1           0       -0.811023   -1.755439    1.404689
      6          1           0        0.005516    0.394594    2.648853
      7          1           0       -0.164765    2.502450    1.114696
      8          1           0       -1.151325    1.933297   -1.226837
      9         16           0       -1.717344   -0.398406   -0.507970
     10          6           0        2.723605    0.292868    0.264588
     11          6           0        1.002059    0.027283   -1.207256
     12          6           0        0.930476   -1.114414   -0.421100
     13          6           0        2.173034   -1.129107    0.448433
     14          1           0        2.535174    0.928236    1.128204
     15          1           0        0.614729    0.163131   -2.203950
     16          1           0        0.523742   -2.029759   -0.824724
     17          1           0        2.876538   -1.878998    0.078645
     18          1           0        1.969274   -1.350090    1.496363
     19          1           0        3.786690    0.322303    0.026986
     20          8           0       -3.153259   -0.258251   -0.093224
     21          8           0        2.017673    0.852860   -0.865759
 ---------------------------------------------------------------------

 SCF Done:  E(RHF) =  -858.275750759     A.U. after    2 cycles

 The electronic state is 1-A.
 Alpha  occ. eigenvalues --  -75.78051 -21.08108 -20.99162 -13.34799 -13.25002
 Alpha  occ. eigenvalues --  -13.19854 -11.52720 -11.48750 -11.47485 -11.45137
 Alpha  occ. eigenvalues --  -11.42554 -11.42231 -11.38977 -11.38143  -8.12265
 Alpha  occ. eigenvalues --   -1.81093  -1.67336  -1.33938  -1.20599  -1.09480
 Alpha  occ. eigenvalues --   -1.05808  -1.04656  -0.87492  -0.82811  -0.82121
 Alpha  occ. eigenvalues --   -0.76959  -0.73808  -0.70985  -0.68293  -0.57784
 Alpha  occ. eigenvalues --   -0.56068  -0.55322  -0.54475  -0.52395  -0.51150
 Alpha  occ. eigenvalues --   -0.50891  -0.48576  -0.47813  -0.41838  -0.41188
 Alpha  occ. eigenvalues --   -0.36879  -0.36065  -0.30241  -0.24906  -0.24279
 Alpha virt. eigenvalues --    0.03126   0.03807   0.04212   0.04561   0.05059
 Alpha virt. eigenvalues --    0.05645   0.05734   0.06169   0.07210   0.08052
 Alpha virt. eigenvalues --    0.08743   0.09893   0.11195   0.11795   0.12101

 Mulliken charges:
               1
     1  C   -3.305950
     2  C   -0.422282
     3  C   -3.134904
     4  C   -0.927404
     5  H    1.569939
     6  H    1.596043
     7  H    1.598540
     8  H    1.424681
     9  S    3.249681
    10  C   -1.937125
    11  C    1.653478
    12  C   -1.148874
    13  C   -3.717602
    14  H    1.761116
    15  H    1.720638
    16  H    1.931033
    17  H    1.172230
    18  H    1.604587
    19  H    1.369165
    20  O   -2.493021
    21  O   -3.563966
 Sum of Mulliken charges =   0.00000

 Dipole moment (field-independent basis, Debye):
    X=              3.9931    Y=             -0.5964    Z=             -0.2283  Tot=              4.0438

 Test job not archived.
 1\1\GINC-SE036\SP\RHF\Aug-CC-pVDZ\C8H10O2S1\OHZDE\09-Apr-2025\0\\#t hf
  aug-cc-pvdz iop(5/13=1,5/36=2,99/5=2) pseudo=read geom=check guess=(r
 ead,tcheck) scf=(maxcycle=1)\\title\\0,1\C,0,-0.907374,1.217133,-0.455
 359\C,0,-0.474402,1.510775,0.81011\C,0,-0.680469,-0.781424,0.951898\C,
 0,-0.370654,0.374869,1.634761\H,0,-0.811023,-1.755439,1.404689\H,0,0.0
 05516,0.394594,2.648853\H,0,-0.164765,2.50245,1.114696\H,0,-1.151325,1
 .933297,-1.226837\S,0,-1.717344,-0.398406,-0.50797\C,0,2.723605,0.2928
 68,0.264588\C,0,1.002059,0.027283,-1.207256\C,0,0.930476,-1.114414,-0.

 Normal termination of Gaussian 16 at Wed Apr  9 02:13:42 2025.
