 Gaussian 16, Revision C.01,

 ----------------------------------------------------------------------
 #t hf aug-cc-pvdz symm=none int=(grid=ultrafine) guess=(read,tcheck) s
 table=(opt,rrhf)
 ----------------------------------------------------------------------
 -----
 title
 -----
 Symbolic Z-matrix:
 Charge =  0 Multiplicity = 1

 SCF Done:  E(RHF) =  -1135.59342989     A.U. after   13 cycles
 Normal termination of Gaussian 16 at Wed Apr  9 01:48:03 2025.
 Gaussian 16:  ES64L-G16RevC.01  3-Jul-2019

 ----------------------------------------------------------------------
 #t hf aug-cc-pvdz iop(5/13=1,5/36=2,99/5=2) pseudo=read geom=check gue
 ss=(read,tcheck) scf=(maxcycle=1)
 ----------------------------------------------------------------------
 -----
 title
 -----
 Structure from the checkpoint file:  "BH10_326_reverse_mol2.chk"
 Charge =  0 Multiplicity = 1

                         Standard orientation:
 ---------------------------------------------------------------------
 Center     Atomic      Atomic             Coordinates (Angstroms)
 Number     Number       Type             X           Y           Z
 ---------------------------------------------------------------------
      1          6           0        0.112654   -0.631063   -0.507512
      2          6           0       -1.012663   -1.464056    0.057494
      3          8           0       -0.397333    0.679659   -0.589966
      4          6           0       -1.675189   -0.491743    1.061728
      5          6           0       -1.288429    0.915878    0.528983
      6          6           0       -2.437357    1.751323    0.011515
      7          1           0       -0.742141    1.480074    1.289172
      8          8           0        1.185504   -0.686443    0.421506
      9         15           0        2.573969    0.101351    0.159836
     10          8           0        3.558557   -0.108968    1.215008
     11          8           0        2.124771    1.599479   -0.103366
     12          8           0        3.011073   -0.413059   -1.301136
     13          8           0       -3.255349    1.021004   -0.890754
     14          1           0       -2.043289    2.655214   -0.462421
     15          1           0       -3.078920    2.050306    0.840693
     16          1           0       -2.694876    0.643309   -1.579994
     17          8           0       -3.054724   -0.719700    1.197251
     18          1           0       -1.236532   -0.643126    2.046518
     19          1           0       -3.499963   -0.310061    0.437426
     20          8           0       -1.876926   -1.763167   -1.014571
     21          1           0       -0.635330   -2.368215    0.537745
     22          1           0       -2.686796   -2.131286   -0.643752
     23          1           0        1.223851    1.667041   -0.468823
     24          1           0        3.782678   -0.989189   -1.277043
     25          1           0        0.443088   -0.926810   -1.502075
 ---------------------------------------------------------------------

 SCF Done:  E(RHF) =  -1139.17214691     A.U. after    2 cycles

 The electronic state is 1-A.
 Alpha  occ. eigenvalues -- -105.33403 -21.12204 -21.11253 -21.09823 -21.09820
 Alpha  occ. eigenvalues --  -21.09616 -21.09412 -21.08369 -21.02855 -11.58754
 Alpha  occ. eigenvalues --  -11.53588 -11.49338 -11.46375 -11.42314  -2.96507
 Alpha  occ. eigenvalues --   -2.01872  -1.94440  -1.92239  -1.84467  -1.75833
 Alpha  occ. eigenvalues --   -1.75139  -1.73629  -1.71169  -1.45131  -1.41244
 Alpha  occ. eigenvalues --   -1.25729  -1.17231  -1.12276  -0.98767  -0.86649
 Alpha  occ. eigenvalues --   -0.84927  -0.77064  -0.74622  -0.70085  -0.68687
 Alpha  occ. eigenvalues --   -0.65640  -0.64632  -0.60911  -0.59740  -0.58126
 Alpha  occ. eigenvalues --   -0.57337  -0.53732  -0.53057  -0.52175  -0.48499
 Alpha  occ. eigenvalues --   -0.45900  -0.44520  -0.44151  -0.43416  -0.40567
 Alpha  occ. eigenvalues --   -0.38310  -0.36869  -0.36392  -0.35790  -0.35284
 Alpha  occ. eigenvalues --   -0.33213  -0.32043  -0.29245  -0.27172  -0.16223
 Alpha virt. eigenvalues --    0.03453   0.03823   0.04473   0.04872   0.05468
 Alpha virt. eigenvalues --    0.06140   0.06337   0.06779   0.07010   0.08051
 Alpha virt. eigenvalues --    0.09106   0.10677   0.11185   0.12040   0.12274

 Mulliken charges:
               1
     1  C    2.211003
     2  C    0.090528
     3  O   -3.639934
     4  C    2.215100
     5  C   -0.911510
     6  C   -1.035125
     7  H    1.952821
     8  O   -4.163629
     9  P    8.889486
    10  O   -2.805032
    11  O   -3.167228
    12  O   -2.894719
    13  O   -2.582865
    14  H    1.334157
    15  H    1.377286
    16  H    0.808378
    17  O   -3.631341
    18  H    1.615141
    19  H    0.742610
    20  O   -3.451893
    21  H    1.853778
    22  H    0.749695
    23  H    1.357898
    24  H    1.048919
    25  H    2.036476
 Sum of Mulliken charges =  -0.00000

 Dipole moment (field-independent basis, Debye):
    X=             -3.1767    Y=              0.0310    Z=             -2.3818  Tot=              3.9705

 Test job not archived.
 1\1\GINC-SE173\SP\RHF\Aug-CC-pVDZ\C5H11O8P1\OHZDE\09-Apr-2025\0\\#t hf
  aug-cc-pvdz iop(5/13=1,5/36=2,99/5=2) pseudo=read geom=check guess=(r
 ead,tcheck) scf=(maxcycle=1)\\title\\0,1\C,0,0.112654,-0.631063,-0.507
 512\C,0,-1.012663,-1.464056,0.057494\O,0,-0.397333,0.679659,-0.589966\
 C,0,-1.675189,-0.491743,1.061728\C,0,-1.288429,0.915878,0.528983\C,0,-
 2.437357,1.751323,0.011515\H,0,-0.742141,1.480074,1.289172\O,0,1.18550
 4,-0.686443,0.421506\P,0,2.573969,0.101351,0.159836\O,0,3.558557,-0.10
 8968,1.215008\O,0,2.124771,1.599479,-0.103366\O,0,3.011073,-0.413059,-

 Normal termination of Gaussian 16 at Wed Apr  9 01:48:28 2025.
