 Gaussian 16, Revision C.01,

 ----------------------------------------------------------------------
 #t hf aug-cc-pvdz symm=none int=(grid=ultrafine) guess=(read,tcheck) s
 table=(opt,rrhf)
 ----------------------------------------------------------------------
 -----
 title
 -----
 Symbolic Z-matrix:
 Charge =  0 Multiplicity = 1

 SCF Done:  E(RHF) =  -679.006770612     A.U. after   14 cycles
 Normal termination of Gaussian 16 at Wed Apr  9 01:25:20 2025.
 Gaussian 16:  ES64L-G16RevC.01  3-Jul-2019

 ----------------------------------------------------------------------
 #t hf aug-cc-pvdz iop(5/13=1,5/36=2,99/5=2) pseudo=read geom=check gue
 ss=(read,tcheck) scf=(maxcycle=1)
 ----------------------------------------------------------------------
 -----
 title
 -----
 Structure from the checkpoint file:  "BH10_286_forward_mol2.chk"
 Charge =  0 Multiplicity = 1

                         Standard orientation:
 ---------------------------------------------------------------------
 Center     Atomic      Atomic             Coordinates (Angstroms)
 Number     Number       Type             X           Y           Z
 ---------------------------------------------------------------------
      1          6           0        0.755081   -0.482080    0.964817
      2          1           0       -0.180782   -0.604220    1.516197
      3          5           0        0.562057    0.151105   -0.449731
      4          6           0        1.367236   -1.887745    0.751810
      5          1           0        0.588943   -2.525137    0.316154
      6          1           0        1.611484   -2.334717    1.721695
      7          6           0        1.652280    0.495338    1.764258
      8          1           0        1.059261    1.393340    1.973959
      9          6           0       -4.608805   -1.909847    0.192944
     10          1           0       -4.277445   -2.801491   -0.328607
     11          1           0       -5.572431   -1.956189    0.683523
     12          6           0       -3.864263   -0.805839    0.229827
     13          6           0       -2.567182   -0.674050   -0.406890
     14          1           0       -4.224723    0.066409    0.765025
     15          1           0        1.890905    0.060180    2.740844
     16          6           0       -1.818405    0.425801   -0.338863
     17          8           0       -0.629396    0.552413   -0.998201
     18          8           0       -2.164491    1.500947    0.395819
     19          6           0       -1.970286    2.779710   -0.207449
     20          1           0       -0.914696    2.971387   -0.401424
     21          1           0       -2.531462    2.849278   -1.142724
     22          1           0       -2.352348    3.504901    0.506695
     23          6           0        2.953978    0.915715    1.064300
     24          1           0        3.374708    1.775113    1.594768
     25          1           0        3.696020    0.124572    1.163823
     26          6           0        1.895539    0.323109   -1.239772
     27          1           0        1.737225    0.765169   -2.227786
     28          6           0        2.786646    1.285658   -0.417883
     29          1           0        2.341794    2.286056   -0.480440
     30          1           0        3.774436    1.368157   -0.884633
     31          6           0        2.490776   -1.092172   -1.435235
     32          1           0        3.474985   -1.019286   -1.911039
     33          1           0        1.851528   -1.625451   -2.148598
     34          6           0        2.607124   -1.934637   -0.155220
     35          1           0        2.795103   -2.974941   -0.436752
     36          1           0        3.486431   -1.625859    0.408824
     37          1           0       -2.166436   -1.513443   -0.961667
 ---------------------------------------------------------------------

 SCF Done:  E(RHF) =  -682.255836509     A.U. after    2 cycles

 The electronic state is 1-A.
 Alpha  occ. eigenvalues --  -21.07846 -21.05421 -11.53365 -11.46098 -11.43745
 Alpha  occ. eigenvalues --  -11.42902 -11.42873 -11.42489 -11.41194 -11.39091
 Alpha  occ. eigenvalues --  -11.38461 -11.36840 -11.36328 -11.35034 -11.34426
 Alpha  occ. eigenvalues --   -7.61442  -1.87085  -1.73659  -1.33744  -1.20904
 Alpha  occ. eigenvalues --   -1.17303  -1.15845  -1.07149  -1.02384  -0.98559
 Alpha  occ. eigenvalues --   -0.97924  -0.85507  -0.83542  -0.82616  -0.79717
 Alpha  occ. eigenvalues --   -0.75454  -0.69856  -0.68118  -0.66299  -0.64301
 Alpha  occ. eigenvalues --   -0.63161  -0.60978  -0.60425  -0.59661  -0.58759
 Alpha  occ. eigenvalues --   -0.57705  -0.56040  -0.54694  -0.53252  -0.52683
 Alpha  occ. eigenvalues --   -0.50690  -0.49732  -0.48424  -0.46188  -0.43869
 Alpha  occ. eigenvalues --   -0.43759  -0.43571  -0.42444  -0.41673  -0.40147
 Alpha  occ. eigenvalues --   -0.37297  -0.36543  -0.35598  -0.29760  -0.25906
 Alpha virt. eigenvalues --    0.03626   0.04599   0.04808   0.05007   0.05177
 Alpha virt. eigenvalues --    0.05417   0.05761   0.05985   0.06030   0.06178
 Alpha virt. eigenvalues --    0.06477   0.06628   0.07071   0.07664   0.07884

 Mulliken charges:
               1
     1  C   -4.208779
     2  H    1.524212
     3  B   13.585249
     4  C   -3.646384
     5  H    1.296348
     6  H    1.342551
     7  C   -3.702369
     8  H    1.437277
     9  C   -4.504086
    10  H    1.507482
    11  H    1.344188
    12  C    0.545091
    13  C   -3.227110
    14  H    1.730807
    15  H    1.269997
    16  C    9.005756
    17  O   -8.428400
    18  O   -4.349839
    19  C   -4.071525
    20  H    1.972046
    21  H    1.368707
    22  H    1.281257
    23  C   -2.226369
    24  H    1.235074
    25  H    1.614557
    26  C   -3.072430
    27  H    1.472358
    28  C   -4.431030
    29  H    1.042783
    30  H    1.293399
    31  C   -3.813479
    32  H    1.286471
    33  H    1.092476
    34  C   -2.875459
    35  H    1.214023
    36  H    1.511263
    37  H    1.583888
 Sum of Mulliken charges =  -0.00000

 Dipole moment (field-independent basis, Debye):
    X=              0.9556    Y=              1.2495    Z=              0.2243  Tot=              1.5890

 Test job not archived.
 1\1\GINC-SE220\SP\RHF\Aug-CC-pVDZ\C13H21B1O2\OHZDE\09-Apr-2025\0\\#t h
 f aug-cc-pvdz iop(5/13=1,5/36=2,99/5=2) pseudo=read geom=check guess=(
 read,tcheck) scf=(maxcycle=1)\\title\\0,1\C,0,0.755081,-0.48208,0.9648
 17\H,0,-0.180782,-0.60422,1.516197\B,0,0.562057,0.151105,-0.449731\C,0
 ,1.367236,-1.887745,0.75181\H,0,0.588943,-2.525137,0.316154\H,0,1.6114
 84,-2.334717,1.721695\C,0,1.65228,0.495338,1.764258\H,0,1.059261,1.393
 34,1.973959\C,0,-4.608805,-1.909847,0.192944\H,0,-4.277445,-2.801491,-
 0.328607\H,0,-5.572431,-1.956189,0.683523\C,0,-3.864263,-0.805839,0.22

 Normal termination of Gaussian 16 at Wed Apr  9 01:26:21 2025.
