 Gaussian 16, Revision C.01,

 ----------------------------------------------------------------------
 #t hf aug-cc-pvdz symm=none int=(grid=ultrafine) guess=(read,tcheck) s
 table=(opt,rrhf)
 ----------------------------------------------------------------------
 -----
 title
 -----
 Symbolic Z-matrix:
 Charge =  0 Multiplicity = 1

 SCF Done:  E(RHF) =  -650.225382215     A.U. after   16 cycles
 Normal termination of Gaussian 16 at Wed Apr  9 01:00:45 2025.
 Gaussian 16:  ES64L-G16RevC.01  3-Jul-2019

 ----------------------------------------------------------------------
 #t hf aug-cc-pvdz iop(5/13=1,5/36=2,99/5=2) pseudo=read geom=check gue
 ss=(read,tcheck) scf=(maxcycle=1)
 ----------------------------------------------------------------------
 -----
 title
 -----
 Structure from the checkpoint file:  "BH10_109_forward_mol2.chk"
 Charge =  0 Multiplicity = 1

                         Standard orientation:
 ---------------------------------------------------------------------
 Center     Atomic      Atomic             Coordinates (Angstroms)
 Number     Number       Type             X           Y           Z
 ---------------------------------------------------------------------
      1          6           0        2.528616    0.008368    0.000061
      2          6           0        3.089589   -0.616341   -1.265909
      3          6           0        1.012332    0.014220    0.000018
      4          6           0        3.089506   -0.616179    1.266150
      5          1           0        2.710059   -0.092247   -2.143495
      6          1           0        2.804114   -1.666476   -1.339432
      7          1           0        4.178251   -0.550253   -1.256446
      8          6           0        0.303515    1.210673   -0.000041
      9          6           0        0.312899   -1.192665    0.000044
     10          1           0        2.804004   -1.666297    1.339798
     11          1           0        2.709933   -0.091957    2.143641
     12          1           0        4.178170   -0.550113    1.256743
     13          6           0       -1.069468   -1.211024    0.000016
     14          6           0       -1.746706   -0.003336   -0.000045
     15          6           0       -1.082654    1.208663   -0.000075
     16          1           0        0.842474    2.147015   -0.000062
     17          1           0       -1.649142    2.128919   -0.000125
     18          1           0        0.847885   -2.134195    0.000088
     19          1           0       -1.625885   -2.137211    0.000040
     20          7           0       -3.219010   -0.012843   -0.000076
     21          8           0       -3.775874   -1.093837    0.000041
     22          8           0       -3.790718    1.059704   -0.000219
     23          9           0        2.960019    1.351279   -0.000012
 ---------------------------------------------------------------------

 SCF Done:  E(RHF) =  -653.104944125     A.U. after    2 cycles

 The electronic state is 1-A.
 Alpha  occ. eigenvalues --  -29.25573 -21.09266 -21.09142 -16.00071 -11.55696
 Alpha  occ. eigenvalues --  -11.52025 -11.47685 -11.47528 -11.47158 -11.44214
 Alpha  occ. eigenvalues --  -11.41849 -11.41615 -11.39566  -2.00669  -1.69333
 Alpha  occ. eigenvalues --   -1.41743  -1.30022  -1.16609  -1.13289  -1.04985
 Alpha  occ. eigenvalues --   -1.01205  -0.93521  -0.89710  -0.83304  -0.75985
 Alpha  occ. eigenvalues --   -0.71963  -0.68095  -0.67664  -0.66084  -0.63368
 Alpha  occ. eigenvalues --   -0.62783  -0.61569  -0.58555  -0.57592  -0.56958
 Alpha  occ. eigenvalues --   -0.53738  -0.53390  -0.50136  -0.48428  -0.46618
 Alpha  occ. eigenvalues --   -0.36462  -0.36108  -0.35895  -0.35563  -0.31317
 Alpha  occ. eigenvalues --   -0.31083  -0.25878  -0.25828
 Alpha virt. eigenvalues --    0.02982   0.04139   0.04966   0.05055   0.05705
 Alpha virt. eigenvalues --    0.05768   0.06340   0.07044   0.07268   0.08161
 Alpha virt. eigenvalues --    0.08335   0.09069   0.10644   0.11116   0.11608

 Mulliken charges:
               1
     1  C    1.778223
     2  C   -5.082962
     3  C    3.512452
     4  C   -5.083001
     5  H    1.195613
     6  H    1.238994
     7  H    1.218317
     8  C   -1.585709
     9  C   -0.020416
    10  H    1.239004
    11  H    1.195618
    12  H    1.218343
    13  C   -4.120019
    14  C    1.021951
    15  C   -2.900031
    16  H    2.005027
    17  H    1.854074
    18  H    2.149996
    19  H    1.823908
    20  N    3.551560
    21  O   -3.090704
    22  O   -3.098915
    23  F   -0.021323
 Sum of Mulliken charges =  -0.00000

 Dipole moment (field-independent basis, Debye):
    X=              4.0044    Y=              1.0213    Z=              0.0000  Tot=              4.1325

 Test job not archived.
 1\1\GINC-SE097\SP\RHF\Aug-CC-pVDZ\C9H10F1N1O2\OHZDE\09-Apr-2025\0\\#t
 hf aug-cc-pvdz iop(5/13=1,5/36=2,99/5=2) pseudo=read geom=check guess=
 (read,tcheck) scf=(maxcycle=1)\\title\\0,1\C,0,2.528616,0.008368,0.000
 061\C,0,3.089589,-0.616341,-1.265909\C,0,1.012332,0.01422,0.000018\C,0
 ,3.089506,-0.616179,1.26615\H,0,2.710059,-0.092247,-2.143495\H,0,2.804
 114,-1.666476,-1.339432\H,0,4.178251,-0.550253,-1.256446\C,0,0.303515,
 1.210673,-0.000041\C,0,0.312899,-1.192665,0.000044\H,0,2.804004,-1.666
 297,1.339798\H,0,2.709933,-0.091957,2.143641\H,0,4.17817,-0.550113,1.2

 Normal termination of Gaussian 16 at Wed Apr  9 01:01:03 2025.
