 Gaussian 16, Revision C.01,

 ----------------------------------------------------------------------
 #t hf aug-cc-pvdz symm=none int=(grid=ultrafine) guess=(read,tcheck) s
 table=(opt,rrhf)
 ----------------------------------------------------------------------
 -----
 title
 -----
 Symbolic Z-matrix:
 Charge =  0 Multiplicity = 1

 SCF Done:  E(RHF) =  -1125.27065551     A.U. after   15 cycles
 Normal termination of Gaussian 16 at Wed Apr  9 02:32:46 2025.
 Gaussian 16:  ES64L-G16RevC.01  3-Jul-2019

 ----------------------------------------------------------------------
 #t hf aug-cc-pvdz iop(5/13=1,5/36=2,99/5=2) pseudo=read geom=check gue
 ss=(read,tcheck) scf=(maxcycle=1)
 ----------------------------------------------------------------------
 -----
 title
 -----
 Structure from the checkpoint file:  "BH10_298_reverse_mol2.chk"
 Charge =  0 Multiplicity = 1

                         Standard orientation:
 ---------------------------------------------------------------------
 Center     Atomic      Atomic             Coordinates (Angstroms)
 Number     Number       Type             X           Y           Z
 ---------------------------------------------------------------------
      1          6           0       -0.995073   -2.773659   -0.480642
      2          6           0       -0.184826   -1.573462   -1.054403
      3          6           0       -2.409676    0.024917    0.401260
      4          1           0       -0.294902   -3.582805   -0.259241
      5          6           0       -0.879833   -0.906619   -2.263217
      6          1           0       -0.367776    0.029594   -2.512017
      7          1           0       -0.735834   -1.560443   -3.130220
      8          1           0       -3.023258    0.699244    1.005242
      9          1           0        0.750305   -1.986348   -1.441922
     10          6           0       -2.376507   -0.643664   -2.131389
     11          1           0       -2.743626   -0.271490   -3.093105
     12          1           0       -2.895310   -1.592828   -1.973321
     13          6           0       -2.802209    0.344880   -1.051443
     14          1           0       -2.437591    1.340327   -1.315884
     15          1           0       -3.894877    0.415920   -1.083597
     16          6           0       -2.844117   -1.404492    0.812064
     17          1           0       -3.239713   -1.361472    1.831553
     18          6           0       -1.782639   -2.508622    0.808949
     19          1           0       -1.066714   -2.302299    1.610146
     20          1           0       -2.274586   -3.441203    1.103092
     21          1           0       -3.689809   -1.704435    0.184212
     22          1           0       -1.662547   -3.164570   -1.254607
     23          6           0       -0.933527    0.341695    0.750742
     24          1           0       -0.809942    0.259525    1.843327
     25         14           0       -0.502946    2.203326    0.543278
     26          6           0        0.032678    2.685351   -1.194397
     27          1           0       -0.754455    2.564308   -1.939523
     28          1           0        0.333526    3.737128   -1.200372
     29          1           0        0.896260    2.096848   -1.508857
     30          6           0        0.895116    2.682726    1.706822
     31          1           0        0.944468    3.772874    1.780500
     32          1           0        0.745993    2.294522    2.717575
     33          1           0        1.862953    2.336455    1.341454
     34          6           0       -2.013118    3.214866    1.027156
     35          1           0       -2.337811    2.982367    2.044762
     36          1           0       -1.766467    4.279701    0.995584
     37          1           0       -2.862275    3.053032    0.361010
     38          5           0        0.138879   -0.591179    0.132686
     39          6           0        1.730952   -1.964901    1.511786
     40          6           0        1.609599   -0.647104    0.801248
     41          6           0        1.574635   -2.121606    2.818657
     42          1           0        1.366633   -1.281189    3.473134
     43          1           0        1.653746   -3.097560    3.281188
     44          6           0        2.651158   -0.507073   -0.267886
     45          8           0        3.223136   -1.400600   -0.834348
     46          8           0        2.848494    0.791310   -0.577280
     47          6           0        3.786925    1.048333   -1.625820
     48          1           0        3.467848    0.565928   -2.549588
     49          1           0        3.805505    2.128694   -1.744524
     50          1           0        4.773836    0.675840   -1.352818
     51          1           0        1.725335    0.169475    1.512025
     52          1           0        1.947669   -2.820886    0.881561
 ---------------------------------------------------------------------

 SCF Done:  E(RHF) =  -1129.54481790     A.U. after    2 cycles

 The electronic state is 1-A.
 Alpha  occ. eigenvalues --  -76.18428 -21.08982 -21.04255 -11.55215 -11.47241
 Alpha  occ. eigenvalues --  -11.45810 -11.45339 -11.45163 -11.42769 -11.42133
 Alpha  occ. eigenvalues --  -11.41872 -11.40528 -11.38532 -11.38394 -11.37111
 Alpha  occ. eigenvalues --  -11.36411 -11.35472 -11.35244 -11.35027 -11.34422
 Alpha  occ. eigenvalues --   -7.62201  -5.52551  -2.17336  -2.16643  -2.16526
 Alpha  occ. eigenvalues --   -1.84702  -1.66109  -1.33930  -1.24338  -1.19301
 Alpha  occ. eigenvalues --   -1.17104  -1.10647  -1.06965  -1.05370  -1.00869
 Alpha  occ. eigenvalues --   -1.00529  -0.99078  -0.98046  -0.94268  -0.85805
 Alpha  occ. eigenvalues --   -0.83303  -0.81085  -0.75639  -0.74303  -0.69474
 Alpha  occ. eigenvalues --   -0.68499  -0.67247  -0.65286  -0.63775  -0.62909
 Alpha  occ. eigenvalues --   -0.61493  -0.60996  -0.59629  -0.59455  -0.58104
 Alpha  occ. eigenvalues --   -0.57574  -0.56909  -0.56381  -0.55970  -0.55139
 Alpha  occ. eigenvalues --   -0.54660  -0.54567  -0.53602  -0.53080  -0.52942
 Alpha  occ. eigenvalues --   -0.51649  -0.48166  -0.47904  -0.47101  -0.45797
 Alpha  occ. eigenvalues --   -0.44904  -0.43354  -0.42216  -0.41356  -0.41250
 Alpha  occ. eigenvalues --   -0.39556  -0.39283  -0.38000  -0.37566  -0.36395
 Alpha  occ. eigenvalues --   -0.33872  -0.32209  -0.31413  -0.28276
 Alpha virt. eigenvalues --    0.03846   0.04325   0.04544   0.04826   0.05016
 Alpha virt. eigenvalues --    0.05170   0.05376   0.05553   0.05605   0.05694
 Alpha virt. eigenvalues --    0.05907   0.06085   0.06197   0.06599   0.06980

 Mulliken charges:
               1
     1  C   -3.736613
     2  C   -5.615375
     3  C    0.818409
     4  H    1.123673
     5  C   -5.307959
     6  H    1.200741
     7  H    1.279446
     8  H    1.616705
     9  H    0.755386
    10  C   -3.158410
    11  H    1.430751
    12  H    1.456136
    13  C   -5.075799
    14  H    1.569971
    15  H    1.321479
    16  C   -4.750197
    17  H    1.112523
    18  C   -4.314383
    19  H    1.275888
    20  H    1.657906
    21  H    1.334145
    22  H    1.490426
    23  C  -10.092022
    24  H    0.691657
    25  Si  15.110296
    26  C   -7.282652
    27  H    1.011093
    28  H    0.956852
    29  H    1.552448
    30  C   -7.032898
    31  H    0.993537
    32  H    0.661940
    33  H    1.335270
    34  C   -7.285181
    35  H    0.888386
    36  H    0.953302
    37  H    0.953105
    38  B   25.489818
    39  C   -1.423963
    40  C   -6.508425
    41  C   -5.250374
    42  H    1.392557
    43  H    1.473231
    44  C    8.612330
    45  O   -4.014538
    46  O   -3.814634
    47  C   -4.286723
    48  H    1.595145
    49  H    1.467280
    50  H    1.434923
    51  H    1.628920
    52  H    1.304472
 Sum of Mulliken charges =  -0.00000

 Dipole moment (field-independent basis, Debye):
    X=             -0.6666    Y=              1.0370    Z=             -0.1361  Tot=              1.2403

 Test job not archived.
 1\1\GINC-SE343\SP\RHF\Aug-CC-pVDZ\C17H31B1O2Si1\OHZDE\09-Apr-2025\0\\#
 t hf aug-cc-pvdz iop(5/13=1,5/36=2,99/5=2) pseudo=read geom=check gues
 s=(read,tcheck) scf=(maxcycle=1)\\title\\0,1\C,0,-0.995073,-2.773659,-
 0.480642\C,0,-0.184826,-1.573462,-1.054403\C,0,-2.409676,0.024917,0.40
 126\H,0,-0.294902,-3.582805,-0.259241\C,0,-0.879833,-0.906619,-2.26321
 7\H,0,-0.367776,0.029594,-2.512017\H,0,-0.735834,-1.560443,-3.13022\H,
 0,-3.023258,0.699244,1.005242\H,0,0.750305,-1.986348,-1.441922\C,0,-2.
 376507,-0.643664,-2.131389\H,0,-2.743626,-0.27149,-3.093105\H,0,-2.895

 Normal termination of Gaussian 16 at Wed Apr  9 02:35:43 2025.
