 Gaussian 16, Revision C.01,

 ----------------------------------------------------------------------
 #t hf aug-cc-pvdz symm=none int=(grid=ultrafine) guess=(read,tcheck) s
 table=(opt,rrhf)
 ----------------------------------------------------------------------
 -----
 title
 -----
 Symbolic Z-matrix:
 Charge = -1 Multiplicity = 1

 SCF Done:  E(RHF) =  -1360.60793802     A.U. after   16 cycles
 Normal termination of Gaussian 16 at Wed Apr  9 01:42:05 2025.
 Gaussian 16:  ES64L-G16RevC.01  3-Jul-2019

 ----------------------------------------------------------------------
 #t hf aug-cc-pvdz iop(5/13=1,5/36=2,99/5=2) pseudo=read geom=check gue
 ss=(read,tcheck) scf=(maxcycle=1)
 ----------------------------------------------------------------------
 -----
 title
 -----
 Structure from the checkpoint file:  "BH10_313_forward_mol2.chk"
 Charge = -1 Multiplicity = 1

                         Standard orientation:
 ---------------------------------------------------------------------
 Center     Atomic      Atomic             Coordinates (Angstroms)
 Number     Number       Type             X           Y           Z
 ---------------------------------------------------------------------
      1          6           0       -1.089824    1.078966    0.256177
      2          6           0       -2.578367    0.770856    0.215668
      3          6           0       -2.852755   -0.704058    0.538416
      4          1           0       -2.941430    0.981401   -0.789547
      5          1           0       -3.119968    1.414519    0.907997
      6          6           0       -1.863336   -1.649986   -0.130878
      7          6           0       -0.441165   -1.189287    0.038978
      8          8           0       -0.414413    0.112741   -0.535815
      9          6           0       -0.738099    2.435454   -0.400815
     10          6           0        0.710160   -1.975771   -0.538953
     11          8           0        1.883098   -1.670923    0.200457
     12          1           0        0.844266   -1.739786   -1.597759
     13          1           0        0.531298   -3.045267   -0.425285
     14         15           0        2.677254   -0.232724   -0.001918
     15          8           0        1.935708    0.860777    0.747655
     16          8           0        3.043118   -0.068664   -1.431976
     17          8           0        3.975797   -0.578541    0.917154
     18          1           0        4.596099   -1.104302    0.404151
     19          8           0       -2.241422   -2.647914   -0.700866
     20          8           0       -4.173148   -1.056326    0.204148
     21          1           0       -2.691023   -0.859017    1.615652
     22          1           0       -4.111834   -1.893741   -0.278054
     23          8           0       -1.595494    3.183377   -0.799949
     24          8           0        0.543369    2.717809   -0.455324
     25          1           0        1.139000    1.993795   -0.085752
     26          8           0       -0.629671    1.053841    1.574355
     27          1           0        0.355799    1.014512    1.531488
     28          1           0       -0.256241   -1.117722    1.115612
 ---------------------------------------------------------------------

 SCF Done:  E(RHF) =  -1365.13783270     A.U. after    2 cycles

 The electronic state is 1-A.
 Alpha  occ. eigenvalues -- -105.16391 -20.98632 -20.98322 -20.96867 -20.96807
 Alpha  occ. eigenvalues --  -20.96174 -20.95963 -20.93809 -20.92712 -20.87807
 Alpha  occ. eigenvalues --  -20.86627 -11.46062 -11.44113 -11.41487 -11.39417
 Alpha  occ. eigenvalues --  -11.37993 -11.34114 -11.30941  -2.79137  -1.83743
 Alpha  occ. eigenvalues --   -1.77655  -1.75969  -1.72725  -1.68176  -1.65936
 Alpha  occ. eigenvalues --   -1.60339  -1.58436  -1.57307  -1.52907  -1.29704
 Alpha  occ. eigenvalues --   -1.20514  -1.08561  -1.08004  -1.04747  -0.90116
 Alpha  occ. eigenvalues --   -0.82862  -0.79654  -0.69001  -0.66680  -0.61564
 Alpha  occ. eigenvalues --   -0.60475  -0.59169  -0.54438  -0.52161  -0.51519
 Alpha  occ. eigenvalues --   -0.50007  -0.48480  -0.46282  -0.44268  -0.43474
 Alpha  occ. eigenvalues --   -0.41405  -0.40168  -0.38888  -0.37561  -0.36367
 Alpha  occ. eigenvalues --   -0.34992  -0.33383  -0.32420  -0.30071  -0.29150
 Alpha  occ. eigenvalues --   -0.27979  -0.25914  -0.23929  -0.23628  -0.22075
 Alpha  occ. eigenvalues --   -0.21679  -0.20282  -0.18926  -0.17882  -0.16140
 Alpha  occ. eigenvalues --   -0.15991  -0.14129  -0.09447  -0.00456
 Alpha virt. eigenvalues --    0.12392   0.12585   0.13162   0.13350   0.13409
 Alpha virt. eigenvalues --    0.14784   0.15170   0.16657   0.17397   0.17671
 Alpha virt. eigenvalues --    0.18078   0.19339   0.20599   0.20894   0.21216

 Mulliken charges:
               1
     1  C    6.736530
     2  C   -3.982423
     3  C    1.649656
     4  H    1.318018
     5  H    1.293279
     6  C    4.495620
     7  C   -1.027849
     8  O   -3.724863
     9  C    6.174776
    10  C   -2.336593
    11  O   -4.084539
    12  H    1.527733
    13  H    1.315992
    14  P    9.507375
    15  O   -3.629373
    16  O   -2.866016
    17  O   -2.792106
    18  H    0.816514
    19  O   -3.903580
    20  O   -3.431297
    21  H    1.414269
    22  H    0.589887
    23  O   -3.526236
    24  O   -3.673268
    25  H    1.774217
    26  O   -4.189090
    27  H    1.003653
    28  H    2.549715
 Sum of Mulliken charges =  -1.00000

 Dipole moment (field-independent basis, Debye):
    X=             -3.3396    Y=             -3.9748    Z=              2.5284  Tot=              5.7746

 Test job not archived.
 1\1\GINC-SE116\SP\RHF\Aug-CC-pVDZ\C7H10O10P1(1-)\OHZDE\09-Apr-2025\0\\
 #t hf aug-cc-pvdz iop(5/13=1,5/36=2,99/5=2) pseudo=read geom=check gue
 ss=(read,tcheck) scf=(maxcycle=1)\\title\\-1,1\C,0,-1.089824,1.078966,
 0.256177\C,0,-2.578367,0.770856,0.215668\C,0,-2.852755,-0.704058,0.538
 416\H,0,-2.94143,0.981401,-0.789547\H,0,-3.119968,1.414519,0.907997\C,
 0,-1.863336,-1.649986,-0.130878\C,0,-0.441165,-1.189287,0.038978\O,0,-
 0.414413,0.112741,-0.535815\C,0,-0.738099,2.435454,-0.400815\C,0,0.710
 16,-1.975771,-0.538953\O,0,1.883098,-1.670923,0.200457\H,0,0.844266,-1

 Normal termination of Gaussian 16 at Wed Apr  9 01:42:48 2025.
