 Gaussian 16, Revision C.01,

 ----------------------------------------------------------------------
 #t hf aug-cc-pvdz symm=none int=(grid=ultrafine) guess=(read,tcheck) s
 table=opt
 ----------------------------------------------------------------------
 -----
 title
 -----
 Symbolic Z-matrix:
 Charge =  0 Multiplicity = 2

 SCF Done:  E(UHF) =  -1465.23720462     A.U. after   18 cycles

 1\1\GINC-SE045\Stability\UHF\Aug-CC-pVDZ\C7H13S3\OHZDE\09-Apr-2025\0\\
 #t hf aug-cc-pvdz symm=none int=(grid=ultrafine) guess=(read,tcheck) s
 table=opt\\title\\0,2\C,0,0.262198,-1.907548,0.57679\H,0,0.271418,-2.6
 10818,-0.261651\H,0,-0.108039,-2.47985,1.438634\C,0,1.701787,-1.456627
 ,0.871813\H,0,1.691184,-0.654355,1.614594\C,0,2.032275,0.209945,-1.097
 733\H,0,2.671658,0.379787,-1.965432\H,0,2.223966,-2.293418,1.344053\H,
 0,1.015354,0.092513,-1.46596\C,0,2.512615,-1.031244,-0.352149\H,0,3.54
 9107,-0.870058,-0.043778\H,0,2.524879,-1.86181,-1.068751\C,0,-0.691771

 Normal termination of Gaussian 16 at Wed Apr  9 01:05:56 2025.
 Gaussian 16:  ES64L-G16RevC.01  3-Jul-2019

 ----------------------------------------------------------------------
 #t hf aug-cc-pvdz iop(5/13=1,5/36=2,99/5=2) pseudo=read geom=check gue
 ss=(read,tcheck) scf=(maxcycle=1)
 ----------------------------------------------------------------------
 -----
 title
 -----
 Structure from the checkpoint file:  "BH10_168_reverse_mol2.chk"
 Charge =  0 Multiplicity = 2

                         Standard orientation:
 ---------------------------------------------------------------------
 Center     Atomic      Atomic             Coordinates (Angstroms)
 Number     Number       Type             X           Y           Z
 ---------------------------------------------------------------------
      1          6           0        0.262198   -1.907548    0.576790
      2          1           0        0.271418   -2.610818   -0.261651
      3          1           0       -0.108039   -2.479850    1.438634
      4          6           0        1.701787   -1.456627    0.871813
      5          1           0        1.691184   -0.654355    1.614594
      6          6           0        2.032275    0.209945   -1.097733
      7          1           0        2.671658    0.379787   -1.965432
      8          1           0        2.223966   -2.293418    1.344053
      9          1           0        1.015354    0.092513   -1.465960
     10          6           0        2.512615   -1.031244   -0.352149
     11          1           0        3.549107   -0.870057   -0.043778
     12          1           0        2.524879   -1.861810   -1.068751
     13          6           0       -0.691771   -0.802544    0.262793
     14          6           0       -1.923692    1.476548    0.214450
     15          6           0       -2.746329    0.579656   -0.696324
     16          1           0       -2.550668    2.197777    0.738040
     17          1           0       -1.148979    2.005454   -0.341843
     18          1           0       -3.646739    0.232451   -0.190349
     19          1           0       -3.025905    1.094421   -1.615323
     20         16           0       -1.130254    0.402646    1.452016
     21         16           0       -1.733789   -0.872491   -1.144849
     22         16           0        2.141686    1.774465   -0.158766
     23          1           0        1.207974    1.484867    0.765513
 ---------------------------------------------------------------------

 SCF Done:  E(UHF) =  -1467.29601159     A.U. after    2 cycles

 The electronic state is 2-A.
 Alpha  occ. eigenvalues --  -75.69532 -75.69372 -75.67182 -13.16306 -13.15544
 Alpha  occ. eigenvalues --  -13.14882 -13.12132 -13.11292 -13.10601 -13.08299
 Alpha  occ. eigenvalues --  -13.06311 -13.02419 -11.45407 -11.45030 -11.43768
 Alpha  occ. eigenvalues --  -11.41273 -11.40383 -11.38962 -11.36049  -8.03888
 Alpha  occ. eigenvalues --   -8.03480  -8.01079  -1.37415  -1.26370  -1.17186
 Alpha  occ. eigenvalues --   -1.12434  -1.09335  -1.01770  -0.92926  -0.86820
 Alpha  occ. eigenvalues --   -0.82511  -0.76906  -0.66735  -0.66066  -0.64871
 Alpha  occ. eigenvalues --   -0.62011  -0.59363  -0.57469  -0.55178  -0.52035
 Alpha  occ. eigenvalues --   -0.51036  -0.50020  -0.45324  -0.44915  -0.42913
 Alpha  occ. eigenvalues --   -0.41756  -0.39938  -0.36995  -0.34236  -0.24325
 Alpha  occ. eigenvalues --   -0.22925  -0.17031
 Alpha virt. eigenvalues --    0.03069   0.03727   0.04525   0.04931   0.05609
 Alpha virt. eigenvalues --    0.05815   0.06165   0.06557   0.06726   0.07523
 Alpha virt. eigenvalues --    0.07870   0.08665   0.09253   0.10110   0.11011

  Beta  occ. eigenvalues --  -75.69536 -75.69338 -75.67183 -13.16509 -13.15576
  Beta  occ. eigenvalues --  -13.15046 -13.12141 -13.11442 -13.10392 -13.08218
  Beta  occ. eigenvalues --  -13.05848 -13.02421 -11.45141 -11.44891 -11.43674
  Beta  occ. eigenvalues --  -11.40543 -11.40327 -11.38046 -11.35932  -8.03879
  Beta  occ. eigenvalues --   -8.03450  -8.01081  -1.35691  -1.26268  -1.16268
  Beta  occ. eigenvalues --   -1.12052  -1.07840  -1.01625  -0.92510  -0.86622
  Beta  occ. eigenvalues --   -0.81881  -0.72631  -0.66506  -0.65073  -0.64366
  Beta  occ. eigenvalues --   -0.61675  -0.58755  -0.56764  -0.54894  -0.51432
  Beta  occ. eigenvalues --   -0.49751  -0.46766  -0.44155  -0.43915  -0.42292
  Beta  occ. eigenvalues --   -0.41325  -0.37107  -0.33561  -0.31258  -0.23227
  Beta  occ. eigenvalues --   -0.22353
  Beta virt. eigenvalues --    0.03044   0.03478   0.04484   0.04866   0.05587
  Beta virt. eigenvalues --    0.05827   0.06174   0.06575   0.06737   0.07548
  Beta virt. eigenvalues --    0.07895   0.08671   0.09312   0.10007   0.10279

 Mulliken charges and spin densities:
               1          2
     1  C   -4.026494  -0.426566
     2  H    1.561339  -0.005684
     3  H    1.222797   0.018529
     4  C   -2.169384   0.062272
     5  H    1.594871  -0.004130
     6  C   -4.313265   0.025177
     7  H    1.376661   0.010077
     8  H    1.283151  -0.002184
     9  H    2.154152  -0.069460
    10  C   -2.462663   0.002752
    11  H    1.365520   0.002187
    12  H    1.363487  -0.002337
    13  C    1.107317   1.408690
    14  C   -3.640128  -0.017390
    15  C   -3.726453  -0.016779
    16  H    1.353003  -0.000628
    17  H    1.562132  -0.000085
    18  H    1.568401  -0.011745
    19  H    1.398382   0.001884
    20  S    0.323275  -0.019897
    21  S    0.659769   0.049267
    22  S   -0.647739   0.002597
    23  H    1.091868  -0.006547
 Sum of Mulliken charges =   0.00000   1.00000

 Dipole moment (field-independent basis, Debye):
    X=             -0.1478    Y=              0.0652    Z=             -0.4370  Tot=              0.4659
                          Isotropic Fermi Contact Couplings
        Atom                 a.u.       MegaHertz       Gauss      10(-4) cm-1
     1  C(13)             -0.03446     -38.74222     -13.82419     -12.92301
     2  H(1)               0.00168       7.50998       2.67975       2.50506
     3  H(1)               0.01382      61.76961      22.04093      20.60413
     4  C(13)              0.02124      23.87439       8.51898       7.96364
     5  H(1)              -0.00078      -3.47365      -1.23948      -1.15868
     6  C(13)              0.00054       0.61103       0.21803       0.20382
     7  H(1)               0.00087       3.88550       1.38644       1.29606
     8  H(1)              -0.00051      -2.27948      -0.81338      -0.76035

 Normal termination of Gaussian 16 at Wed Apr  9 01:06:17 2025.
