 Gaussian 16, Revision C.01,

 ----------------------------------------------------------------------
 #t hf aug-cc-pvdz symm=none int=(grid=ultrafine) guess=(read,tcheck) s
 table=(opt,rrhf)
 ----------------------------------------------------------------------
 -----
 title
 -----
 Symbolic Z-matrix:
 Charge = -1 Multiplicity = 1

 SCF Done:  E(RHF) =  -726.397196822     A.U. after   14 cycles
 Normal termination of Gaussian 16 at Wed Apr  9 01:34:10 2025.
 Gaussian 16:  ES64L-G16RevC.01  3-Jul-2019

 ----------------------------------------------------------------------
 #t hf aug-cc-pvdz iop(5/13=1,5/36=2,99/5=2) pseudo=read geom=check gue
 ss=(read,tcheck) scf=(maxcycle=1)
 ----------------------------------------------------------------------
 -----
 title
 -----
 Structure from the checkpoint file:  "BH10_319_forward_mol1.chk"
 Charge = -1 Multiplicity = 1

                         Standard orientation:
 ---------------------------------------------------------------------
 Center     Atomic      Atomic             Coordinates (Angstroms)
 Number     Number       Type             X           Y           Z
 ---------------------------------------------------------------------
      1          6           0        1.845914    0.134152   -0.000001
      2          8           0        1.588377    1.340761    0.000009
      3          6           0        3.307278   -0.321214    0.000007
      4          1           0        3.976435    0.538868   -0.000051
      5          1           0        3.496815   -0.939952   -0.879942
      6          1           0        3.496833   -0.939835    0.880035
      7          8           0        1.006662   -0.827270   -0.000011
      8         17           0       -3.188081    0.077128   -0.000001
      9          6           0       -0.950875   -0.325162   -0.000006
     10          1           0       -1.026085   -0.861433   -0.924866
     11          1           0       -1.026084   -0.861445    0.924848
     12          1           0       -0.694753    0.718027    0.000001
 ---------------------------------------------------------------------

 SCF Done:  E(RHF) =  -727.846780968     A.U. after    2 cycles

 The electronic state is 1-A.
 Alpha  occ. eigenvalues --  -99.65065 -20.85392 -20.85286 -11.32813 -11.31577
 Alpha  occ. eigenvalues --  -11.24093 -10.21901  -9.41838  -9.41361  -9.41348
 Alpha  occ. eigenvalues --   -1.59546  -1.43059  -1.03557  -0.94212  -0.85898
 Alpha  occ. eigenvalues --   -0.57056  -0.48438  -0.47971  -0.45316  -0.44677
 Alpha  occ. eigenvalues --   -0.40323  -0.34379  -0.32057  -0.29476  -0.28420
 Alpha  occ. eigenvalues --   -0.28276  -0.14334  -0.12010  -0.11446
 Alpha virt. eigenvalues --    0.13044   0.14602   0.14728   0.16029   0.17014
 Alpha virt. eigenvalues --    0.18911   0.19299   0.21827   0.24419   0.25250
 Alpha virt. eigenvalues --    0.25611   0.26792   0.27037   0.28609   0.28793

 Mulliken charges:
               1
     1  C    5.595368
     2  O   -2.961025
     3  C   -4.366794
     4  H    1.305419
     5  H    1.206524
     6  H    1.206512
     7  O   -3.039400
     8  Cl  -0.693557
     9  C   -3.710821
    10  H    1.497989
    11  H    1.497987
    12  H    1.461795
 Sum of Mulliken charges =  -1.00000

 Dipole moment (field-independent basis, Debye):
    X=              5.2742    Y=             -1.8124    Z=             -0.0000  Tot=              5.5769

 Test job not archived.
 1\1\GINC-SE149\SP\RHF\Aug-CC-pVDZ\C3H6Cl1O2(1-)\OHZDE\09-Apr-2025\0\\#
 t hf aug-cc-pvdz iop(5/13=1,5/36=2,99/5=2) pseudo=read geom=check gues
 s=(read,tcheck) scf=(maxcycle=1)\\title\\-1,1\C,0,1.845914,0.134152,-0
 .000001\O,0,1.588377,1.340761,0.000009\C,0,3.307278,-0.321214,0.000007
 \H,0,3.976435,0.538868,-0.000051\H,0,3.496815,-0.939952,-0.879942\H,0,
 3.496833,-0.939835,0.880035\O,0,1.006662,-0.82727,-0.000011\Cl,0,-3.18
 8081,0.077128,-0.000001\C,0,-0.950875,-0.325162,-0.000006\H,0,-1.02608
 5,-0.861433,-0.924866\H,0,-1.026084,-0.861445,0.924848\H,0,-0.694753,0

 Normal termination of Gaussian 16 at Wed Apr  9 01:34:14 2025.
