 Gaussian 16, Revision C.01,

 ----------------------------------------------------------------------
 #t hf aug-cc-pvdz symm=none int=(grid=ultrafine) guess=(read,tcheck) s
 table=(opt,rrhf)
 ----------------------------------------------------------------------
 -----
 title
 -----
 Symbolic Z-matrix:
 Charge =  0 Multiplicity = 1

 SCF Done:  E(RHF) =  -816.711955927     A.U. after   12 cycles
 Normal termination of Gaussian 16 at Wed Apr  9 01:08:09 2025.
 Gaussian 16:  ES64L-G16RevC.01  3-Jul-2019

 ----------------------------------------------------------------------
 #t hf aug-cc-pvdz iop(5/13=1,5/36=2,99/5=2) pseudo=read geom=check gue
 ss=(read,tcheck) scf=(maxcycle=1)
 ----------------------------------------------------------------------
 -----
 title
 -----
 Structure from the checkpoint file:  "BH10_220_forward_mol2.chk"
 Charge =  0 Multiplicity = 1

                         Standard orientation:
 ---------------------------------------------------------------------
 Center     Atomic      Atomic             Coordinates (Angstroms)
 Number     Number       Type             X           Y           Z
 ---------------------------------------------------------------------
      1         15           0       -0.000005   -0.034407   -0.491496
      2          8           0       -0.000024   -0.274413   -1.956679
      3          7           0       -1.399264   -0.651900    0.194465
      4          7           0        0.000073    1.537030    0.095300
      5          7           0        1.399205   -0.652028    0.194450
      6          6           0        1.682758   -0.576071    1.614786
      7          1           0        1.370242   -1.482038    2.150140
      8          1           0        2.759659   -0.452286    1.767383
      9          1           0        1.180648    0.281903    2.058327
     10          6           0        2.133270   -1.690944   -0.510638
     11          1           0        3.208760   -1.521858   -0.397332
     12          1           0        1.902231   -2.690393   -0.119318
     13          1           0        1.881790   -1.657940   -1.568089
     14          6           0       -2.133462   -1.690714   -0.510635
     15          1           0       -1.882005   -1.657706   -1.568092
     16          1           0       -1.902520   -2.690200   -0.119353
     17          1           0       -3.208929   -1.521514   -0.397294
     18          6           0       -1.682759   -0.575961    1.614813
     19          6           0       -1.209618    2.336233   -0.065713
     20          1           0       -1.226883    3.120303    0.695938
     21          1           0       -1.251298    2.812055   -1.052854
     22          1           0       -2.093190    1.713751    0.053497
     23          6           0        1.209829    2.336126   -0.065764
     24          1           0        1.251505    2.811951   -1.052903
     25          1           0        1.227201    3.120189    0.695892
     26          1           0        2.093351    1.713563    0.053399
     27          1           0       -1.180555    0.281953    2.058363
     28          1           0       -1.370309   -1.481973    2.150127
     29          1           0       -2.759644   -0.452079    1.767451
 ---------------------------------------------------------------------

 SCF Done:  E(RHF) =  -819.261633760     A.U. after    2 cycles

 The electronic state is 1-A.
 Alpha  occ. eigenvalues -- -105.26370 -20.97848 -15.71261 -15.70806 -15.70693
 Alpha  occ. eigenvalues --  -11.40671 -11.39690 -11.39603 -11.38698 -11.38512
 Alpha  occ. eigenvalues --  -11.38297  -2.88021  -1.89631  -1.69517  -1.66323
 Alpha  occ. eigenvalues --   -1.45902  -1.29646  -1.29465  -1.22948  -1.04731
 Alpha  occ. eigenvalues --   -1.04407  -1.03307  -0.91368  -0.84839  -0.83346
 Alpha  occ. eigenvalues --   -0.69030  -0.65220  -0.63811  -0.63579  -0.61221
 Alpha  occ. eigenvalues --   -0.60531  -0.60154  -0.59615  -0.58151  -0.55170
 Alpha  occ. eigenvalues --   -0.54617  -0.54241  -0.54084  -0.50547  -0.50042
 Alpha  occ. eigenvalues --   -0.49437  -0.39326  -0.36263  -0.33763  -0.32038
 Alpha  occ. eigenvalues --   -0.30531  -0.25257  -0.24846  -0.13694
 Alpha virt. eigenvalues --    0.03671   0.04987   0.05139   0.05531   0.05579
 Alpha virt. eigenvalues --    0.05823   0.06043   0.06451   0.06863   0.06936
 Alpha virt. eigenvalues --    0.07214   0.07490   0.07864   0.08229   0.08497

 Mulliken charges:
               1
     1  P   14.654396
     2  O   -3.793617
     3  N   -3.795598
     4  N   -4.314002
     5  N   -3.795612
     6  C   -4.572014
     7  H    1.470306
     8  H    1.256578
     9  H    1.855670
    10  C   -4.080084
    11  H    1.468974
    12  H    1.523471
    13  H    1.431284
    14  C   -4.080031
    15  H    1.431296
    16  H    1.523471
    17  H    1.468985
    18  C   -4.572037
    19  C   -4.481298
    20  H    1.411955
    21  H    1.459032
    22  H    1.778333
    23  C   -4.481288
    24  H    1.459029
    25  H    1.411956
    26  H    1.778312
    27  H    1.855657
    28  H    1.470296
    29  H    1.256579
 Sum of Mulliken charges =   0.00000

 Dipole moment (field-independent basis, Debye):
    X=              0.0000    Y=              0.4905    Z=              3.6054  Tot=              3.6386

 Test job not archived.
 1\1\GINC-SE273\SP\RHF\Aug-CC-pVDZ\C6H18N3O1P1\OHZDE\09-Apr-2025\0\\#t
 hf aug-cc-pvdz iop(5/13=1,5/36=2,99/5=2) pseudo=read geom=check guess=
 (read,tcheck) scf=(maxcycle=1)\\title\\0,1\P,0,-0.000005,-0.034407,-0.
 491496\O,0,-0.000024,-0.274413,-1.956679\N,0,-1.399264,-0.6519,0.19446
 5\N,0,0.000073,1.53703,0.0953\N,0,1.399205,-0.652028,0.19445\C,0,1.682
 758,-0.576071,1.614786\H,0,1.370242,-1.482038,2.15014\H,0,2.759659,-0.
 452286,1.767383\H,0,1.180648,0.281903,2.058327\C,0,2.13327,-1.690944,-
 0.510638\H,0,3.20876,-1.521858,-0.397332\H,0,1.902231,-2.690393,-0.119

 Normal termination of Gaussian 16 at Wed Apr  9 01:08:38 2025.
