 Gaussian 16, Revision C.01,

 ----------------------------------------------------------------------
 #t hf aug-cc-pvdz symm=none int=(grid=ultrafine) guess=(read,tcheck) s
 table=(opt,rrhf)
 ----------------------------------------------------------------------
 -----
 title
 -----
 Symbolic Z-matrix:
 Charge =  0 Multiplicity = 1

 SCF Done:  E(RHF) =  -1125.27003155     A.U. after   15 cycles
 Normal termination of Gaussian 16 at Wed Apr  9 02:37:40 2025.
 Gaussian 16:  ES64L-G16RevC.01  3-Jul-2019

 ----------------------------------------------------------------------
 #t hf aug-cc-pvdz iop(5/13=1,5/36=2,99/5=2) pseudo=read geom=check gue
 ss=(read,tcheck) scf=(maxcycle=1)
 ----------------------------------------------------------------------
 -----
 title
 -----
 Structure from the checkpoint file:  "BH10_300_reverse_mol2.chk"
 Charge =  0 Multiplicity = 1

                         Standard orientation:
 ---------------------------------------------------------------------
 Center     Atomic      Atomic             Coordinates (Angstroms)
 Number     Number       Type             X           Y           Z
 ---------------------------------------------------------------------
      1          6           0        1.284905    2.330918    0.640552
      2          6           0        0.569877    1.166877    1.389354
      3          6           0       -1.411875    1.478220   -0.972103
      4          1           0        2.359744    2.219673    0.797572
      5          6           0       -0.687863    1.628147    2.157157
      6          1           0       -1.237754    0.752065    2.518454
      7          1           0       -0.353309    2.158203    3.055639
      8          1           0       -2.084989    1.373913   -1.827536
      9          1           0        1.271925    0.821235    2.151046
     10          6           0       -1.642071    2.551413    1.407974
     11          1           0       -2.426222    2.869560    2.102234
     12          1           0       -1.114282    3.467603    1.130042
     13          6           0       -2.317029    1.966185    0.173083
     14          1           0       -2.978836    1.153439    0.484135
     15          1           0       -2.975537    2.738244   -0.239627
     16          6           0       -0.375410    2.550118   -1.394436
     17          1           0       -0.310914    2.550400   -2.486861
     18          6           0        1.058353    2.401647   -0.875326
     19          1           0        1.496420    1.510652   -1.338053
     20          1           0        1.642026    3.240547   -1.267480
     21          1           0       -0.762064    3.538320   -1.124388
     22          1           0        1.009551    3.284200    1.101704
     23          6           0       -0.777486    0.084664   -0.737313
     24          1           0       -0.283616   -0.234088   -1.669929
     25         14           0       -2.085110   -1.310457   -0.587674
     26          6           0       -2.635366   -1.636155    1.180089
     27          1           0       -3.165417   -0.786430    1.613976
     28          1           0       -3.312784   -2.494440    1.206442
     29          1           0       -1.787560   -1.866937    1.828877
     30          6           0       -1.401215   -2.911843   -1.303086
     31          1           0       -2.209835   -3.642243   -1.396299
     32          1           0       -0.983855   -2.755715   -2.301116
     33          1           0       -0.625758   -3.366745   -0.686702
     34          6           0       -3.584790   -0.862179   -1.630594
     35          1           0       -3.307103   -0.699792   -2.675276
     36          1           0       -4.303817   -1.685753   -1.606454
     37          1           0       -4.097751    0.034014   -1.278296
     38          5           0        0.324836    0.008171    0.351250
     39          6           0        1.342501   -1.249490    0.358701
     40          6           0        1.399585   -1.858347    1.729969
     41          1           0        1.971712   -1.301044    2.463400
     42          6           0        0.806431   -2.989906    2.083647
     43          1           0        0.235466   -3.587065    1.381716
     44          1           0        0.879456   -3.365325    3.096877
     45          6           0        2.687861   -0.720666   -0.051340
     46          8           0        3.540993   -0.300417    0.686073
     47          8           0        2.819082   -0.719881   -1.391879
     48          6           0        4.035858   -0.162242   -1.895919
     49          1           0        3.976840   -0.257831   -2.976906
     50          1           0        4.120735    0.886055   -1.608326
     51          1           0        4.895187   -0.708304   -1.508187
     52          1           0        1.035497   -1.982651   -0.385492
 ---------------------------------------------------------------------

 SCF Done:  E(RHF) =  -1129.54507691     A.U. after    2 cycles

 The electronic state is 1-A.
 Alpha  occ. eigenvalues --  -76.18520 -21.08987 -21.04278 -11.55951 -11.47494
 Alpha  occ. eigenvalues --  -11.46053 -11.45278 -11.44514 -11.42868 -11.42209
 Alpha  occ. eigenvalues --  -11.41950 -11.40614 -11.38857 -11.38302 -11.37195
 Alpha  occ. eigenvalues --  -11.36164 -11.35686 -11.35312 -11.35122 -11.34607
 Alpha  occ. eigenvalues --   -7.62170  -5.52658  -2.17431  -2.16714  -2.16642
 Alpha  occ. eigenvalues --   -1.84667  -1.66164  -1.33937  -1.24383  -1.19200
 Alpha  occ. eigenvalues --   -1.17371  -1.10231  -1.07278  -1.05386  -1.00980
 Alpha  occ. eigenvalues --   -1.00745  -0.99034  -0.98076  -0.94331  -0.85661
 Alpha  occ. eigenvalues --   -0.83414  -0.81126  -0.75613  -0.74291  -0.69447
 Alpha  occ. eigenvalues --   -0.68434  -0.67293  -0.65188  -0.64003  -0.62920
 Alpha  occ. eigenvalues --   -0.61643  -0.60875  -0.59555  -0.59525  -0.57994
 Alpha  occ. eigenvalues --   -0.57630  -0.57198  -0.56689  -0.56015  -0.55092
 Alpha  occ. eigenvalues --   -0.54678  -0.54354  -0.53579  -0.53243  -0.53021
 Alpha  occ. eigenvalues --   -0.51791  -0.48226  -0.47842  -0.47398  -0.45898
 Alpha  occ. eigenvalues --   -0.44949  -0.43403  -0.42505  -0.41330  -0.41059
 Alpha  occ. eigenvalues --   -0.39435  -0.39280  -0.38056  -0.37410  -0.36595
 Alpha  occ. eigenvalues --   -0.33100  -0.32282  -0.31779  -0.28421
 Alpha virt. eigenvalues --    0.03838   0.04231   0.04557   0.04820   0.05114
 Alpha virt. eigenvalues --    0.05195   0.05338   0.05495   0.05729   0.05859
 Alpha virt. eigenvalues --    0.05947   0.06184   0.06233   0.06538   0.07060

 Mulliken charges:
               1
     1  C   -3.832008
     2  C   -6.422460
     3  C    0.390296
     4  H    1.233413
     5  C   -4.792197
     6  H    1.252984
     7  H    1.216249
     8  H    1.648050
     9  H    0.995903
    10  C   -3.278913
    11  H    1.414577
    12  H    1.432385
    13  C   -4.837344
    14  H    1.574196
    15  H    1.339957
    16  C   -4.686785
    17  H    1.166746
    18  C   -4.649403
    19  H    1.246065
    20  H    1.694396
    21  H    1.339521
    22  H    1.448720
    23  C   -9.295292
    24  H    0.750772
    25  Si  14.523271
    26  C   -6.840636
    27  H    0.970747
    28  H    1.005530
    29  H    1.286109
    30  C   -7.028770
    31  H    0.905225
    32  H    0.483946
    33  H    1.504256
    34  C   -7.228628
    35  H    0.934084
    36  H    0.909442
    37  H    0.984400
    38  B   25.671947
    39  C   -7.363083
    40  C   -0.860204
    41  H    1.841012
    42  C   -5.003490
    43  H    1.609358
    44  H    1.383374
    45  C    9.027828
    46  O   -4.287104
    47  O   -4.324583
    48  C   -4.233675
    49  H    1.372476
    50  H    1.583312
    51  H    1.458970
    52  H    1.365060
 Sum of Mulliken charges =   0.00000

 Dipole moment (field-independent basis, Debye):
    X=             -0.5353    Y=              0.5998    Z=             -1.4258  Tot=              1.6368

 Test job not archived.
 1\1\GINC-SE342\SP\RHF\Aug-CC-pVDZ\C17H31B1O2Si1\OHZDE\09-Apr-2025\0\\#
 t hf aug-cc-pvdz iop(5/13=1,5/36=2,99/5=2) pseudo=read geom=check gues
 s=(read,tcheck) scf=(maxcycle=1)\\title\\0,1\C,0,1.284905,2.330918,0.6
 40552\C,0,0.569877,1.166877,1.389354\C,0,-1.411875,1.47822,-0.972103\H
 ,0,2.359744,2.219673,0.797572\C,0,-0.687863,1.628147,2.157157\H,0,-1.2
 37754,0.752065,2.518454\H,0,-0.353309,2.158203,3.055639\H,0,-2.084989,
 1.373913,-1.827536\H,0,1.271925,0.821235,2.151046\C,0,-1.642071,2.5514
 13,1.407974\H,0,-2.426222,2.86956,2.102234\H,0,-1.114282,3.467603,1.13

 Normal termination of Gaussian 16 at Wed Apr  9 02:40:43 2025.
