 Gaussian 16, Revision C.01,

 ----------------------------------------------------------------------
 #t hf aug-cc-pvdz symm=none int=(grid=ultrafine) guess=(read,tcheck) s
 table=(opt,rrhf)
 ----------------------------------------------------------------------
 -----
 title
 -----
 Symbolic Z-matrix:
 Charge =  0 Multiplicity = 1

 SCF Done:  E(RHF) =  -785.486370655     A.U. after   13 cycles
 Normal termination of Gaussian 16 at Wed Apr  9 01:00:48 2025.
 Gaussian 16:  ES64L-G16RevC.01  3-Jul-2019

 ----------------------------------------------------------------------
 #t hf aug-cc-pvdz iop(5/13=1,5/36=2,99/5=2) pseudo=read geom=check gue
 ss=(read,tcheck) scf=(maxcycle=1)
 ----------------------------------------------------------------------
 -----
 title
 -----
 Structure from the checkpoint file:  "BH10-RE_369_mol2.chk"
 Charge =  0 Multiplicity = 1

                         Standard orientation:
 ---------------------------------------------------------------------
 Center     Atomic      Atomic             Coordinates (Angstroms)
 Number     Number       Type             X           Y           Z
 ---------------------------------------------------------------------
      1          6           0        0.600016   -1.151146    0.209992
      2          6           0       -0.600016   -1.151146    0.209992
      3          6           0        1.876398   -0.436612    0.047299
      4          6           0       -1.876398   -0.436612    0.047299
      5          6           0        1.447911    0.844237   -0.725539
      6          1           0        2.264746    1.570334   -0.718432
      7          1           0        1.241533    0.586130   -1.765942
      8          6           0       -1.447911    0.844237   -0.725539
      9          1           0       -2.264746    1.570334   -0.718432
     10         16           0       -0.000000    1.770465   -0.085694
     11          6           0       -2.897858   -1.207793   -0.791594
     12          1           0       -3.213233   -2.113727   -0.270956
     13          1           0       -3.783319   -0.593115   -0.972546
     14          1           0       -2.475675   -1.499243   -1.754904
     15          6           0       -2.468910   -0.075001    1.412371
     16          1           0       -3.389650    0.499848    1.282018
     17          1           0       -2.704459   -0.977080    1.979124
     18          1           0       -1.763555    0.521033    1.992018
     19          6           0        2.897858   -1.207794   -0.791594
     20          1           0        3.783318   -0.593116   -0.972546
     21          1           0        3.213233   -2.113727   -0.270956
     22          1           0        2.475675   -1.499243   -1.754904
     23          6           0        2.468911   -0.075001    1.412371
     24          1           0        2.704459   -0.977080    1.979124
     25          1           0        3.389650    0.499847    1.282017
     26          1           0        1.763556    0.521033    1.992018
     27          1           0       -1.241533    0.586130   -1.765942
 ---------------------------------------------------------------------

 SCF Done:  E(RHF) =  -787.707426857     A.U. after    2 cycles

 The electronic state is 1-A.
 Alpha  occ. eigenvalues --  -75.66956 -13.15223 -13.10598 -13.04533 -11.47530
 Alpha  occ. eigenvalues --  -11.45226 -11.43905 -11.42996 -11.40228 -11.39686
 Alpha  occ. eigenvalues --  -11.39384 -11.39098 -11.39049 -11.36071  -8.00960
 Alpha  occ. eigenvalues --   -1.36479  -1.27293  -1.15126  -1.05603  -1.01488
 Alpha  occ. eigenvalues --   -1.01158  -1.01003  -0.90277  -0.87484  -0.78960
 Alpha  occ. eigenvalues --   -0.66753  -0.65603  -0.62777  -0.61866  -0.61070
 Alpha  occ. eigenvalues --   -0.59691  -0.56998  -0.54826  -0.54264  -0.53440
 Alpha  occ. eigenvalues --   -0.51495  -0.50743  -0.48624  -0.47702  -0.45414
 Alpha  occ. eigenvalues --   -0.45144  -0.41019  -0.34958  -0.34224  -0.33104
 Alpha  occ. eigenvalues --   -0.21820
 Alpha virt. eigenvalues --    0.03784   0.04557   0.04877   0.05223   0.05259
 Alpha virt. eigenvalues --    0.05469   0.06101   0.06672   0.06720   0.06772
 Alpha virt. eigenvalues --    0.07299   0.07692   0.07894   0.08658   0.10594

 Mulliken charges:
               1
     1  C    3.427971
     2  C    3.427971
     3  C    2.078910
     4  C    2.078919
     5  C   -5.217126
     6  H    1.444348
     7  H    1.393000
     8  C   -5.217126
     9  H    1.444348
    10  S    0.705163
    11  C   -5.096050
    12  H    1.332689
    13  H    1.171843
    14  H    1.204086
    15  C   -5.782109
    16  H    1.367661
    17  H    1.134484
    18  H    1.187705
    19  C   -5.096049
    20  H    1.171844
    21  H    1.332691
    22  H    1.204086
    23  C   -5.782110
    24  H    1.134484
    25  H    1.367662
    26  H    1.187704
    27  H    1.393000
 Sum of Mulliken charges =   0.00000

 Dipole moment (field-independent basis, Debye):
    X=              0.0000    Y=              1.6592    Z=             -0.0895  Tot=              1.6616

 Test job not archived.
 1\1\GINC-SE164\SP\RHF\Aug-CC-pVDZ\C10H16S1\OHZDE\09-Apr-2025\0\\#t hf
 aug-cc-pvdz iop(5/13=1,5/36=2,99/5=2) pseudo=read geom=check guess=(re
 ad,tcheck) scf=(maxcycle=1)\\title\\0,1\C,0,0.600016,-1.151146,0.20999
 2\C,0,-0.600016,-1.151146,0.209992\C,0,1.876398,-0.436612,0.047299\C,0
 ,-1.876398,-0.436612,0.047299\C,0,1.447911,0.844237,-0.725539\H,0,2.26
 4746,1.570334,-0.718432\H,0,1.241533,0.58613,-1.765942\C,0,-1.447911,0
 .844237,-0.725539\H,0,-2.264746,1.570334,-0.718432\S,0,0.,1.770465,-0.
 085694\C,0,-2.897858,-1.207793,-0.791594\H,0,-3.213233,-2.113727,-0.27

 Normal termination of Gaussian 16 at Wed Apr  9 01:01:11 2025.
