 Gaussian 16, Revision C.01,

 ----------------------------------------------------------------------
 #t hf aug-cc-pvdz symm=none int=(grid=ultrafine) guess=(read,tcheck) s
 table=opt
 ----------------------------------------------------------------------
 -----
 title
 -----
 Symbolic Z-matrix:
 Charge =  0 Multiplicity = 2

 SCF Done:  E(UHF) =  -558.544165738     A.U. after   23 cycles
 Normal termination of Gaussian 16 at Wed Apr  9 01:07:45 2025.
 Gaussian 16:  ES64L-G16RevC.01  3-Jul-2019

 ----------------------------------------------------------------------
 #t hf aug-cc-pvdz iop(5/13=1,5/36=2,99/5=2) pseudo=read geom=check gue
 ss=(read,tcheck) scf=(maxcycle=1)
 ----------------------------------------------------------------------
 -----
 title
 -----
 Structure from the checkpoint file:  "BH10_273_forward_mol1.chk"
 Charge =  0 Multiplicity = 2

                         Standard orientation:
 ---------------------------------------------------------------------
 Center     Atomic      Atomic             Coordinates (Angstroms)
 Number     Number       Type             X           Y           Z
 ---------------------------------------------------------------------
      1          6           0        1.015292    0.273427    1.820316
      2          1           0        1.990610    0.745535    1.972916
      3          1           0        0.253249    0.924844    2.252571
      4          1           0        1.005932   -0.666822    2.375086
      5          6           0        1.911730   -1.223986   -0.749669
      6          1           0        1.895592   -2.179387   -0.221432
      7          1           0        1.686205   -1.416860   -1.800422
      8          1           0        2.930242   -0.827737   -0.692902
      9          6           0        0.650208    1.601938   -0.955633
     10          1           0        1.619214    2.107644   -0.903221
     11          1           0        0.418447    1.435242   -2.009795
     12          1           0       -0.101404    2.279567   -0.545339
     13         14           0        0.693988   -0.011696   -0.001610
     14          1           0       -0.840200   -0.650255   -0.119404
     15          8           0       -2.089418   -0.963529   -0.162056
     16          8           0       -2.785613    0.208670    0.132499
     17          1           0       -3.036853    0.542567   -0.739156
 ---------------------------------------------------------------------

 SCF Done:  E(UHF) =  -559.949887509     A.U. after    2 cycles

 The electronic state is 2-A.
 Alpha  occ. eigenvalues --  -76.20006 -21.11980 -21.11537 -11.34948 -11.34890
 Alpha  occ. eigenvalues --  -11.34631  -5.54019  -2.17777  -2.17739  -2.17116
 Alpha  occ. eigenvalues --   -1.94824  -1.36401  -1.08450  -1.01445  -1.01256
 Alpha  occ. eigenvalues --   -0.70576  -0.61908  -0.59671  -0.56868  -0.56688
 Alpha  occ. eigenvalues --   -0.56513  -0.55107  -0.54956  -0.53715  -0.47440
 Alpha  occ. eigenvalues --   -0.40008  -0.39911  -0.36751  -0.33000  -0.23542
 Alpha virt. eigenvalues --    0.02993   0.04797   0.05251   0.05604   0.06258
 Alpha virt. eigenvalues --    0.06436   0.06727   0.07396   0.07746   0.08698
 Alpha virt. eigenvalues --    0.08950   0.10271   0.10605   0.12395   0.13340

  Beta  occ. eigenvalues --  -76.19707 -21.11855 -21.08463 -11.34898 -11.34848
  Beta  occ. eigenvalues --  -11.34589  -5.53556  -2.17473  -2.17432  -2.14965
  Beta  occ. eigenvalues --   -1.91165  -1.31043  -1.07785  -1.01258  -1.01076
  Beta  occ. eigenvalues --   -0.66092  -0.61283  -0.57723  -0.56761  -0.56545
  Beta  occ. eigenvalues --   -0.54823  -0.54668  -0.53673  -0.52282  -0.45169
  Beta  occ. eigenvalues --   -0.39526  -0.39462  -0.34320  -0.31048
  Beta virt. eigenvalues --    0.02746   0.04816   0.05278   0.05608   0.06267
  Beta virt. eigenvalues --    0.06433   0.06736   0.07407   0.07759   0.08700
  Beta virt. eigenvalues --    0.08915   0.10178   0.10600   0.12026   0.12603

 Mulliken charges and spin densities:
               1          2
     1  C   -5.639036  -0.044182
     2  H    1.182651  -0.013711
     3  H    1.209806  -0.016435
     4  H    1.194980  -0.009231
     5  C   -5.694062  -0.019170
     6  H    1.182395   0.001144
     7  H    1.187586  -0.003402
     8  H    1.178851  -0.008998
     9  C   -5.724720  -0.050419
    10  H    1.187156  -0.015408
    11  H    1.253608  -0.010627
    12  H    1.222155  -0.010389
    13  Si   7.646983   0.252908
    14  H   -0.328144   0.222903
    15  O   -1.084314   0.712582
    16  O   -0.906048   0.009852
    17  H    0.930153   0.002584
 Sum of Mulliken charges =  -0.00000   1.00000

 Dipole moment (field-independent basis, Debye):
    X=              1.0244    Y=              0.7160    Z=             -0.5238  Tot=              1.3551
                          Isotropic Fermi Contact Couplings
        Atom                 a.u.       MegaHertz       Gauss      10(-4) cm-1
     1  C(13)              0.01324      14.88364       5.31085       4.96465
     2  H(1)               0.00351      15.67613       5.59363       5.22899
     3  H(1)               0.00003       0.14718       0.05252       0.04909
     4  H(1)              -0.00005      -0.24043      -0.08579      -0.08020
     5  C(13)              0.01503      16.89481       6.02849       5.63550
     6  H(1)              -0.00004      -0.17634      -0.06292      -0.05882
     7  H(1)              -0.00005      -0.22802      -0.08136      -0.07606
     8  H(1)               0.00384      17.15339       6.12076       5.72176

 Normal termination of Gaussian 16 at Wed Apr  9 01:07:51 2025.
