 Gaussian 16, Revision C.01,

 ----------------------------------------------------------------------
 #t hf aug-cc-pvdz symm=none int=(grid=ultrafine) guess=(read,tcheck) s
 table=opt
 ----------------------------------------------------------------------
 -----
 title
 -----
 Symbolic Z-matrix:
 Charge =  0 Multiplicity = 2

 SCF Done:  E(UHF) =  -1706.37272290     A.U. after   19 cycles
 Normal termination of Gaussian 16 at Wed Apr  9 03:44:19 2025.
 Gaussian 16:  ES64L-G16RevC.01  3-Jul-2019

 ----------------------------------------------------------------------
 #t hf aug-cc-pvdz iop(5/13=1,5/36=2,99/5=2) pseudo=read geom=check gue
 ss=(read,tcheck) scf=(maxcycle=1)
 ----------------------------------------------------------------------
 -----
 title
 -----
 Structure from the checkpoint file:  "BH10_303_reverse_mol2.chk"
 Charge =  0 Multiplicity = 2

                         Standard orientation:
 ---------------------------------------------------------------------
 Center     Atomic      Atomic             Coordinates (Angstroms)
 Number     Number       Type             X           Y           Z
 ---------------------------------------------------------------------
      1         14           0        1.009991   -0.256438    1.884303
      2         14           0       -1.200987    2.056673   -0.200994
      3         14           0       -1.692643   -1.712535   -0.442613
      4          6           0       -0.216905    0.178798    3.250789
      5          1           0        0.237274    0.016045    4.232524
      6          1           0       -0.516298    1.228061    3.197695
      7          1           0       -1.122594   -0.428213    3.198740
      8          6           0        1.574619   -2.036687    2.151247
      9          1           0        2.089746   -2.139097    3.110697
     10          1           0        0.722493   -2.720702    2.158999
     11          1           0        2.259273   -2.371292    1.369010
     12          6           0        2.485723    0.901675    2.062191
     13          1           0        2.919441    0.805869    3.062063
     14          1           0        3.271250    0.688465    1.336423
     15          1           0        2.185943    1.942595    1.926083
     16          6           0       -1.595712    2.533109   -1.982613
     17          1           0       -2.227738    1.783995   -2.465007
     18          1           0       -2.125127    3.489559   -2.018874
     19          1           0       -0.687298    2.633870   -2.581059
     20          6           0       -2.816323    1.957195    0.767858
     21          1           0       -2.647119    1.646584    1.801263
     22          1           0       -3.305969    2.934988    0.791263
     23          1           0       -3.515683    1.249057    0.318252
     24          6           0       -0.147728    3.419490    0.567220
     25          1           0        0.031574    3.233303    1.628591
     26          1           0        0.824692    3.501554    0.077329
     27          1           0       -0.650613    4.387155    0.481735
     28          6           0       -2.691215   -1.939895    1.140872
     29          1           0       -3.148189   -1.006372    1.474738
     30          1           0       -3.493689   -2.665817    0.980852
     31          1           0       -2.066230   -2.315368    1.954461
     32          6           0       -2.874739   -1.261860   -1.842999
     33          1           0       -3.596087   -2.066690   -2.011628
     34          1           0       -3.438290   -0.353284   -1.620318
     35          1           0       -2.338226   -1.097425   -2.780849
     36          6           0       -0.902252   -3.371030   -0.869946
     37          1           0       -1.669281   -4.149583   -0.919398
     38          1           0       -0.399803   -3.340003   -1.838965
     39          1           0       -0.166735   -3.676183   -0.122221
     40          6           0        1.090971   -0.040486   -1.720807
     41          6           0        2.047386    1.097905   -1.718875
     42          6           0        2.004337   -1.284985   -1.840918
     43          6           0        3.467204    0.643088   -1.633837
     44          1           0        1.756204    2.128814   -1.870720
     45          6           0        3.352274   -0.842969   -1.258583
     46          1           0        1.610282   -2.170830   -1.342186
     47          1           0        2.127338   -1.539805   -2.898239
     48          1           0        3.971485    0.754973   -2.605921
     49          1           0        4.065429    1.217483   -0.918619
     50          1           0        4.185066   -1.442438   -1.629611
     51          1           0        3.340134   -0.948504   -0.171804
     52         14           0       -0.084011   -0.012719   -0.180978
     53          1           0        0.398614    0.019421   -2.570919
 ---------------------------------------------------------------------

 SCF Done:  E(UHF) =  -1709.90071018     A.U. after    2 cycles

 The electronic state is 2-A.
 Alpha  occ. eigenvalues --  -76.17902 -76.17843 -76.17750 -76.16442 -11.45815
 Alpha  occ. eigenvalues --  -11.44510 -11.38604 -11.37619 -11.35437 -11.35094
 Alpha  occ. eigenvalues --  -11.34978 -11.34808 -11.34544 -11.34458 -11.34442
 Alpha  occ. eigenvalues --  -11.34426 -11.34319 -11.34117  -5.51933  -5.51882
 Alpha  occ. eigenvalues --   -5.51786  -5.50527  -2.15983  -2.15964  -2.15880
 Alpha  occ. eigenvalues --   -2.15810  -2.15726  -2.15689  -2.15636  -2.15603
 Alpha  occ. eigenvalues --   -2.15440  -2.13914  -2.12756  -2.12746  -1.32158
 Alpha  occ. eigenvalues --   -1.07034  -1.06838  -1.06703  -1.03979  -1.03404
 Alpha  occ. eigenvalues --   -1.00645  -1.00538  -1.00418  -1.00254  -1.00115
 Alpha  occ. eigenvalues --   -1.00016  -0.82367  -0.80221  -0.73514  -0.67667
 Alpha  occ. eigenvalues --   -0.65287  -0.64378  -0.64275  -0.58764  -0.57252
 Alpha  occ. eigenvalues --   -0.57186  -0.56964  -0.56372  -0.56260  -0.56137
 Alpha  occ. eigenvalues --   -0.55663  -0.55559  -0.55286  -0.54756  -0.54372
 Alpha  occ. eigenvalues --   -0.54030  -0.53814  -0.53624  -0.53552  -0.53248
 Alpha  occ. eigenvalues --   -0.52717  -0.52591  -0.52379  -0.50065  -0.47505
 Alpha  occ. eigenvalues --   -0.45513  -0.44884  -0.43492  -0.40295  -0.39188
 Alpha  occ. eigenvalues --   -0.39088  -0.38471  -0.38424  -0.38213  -0.36974
 Alpha  occ. eigenvalues --   -0.28341  -0.28077  -0.24522
 Alpha virt. eigenvalues --    0.03723   0.04551   0.04740   0.05006   0.05033
 Alpha virt. eigenvalues --    0.05142   0.05256   0.05489   0.05621   0.05794
 Alpha virt. eigenvalues --    0.05899   0.05928   0.06217   0.06303   0.06353

  Beta  occ. eigenvalues --  -76.17904 -76.17833 -76.17753 -76.16373 -11.45326
  Beta  occ. eigenvalues --  -11.44567 -11.38418 -11.37139 -11.35440 -11.35094
  Beta  occ. eigenvalues --  -11.34978 -11.34787 -11.34491 -11.34452 -11.34433
  Beta  occ. eigenvalues --  -11.34389 -11.34308 -11.33639  -5.51937  -5.51869
  Beta  occ. eigenvalues --   -5.51788  -5.50412  -2.15967  -2.15916  -2.15872
  Beta  occ. eigenvalues --   -2.15793  -2.15712  -2.15672  -2.15620  -2.15592
  Beta  occ. eigenvalues --   -2.15230  -2.13798  -2.12698  -2.12686  -1.30539
  Beta  occ. eigenvalues --   -1.07014  -1.06833  -1.06696  -1.03885  -1.00636
  Beta  occ. eigenvalues --   -1.00592  -1.00535  -1.00267  -1.00139  -1.00042
  Beta  occ. eigenvalues --   -1.00011  -0.82140  -0.77027  -0.72476  -0.66965
  Beta  occ. eigenvalues --   -0.64510  -0.64280  -0.64179  -0.58580  -0.57241
  Beta  occ. eigenvalues --   -0.57156  -0.56599  -0.56360  -0.56107  -0.56019
  Beta  occ. eigenvalues --   -0.55613  -0.55459  -0.55240  -0.54358  -0.54125
  Beta  occ. eigenvalues --   -0.53961  -0.53736  -0.53558  -0.53285  -0.52880
  Beta  occ. eigenvalues --   -0.52648  -0.52509  -0.52127  -0.49135  -0.46688
  Beta  occ. eigenvalues --   -0.44941  -0.44421  -0.43332  -0.39827  -0.39163
  Beta  occ. eigenvalues --   -0.39077  -0.38458  -0.38381  -0.38209  -0.34151
  Beta  occ. eigenvalues --   -0.28077  -0.27936
  Beta virt. eigenvalues --    0.03700   0.04550   0.04742   0.04985   0.05033
  Beta virt. eigenvalues --    0.05114   0.05265   0.05493   0.05626   0.05797
  Beta virt. eigenvalues --    0.05892   0.05931   0.06216   0.06294   0.06353

 Mulliken charges and spin densities:
               1          2
     1  Si  10.457435  -0.031546
     2  Si  10.721584   0.029435
     3  Si  10.528824   0.155267
     4  C   -7.118696   0.007422
     5  H    0.899434  -0.000435
     6  H    1.164108   0.002302
     7  H    1.497979   0.002340
     8  C   -7.030701   0.006550
     9  H    0.997550   0.000864
    10  H    1.123604   0.002150
    11  H    1.381680  -0.000235
    12  C   -7.116614   0.023724
    13  H    0.859116  -0.000727
    14  H    1.438871  -0.008276
    15  H    1.309775   0.020523
    16  C   -7.291021  -0.001299
    17  H    1.238620   0.000383
    18  H    0.944950  -0.000839
    19  H    1.186771   0.004334
    20  C   -7.021701  -0.005990
    21  H    1.383475   0.001933
    22  H    0.905823  -0.001162
    23  H    1.125351   0.001969
    24  C   -7.071953   0.025426
    25  H    1.195666   0.001310
    26  H    1.285611   0.002405
    27  H    1.050432   0.005295
    28  C   -6.894381   0.000429
    29  H    1.449357  -0.001834
    30  H    0.933735   0.007278
    31  H    1.223356  -0.004827
    32  C   -6.992141  -0.010067
    33  H    1.039089   0.005355
    34  H    1.155501  -0.001024
    35  H    1.311284  -0.002676
    36  C   -6.899789  -0.010447
    37  H    1.010548   0.002050
    38  H    1.137485  -0.000804
    39  H    1.337646  -0.001732
    40  C   -0.220986  -0.468980
    41  C   -3.393414   1.956733
    42  C   -3.977360  -0.011554
    43  C   -4.287579  -0.444956
    44  H    2.054391   0.006485
    45  C   -4.226269   0.011190
    46  H    1.959262  -0.000538
    47  H    1.305814   0.001920
    48  H    1.305645   0.023656
    49  H    1.643779   0.014579
    50  H    1.409074   0.001442
    51  H    1.952943  -0.002027
    52  Si   3.362470  -0.323886
    53  H    1.254566   0.011113
 Sum of Mulliken charges =  -0.00000   1.00000

 Dipole moment (field-independent basis, Debye):
    X=              0.4081    Y=             -0.1376    Z=             -0.4964  Tot=              0.6572
                          Isotropic Fermi Contact Couplings
        Atom                 a.u.       MegaHertz       Gauss      10(-4) cm-1
     1  Si(29)            -0.00248       2.20551       0.78698       0.73568
     2  Si(29)            -0.00247       2.19522       0.78331       0.73225
     3  Si(29)             0.01041      -9.25210      -3.30138      -3.08617
     4  C(13)              0.00050       0.55912       0.19951       0.18650
     5  H(1)               0.00004       0.17768       0.06340       0.05927
     6  H(1)               0.00000       0.00402       0.00143       0.00134
     7  H(1)               0.00003       0.15028       0.05362       0.05013
     8  C(13)             -0.00020      -0.22204      -0.07923      -0.07406

 Normal termination of Gaussian 16 at Wed Apr  9 03:47:49 2025.
