 Gaussian 16, Revision C.01,

 ----------------------------------------------------------------------
 #t hf aug-cc-pvdz symm=none int=(grid=ultrafine) guess=(read,tcheck) s
 table=opt
 ----------------------------------------------------------------------
 -----
 title
 -----
 Symbolic Z-matrix:
 Charge =  0 Multiplicity = 2

 SCF Done:  E(UHF) =  -1785.60931515     A.U. after   18 cycles
 Normal termination of Gaussian 16 at Wed Apr  9 04:19:16 2025.
 Gaussian 16:  ES64L-G16RevC.01  3-Jul-2019

 ----------------------------------------------------------------------
 #t hf aug-cc-pvdz iop(5/13=1,5/36=2,99/5=2) pseudo=read geom=check gue
 ss=(read,tcheck) scf=(maxcycle=1)
 ----------------------------------------------------------------------
 -----
 title
 -----
 Structure from the checkpoint file:  "BH10_307_reverse_mol2.chk"
 Charge =  0 Multiplicity = 2

                         Standard orientation:
 ---------------------------------------------------------------------
 Center     Atomic      Atomic             Coordinates (Angstroms)
 Number     Number       Type             X           Y           Z
 ---------------------------------------------------------------------
      1          6           0       -2.267841    0.574779   -0.228636
      2          6           0       -1.095685    0.420139   -1.134783
      3          1           0       -2.167725    1.290195    0.585681
      4         14           0        0.495082    0.029012   -0.113388
      5         14           0        1.330895    1.971463    0.917684
      6         14           0        2.158571   -0.861795   -1.520572
      7         14           0        0.013316   -1.565376    1.546232
      8          6           0       -1.041309   -2.958856    0.840686
      9          1           0       -1.237853   -3.716658    1.604676
     10          1           0       -2.003441   -2.586560    0.486383
     11          1           0       -0.544995   -3.451229    0.001728
     12          6           0       -0.899831   -0.787821    3.000754
     13          1           0       -1.132201   -1.543402    3.756934
     14          1           0       -0.299020   -0.012512    3.481874
     15          1           0       -1.838774   -0.333241    2.680336
     16          6           0        1.615537   -2.319930    2.198605
     17          1           0        2.294382   -1.559296    2.589717
     18          1           0        1.399115   -3.020555    3.010285
     19          1           0        2.147139   -2.872614    1.420819
     20          6           0       -0.051506    2.988461    1.700253
     21          1           0       -0.611489    2.403233    2.433080
     22          1           0        0.363179    3.859823    2.215504
     23          1           0       -0.760446    3.351755    0.953284
     24          6           0        2.544191    1.486584    2.278051
     25          1           0        2.986926    2.380170    2.727402
     26          1           0        2.051325    0.926264    3.075560
     27          1           0        3.359054    0.870116    1.892845
     28          6           0        2.247305    3.061145   -0.320168
     29          1           0        2.635951    3.957417    0.172049
     30          1           0        3.095102    2.533855   -0.763596
     31          1           0        1.595618    3.384044   -1.134700
     32          6           0        3.830276   -0.830544   -0.647663
     33          1           0        4.592137   -1.310284   -1.268852
     34          1           0        4.160435    0.192550   -0.453558
     35          1           0        3.800467   -1.357272    0.308146
     36          6           0        2.324830    0.104423   -3.132080
     37          1           0        2.530865    1.162071   -2.953905
     38          1           0        3.148977   -0.300116   -3.727102
     39          1           0        1.418269    0.037152   -3.737695
     40          6           0        1.745037   -2.648924   -1.962509
     41          1           0        2.484081   -3.054319   -2.659603
     42          1           0        1.736156   -3.290722   -1.078933
     43          1           0        0.763993   -2.726468   -2.437904
     44          6           0       -0.900813    1.655083   -2.042860
     45          1           0       -1.755030    1.787077   -2.711945
     46          1           0       -0.810985    2.565974   -1.447232
     47          1           0       -0.003712    1.568939   -2.658462
     48          6           0       -3.756191   -0.954794   -1.584633
     49          6           0       -3.682559    0.138600   -0.515863
     50          1           0       -3.378278   -0.602533   -2.546937
     51          1           0       -3.180013   -1.837437   -1.299024
     52          1           0       -4.793238   -1.266127   -1.731461
     53          6           0       -4.322675   -0.374689    0.783614
     54          6           0       -4.490521    1.361496   -0.999835
     55          1           0       -4.272077    0.385082    1.567795
     56          1           0       -5.375617   -0.623679    0.624887
     57          1           0       -3.813703   -1.268266    1.149937
     58          1           0       -5.535825    1.087537   -1.172662
     59          1           0       -4.469230    2.161234   -0.255839
     60          1           0       -4.085334    1.758031   -1.932833
     61          1           0       -1.253763   -0.446410   -1.783673
 ---------------------------------------------------------------------

 SCF Done:  E(UHF) =  -1789.59083010     A.U. after    2 cycles

 The electronic state is 2-A.
 Alpha  occ. eigenvalues --  -76.17873 -76.17860 -76.17689 -76.16318 -11.47422
 Alpha  occ. eigenvalues --  -11.42327 -11.39701 -11.39389 -11.38828 -11.37866
 Alpha  occ. eigenvalues --  -11.35569 -11.35232 -11.35083 -11.34666 -11.34603
 Alpha  occ. eigenvalues --  -11.34568 -11.34520 -11.34493 -11.34443 -11.34328
 Alpha  occ. eigenvalues --   -5.51918  -5.51894  -5.51728  -5.50423  -2.16063
 Alpha  occ. eigenvalues --   -2.15979  -2.15940  -2.15798  -2.15748  -2.15659
 Alpha  occ. eigenvalues --   -2.15647  -2.15600  -2.15416  -2.13942  -2.12782
 Alpha  occ. eigenvalues --   -2.12683  -1.31034  -1.16383  -1.07066  -1.06882
 Alpha  occ. eigenvalues --   -1.06645  -1.00686  -1.00628  -1.00510  -1.00478
 Alpha  occ. eigenvalues --   -1.00274  -1.00108  -1.00046  -1.00041  -0.98694
 Alpha  occ. eigenvalues --   -0.85813  -0.75581  -0.73850  -0.64725  -0.64371
 Alpha  occ. eigenvalues --   -0.63955  -0.61937  -0.60863  -0.59229  -0.57944
 Alpha  occ. eigenvalues --   -0.57482  -0.57165  -0.56922  -0.56362  -0.56149
 Alpha  occ. eigenvalues --   -0.55972  -0.55701  -0.55581  -0.55260  -0.54846
 Alpha  occ. eigenvalues --   -0.54390  -0.54200  -0.53953  -0.53607  -0.53542
 Alpha  occ. eigenvalues --   -0.53496  -0.53216  -0.52836  -0.52671  -0.52472
 Alpha  occ. eigenvalues --   -0.52252  -0.50733  -0.50398  -0.47776  -0.45044
 Alpha  occ. eigenvalues --   -0.43372  -0.41577  -0.39603  -0.39174  -0.39046
 Alpha  occ. eigenvalues --   -0.38515  -0.38307  -0.38192  -0.34260  -0.28744
 Alpha  occ. eigenvalues --   -0.28158  -0.25856
 Alpha virt. eigenvalues --    0.03812   0.04369   0.04474   0.04706   0.04863
 Alpha virt. eigenvalues --    0.04983   0.05097   0.05435   0.05549   0.05685
 Alpha virt. eigenvalues --    0.05761   0.05819   0.05934   0.06007   0.06193

  Beta  occ. eigenvalues --  -76.17873 -76.17854 -76.17690 -76.16286 -11.46352
  Beta  occ. eigenvalues --  -11.42447 -11.39334 -11.39128 -11.38603 -11.37796
  Beta  occ. eigenvalues --  -11.35558 -11.35229 -11.35071 -11.34644 -11.34584
  Beta  occ. eigenvalues --  -11.34541 -11.34495 -11.34444 -11.34329 -11.34141
  Beta  occ. eigenvalues --   -5.51914  -5.51888  -5.51729  -5.50371  -2.16030
  Beta  occ. eigenvalues --   -2.15957  -2.15924  -2.15795  -2.15736  -2.15648
  Beta  occ. eigenvalues --   -2.15631  -2.15599  -2.15348  -2.13893  -2.12759
  Beta  occ. eigenvalues --   -2.12650  -1.29353  -1.15530  -1.07044  -1.06881
  Beta  occ. eigenvalues --   -1.06631  -1.00634  -1.00532  -1.00476  -1.00458
  Beta  occ. eigenvalues --   -1.00265  -1.00069  -0.99999  -0.99585  -0.94940
  Beta  occ. eigenvalues --   -0.84744  -0.74770  -0.73011  -0.64614  -0.64349
  Beta  occ. eigenvalues --   -0.63757  -0.61321  -0.60020  -0.59125  -0.57685
  Beta  occ. eigenvalues --   -0.57379  -0.57154  -0.56646  -0.56335  -0.56039
  Beta  occ. eigenvalues --   -0.55929  -0.55590  -0.55414  -0.55225  -0.54475
  Beta  occ. eigenvalues --   -0.54246  -0.53940  -0.53731  -0.53533  -0.53524
  Beta  occ. eigenvalues --   -0.53286  -0.53133  -0.52780  -0.52595  -0.52401
  Beta  occ. eigenvalues --   -0.52058  -0.50665  -0.49274  -0.47270  -0.43422
  Beta  occ. eigenvalues --   -0.42391  -0.41366  -0.39524  -0.39154  -0.39024
  Beta  occ. eigenvalues --   -0.38496  -0.38281  -0.38189  -0.32615  -0.28140
  Beta  occ. eigenvalues --   -0.27962
  Beta virt. eigenvalues --    0.03824   0.04370   0.04477   0.04682   0.04864
  Beta virt. eigenvalues --    0.04981   0.05067   0.05366   0.05545   0.05639
  Beta virt. eigenvalues --    0.05746   0.05772   0.05876   0.05971   0.06192

 Mulliken charges and spin densities:
               1          2
     1  C    1.146736   2.017443
     2  C   -3.692623  -0.645882
     3  H    2.473628  -0.045459
     4  Si   3.762233   0.217663
     5  Si  10.797371  -0.026280
     6  Si  10.715689   0.008023
     7  Si   9.412661  -0.226333
     8  C   -7.248768   0.050432
     9  H    0.830243  -0.006048
    10  H    1.992253   0.061025
    11  H    1.178235  -0.002103
    12  C   -7.102663   0.055275
    13  H    0.905964  -0.000659
    14  H    1.174208  -0.007178
    15  H    1.737465   0.049699
    16  C   -7.104764   0.002573
    17  H    1.392186  -0.001477
    18  H    0.913740  -0.001803
    19  H    1.131294  -0.001399
    20  C   -7.443808  -0.008712
    21  H    1.329871  -0.001069
    22  H    0.924542  -0.000261
    23  H    1.347084   0.003504
    24  C   -7.069604  -0.004283
    25  H    0.901457  -0.001003
    26  H    1.112604   0.001401
    27  H    1.417837  -0.000193
    28  C   -7.030989  -0.001593
    29  H    1.080404  -0.000181
    30  H    1.092255   0.001097
    31  H    1.214973   0.001575
    32  C   -7.078779   0.004229
    33  H    0.953052  -0.000215
    34  H    1.140171   0.001851
    35  H    1.461729   0.000354
    36  C   -7.160973  -0.007082
    37  H    1.270440  -0.000886
    38  H    0.943729   0.000251
    39  H    1.182752   0.000642
    40  C   -7.181257  -0.004878
    41  H    1.030448  -0.000098
    42  H    1.212230  -0.000812
    43  H    1.317712  -0.000346
    44  C   -6.426684   0.112364
    45  H    1.293306  -0.004395
    46  H    1.512985  -0.030086
    47  H    1.822008  -0.004294
    48  C   -6.415059   0.097925
    49  C    5.492871  -1.030568
    50  H    1.469177  -0.005035
    51  H    1.506606  -0.009130
    52  H    1.049434  -0.002318
    53  C   -6.188014   0.192261
    54  C   -6.428103   0.226434
    55  H    1.459475   0.001419
    56  H    1.163187  -0.000098
    57  H    1.502416  -0.003998
    58  H    1.261809   0.004198
    59  H    1.207561   0.015882
    60  H    1.431989  -0.011523
    61  H    0.902067  -0.029839
 Sum of Mulliken charges =  -0.00000   1.00000

 Dipole moment (field-independent basis, Debye):
    X=             -0.4744    Y=              0.0401    Z=             -0.4524  Tot=              0.6568
                          Isotropic Fermi Contact Couplings
        Atom                 a.u.       MegaHertz       Gauss      10(-4) cm-1
     1  C(13)              0.16133     181.37076      64.71760      60.49877
     2  C(13)             -0.03522     -39.59622     -14.12891     -13.20788
     3  H(1)              -0.01678     -74.99508     -26.76011     -25.01567
     4  Si(29)             0.03873     -34.42129     -12.28237     -11.48171
     5  Si(29)            -0.00068       0.60556       0.21608       0.20199
     6  Si(29)             0.00762      -6.77312      -2.41682      -2.25927
     7  Si(29)             0.00030      -0.26501      -0.09456      -0.08840
     8  C(13)              0.00068       0.76495       0.27295       0.25516

 Normal termination of Gaussian 16 at Wed Apr  9 04:23:38 2025.
