 Gaussian 16, Revision C.01,

 ----------------------------------------------------------------------
 #t hf aug-cc-pvdz symm=none int=(grid=ultrafine) guess=(read,tcheck) s
 table=(opt,rrhf)
 ----------------------------------------------------------------------
 -----
 title
 -----
 Symbolic Z-matrix:
 Charge =  0 Multiplicity = 1

 SCF Done:  E(RHF) =  -728.994773131     A.U. after   14 cycles
 Normal termination of Gaussian 16 at Wed Apr  9 00:57:39 2025.
 Gaussian 16:  ES64L-G16RevC.01  3-Jul-2019

 ----------------------------------------------------------------------
 #t hf aug-cc-pvdz iop(5/13=1,5/36=2,99/5=2) pseudo=read geom=check gue
 ss=(read,tcheck) scf=(maxcycle=1)
 ----------------------------------------------------------------------
 -----
 title
 -----
 Structure from the checkpoint file:  "BH10_135_reverse_mol3.chk"
 Charge =  0 Multiplicity = 1

                         Standard orientation:
 ---------------------------------------------------------------------
 Center     Atomic      Atomic             Coordinates (Angstroms)
 Number     Number       Type             X           Y           Z
 ---------------------------------------------------------------------
      1          8           0        0.335356   -1.005984    1.316070
      2          6           0        0.502537   -0.325641    0.368838
      3          6           0       -0.477219    0.629309   -0.272524
      4          6           0       -1.915852    0.228835    0.054427
      5          1           0       -0.314518    0.579123   -1.351935
      6          6           0       -0.148749    2.049899    0.206600
      7          1           0       -2.038754    0.200506    1.139998
      8          6           0       -2.335831   -1.103231   -0.556162
      9          1           0       -2.567401    1.025641   -0.315217
     10          1           0       -2.228948   -1.089272   -1.644040
     11          1           0       -3.380574   -1.321454   -0.328886
     12          1           0       -1.736314   -1.927889   -0.166863
     13          1           0        0.877359    2.329272   -0.032113
     14          1           0       -0.290249    2.133765    1.286128
     15          1           0       -0.818401    2.759662   -0.280746
     16         17           0        2.121509   -0.324500   -0.449527
 ---------------------------------------------------------------------

 SCF Done:  E(RHF) =  -730.531137771     A.U. after    2 cycles

 The electronic state is 1-A.
 Alpha  occ. eigenvalues --  -99.89295 -21.09738 -11.54966 -11.45197 -11.42236
 Alpha  occ. eigenvalues --  -11.39343 -11.36766 -10.46661  -9.66591  -9.65845
 Alpha  occ. eigenvalues --   -9.65747  -1.76456  -1.33264  -1.26182  -1.10473
 Alpha  occ. eigenvalues --   -0.96722  -0.90270  -0.77385  -0.70834  -0.62776
 Alpha  occ. eigenvalues --   -0.62283  -0.59674  -0.57907  -0.56895  -0.54437
 Alpha  occ. eigenvalues --   -0.51894  -0.50508  -0.47990  -0.47377  -0.45396
 Alpha  occ. eigenvalues --   -0.42737  -0.34021
 Alpha virt. eigenvalues --    0.03811   0.04807   0.05265   0.05570   0.05798
 Alpha virt. eigenvalues --    0.06310   0.06944   0.07787   0.08718   0.09242
 Alpha virt. eigenvalues --    0.10037   0.10715   0.11867   0.13162   0.13692

 Mulliken charges:
               1
     1  O   -2.941771
     2  C    2.730188
     3  C   -1.162522
     4  C   -2.761962
     5  H    1.953188
     6  C   -4.172845
     7  H    1.429365
     8  C   -3.881314
     9  H    1.409413
    10  H    1.265628
    11  H    1.068080
    12  H    1.329860
    13  H    1.230755
    14  H    1.335972
    15  H    1.320690
    16  Cl  -0.152725
 Sum of Mulliken charges =  -0.00000

 Dipole moment (field-independent basis, Debye):
    X=             -3.0579    Y=              0.9118    Z=              0.5712  Tot=              3.2417

 Test job not archived.
 1\1\GINC-SE247\SP\RHF\Aug-CC-pVDZ\C5H9Cl1O1\OHZDE\09-Apr-2025\0\\#t hf
  aug-cc-pvdz iop(5/13=1,5/36=2,99/5=2) pseudo=read geom=check guess=(r
 ead,tcheck) scf=(maxcycle=1)\\title\\0,1\O,0,0.335356,-1.005984,1.3160
 7\C,0,0.502537,-0.325641,0.368838\C,0,-0.477219,0.629309,-0.272524\C,0
 ,-1.915852,0.228835,0.054427\H,0,-0.314518,0.579123,-1.351935\C,0,-0.1
 48749,2.049899,0.2066\H,0,-2.038754,0.200506,1.139998\C,0,-2.335831,-1
 .103231,-0.556162\H,0,-2.567401,1.025641,-0.315217\H,0,-2.228948,-1.08
 9272,-1.64404\H,0,-3.380574,-1.321454,-0.328886\H,0,-1.736314,-1.92788

 Normal termination of Gaussian 16 at Wed Apr  9 00:57:45 2025.
