 Gaussian 16, Revision C.01,

 ----------------------------------------------------------------------
 #t hf aug-cc-pvdz symm=none int=(grid=ultrafine) guess=(read,tcheck) s
 table=opt
 ----------------------------------------------------------------------
 -----
 title
 -----
 Symbolic Z-matrix:
 Charge =  0 Multiplicity = 2

 SCF Done:  E(UHF) =  -915.262626088     A.U. after   16 cycles
 Normal termination of Gaussian 16 at Wed Apr  9 02:02:42 2025.
 Gaussian 16:  ES64L-G16RevC.01  3-Jul-2019

 ----------------------------------------------------------------------
 #t hf aug-cc-pvdz iop(5/13=1,5/36=2,99/5=2) pseudo=read geom=check gue
 ss=(read,tcheck) scf=(maxcycle=1)
 ----------------------------------------------------------------------
 -----
 title
 -----
 Structure from the checkpoint file:  "BH10_295_reverse_mol2.chk"
 Charge =  0 Multiplicity = 2

                         Standard orientation:
 ---------------------------------------------------------------------
 Center     Atomic      Atomic             Coordinates (Angstroms)
 Number     Number       Type             X           Y           Z
 ---------------------------------------------------------------------
      1         14           0        3.281658    0.111974    0.099859
      2          6           0        2.082325    1.550439    0.324742
      3          6           0        2.078071    2.573480   -0.815639
      4          6           0        3.261552   -0.943366    1.660705
      5          6           0        4.179501   -2.169111    1.616519
      6          6           0        5.021161    0.771455   -0.221366
      7          6           0        5.574873    1.664622    0.894079
      8          6           0        2.753971   -0.956729   -1.387059
      9          6           0        1.423291   -1.575369   -1.183518
     10          6           0        0.154609   -0.906034   -1.586162
     11          6           0       -0.978570   -1.069054   -0.571770
     12          6           0       -3.402009   -0.546691    0.012434
     13          6           0       -2.273704   -0.390186   -1.000550
     14          6           0       -4.697480    0.135821   -0.411912
     15          6           0       -5.825789   -0.022117    0.600855
     16          6           0       -7.122198    0.661100    0.178729
     17          6           0       -8.242967    0.495837    1.198737
     18          1           0        1.076983    1.140152    0.464719
     19          1           0        2.326694    2.051272    1.267996
     20          1           0        1.821758    2.111030   -1.772256
     21          1           0        1.355247    3.373666   -0.639171
     22          1           0        3.058152    3.041675   -0.936598
     23          1           0        2.228427   -1.258376    1.840755
     24          1           0        3.529916   -0.307650    2.511481
     25          1           0        4.131795   -2.744741    2.543983
     26          1           0        3.905996   -2.844373    0.801706
     27          1           0        5.223830   -1.883858    1.464957
     28          1           0        5.014006    1.320577   -1.169123
     29          1           0        5.690714   -0.080131   -0.383253
     30          1           0        4.943991    2.542742    1.055002
     31          1           0        5.631826    1.128710    1.845013
     32          1           0        6.580413    2.025174    0.664061
     33          1           0        0.337894    0.160775   -1.757121
     34          1           0       -0.192102   -1.298665   -2.556267
     35          1           0       -1.161802   -2.137013   -0.407450
     36          1           0       -0.656519   -0.664988    0.394490
     37          1           0       -3.079277   -0.141431    0.978758
     38          1           0       -3.592703   -1.613361    0.179633
     39          1           0       -2.594171   -0.797278   -1.966809
     40          1           0       -2.083900    0.676669   -1.168862
     41          1           0       -4.506736    1.202735   -0.577906
     42          1           0       -5.019721   -0.268542   -1.378789
     43          1           0       -6.017511   -1.089035    0.766572
     44          1           0       -5.503701    0.381346    1.568345
     45          1           0       -6.929879    1.726892    0.014056
     46          1           0       -7.443110    0.257652   -0.787841
     47          1           0       -9.159123    0.993468    0.873572
     48          1           0       -8.476707   -0.560290    1.358016
     49          1           0       -7.959642    0.919570    2.165997
     50          1           0        1.360675   -2.543662   -0.697277
     51          1           0        2.764013   -0.318255   -2.278814
     52          1           0        3.531257   -1.714671   -1.532539
 ---------------------------------------------------------------------

 SCF Done:  E(UHF) =  -918.713447798     A.U. after    2 cycles

 The electronic state is 2-A.
 Alpha  occ. eigenvalues --  -76.16616 -11.44099 -11.42913 -11.41994 -11.40972
 Alpha  occ. eigenvalues --  -11.39907 -11.39774 -11.39194 -11.39043 -11.38016
 Alpha  occ. eigenvalues --  -11.36464 -11.35523 -11.34975 -11.34461 -11.34252
 Alpha  occ. eigenvalues --  -11.33675 -11.33450  -5.51071  -2.15624  -2.15546
 Alpha  occ. eigenvalues --   -2.15358  -1.29695  -1.23590  -1.17463  -1.15378
 Alpha  occ. eigenvalues --   -1.13363  -1.12643  -1.08562  -1.01390  -0.94346
 Alpha  occ. eigenvalues --   -0.90155  -0.87801  -0.87028  -0.86911  -0.82164
 Alpha  occ. eigenvalues --   -0.81759  -0.80455  -0.66983  -0.65886  -0.64489
 Alpha  occ. eigenvalues --   -0.61789  -0.61495  -0.61293  -0.59449  -0.58755
 Alpha  occ. eigenvalues --   -0.58132  -0.57181  -0.56850  -0.56701  -0.55635
 Alpha  occ. eigenvalues --   -0.54143  -0.53151  -0.52976  -0.50947  -0.50344
 Alpha  occ. eigenvalues --   -0.49201  -0.49001  -0.48543  -0.48280  -0.47599
 Alpha  occ. eigenvalues --   -0.47305  -0.46959  -0.45833  -0.45393  -0.44665
 Alpha  occ. eigenvalues --   -0.44555  -0.44267  -0.43963  -0.41000  -0.35958
 Alpha  occ. eigenvalues --   -0.35308  -0.35035  -0.24597
 Alpha virt. eigenvalues --    0.03959   0.04133   0.04413   0.04851   0.05066
 Alpha virt. eigenvalues --    0.05192   0.05411   0.05570   0.05617   0.05830
 Alpha virt. eigenvalues --    0.05990   0.06171   0.06447   0.06649   0.06807

  Beta  occ. eigenvalues --  -76.16548 -11.43773 -11.42862 -11.41812 -11.40876
  Beta  occ. eigenvalues --  -11.39912 -11.39603 -11.39093 -11.38979 -11.38076
  Beta  occ. eigenvalues --  -11.36443 -11.35316 -11.34942 -11.34301 -11.34063
  Beta  occ. eigenvalues --  -11.33667 -11.33161  -5.50958  -2.15510  -2.15418
  Beta  occ. eigenvalues --   -2.15054  -1.29277  -1.22429  -1.17136  -1.14244
  Beta  occ. eigenvalues --   -1.13359  -1.12595  -1.07714  -1.01309  -0.94018
  Beta  occ. eigenvalues --   -0.89988  -0.87682  -0.86957  -0.86486  -0.81937
  Beta  occ. eigenvalues --   -0.81666  -0.76725  -0.66833  -0.65343  -0.63933
  Beta  occ. eigenvalues --   -0.61547  -0.61322  -0.61077  -0.59152  -0.58715
  Beta  occ. eigenvalues --   -0.57910  -0.56953  -0.56763  -0.56527  -0.54815
  Beta  occ. eigenvalues --   -0.53725  -0.53010  -0.52592  -0.50398  -0.50116
  Beta  occ. eigenvalues --   -0.49091  -0.48924  -0.48534  -0.48011  -0.47510
  Beta  occ. eigenvalues --   -0.46927  -0.46723  -0.45600  -0.45034  -0.44556
  Beta  occ. eigenvalues --   -0.44508  -0.44075  -0.43831  -0.38270  -0.35616
  Beta  occ. eigenvalues --   -0.35302  -0.34756
  Beta virt. eigenvalues --    0.03965   0.04121   0.04404   0.04853   0.05064
  Beta virt. eigenvalues --    0.05184   0.05419   0.05588   0.05619   0.05836
  Beta virt. eigenvalues --    0.05988   0.06167   0.06451   0.06639   0.06795

 Mulliken charges and spin densities:
               1          2
     1  Si  15.245504  -0.165677
     2  C   -5.452137  -0.032610
     3  C   -4.718373   0.010923
     4  C   -5.137266  -0.005300
     5  C   -4.578800   0.018560
     6  C   -5.035520   0.006087
     7  C   -4.611541   0.006778
     8  C   -5.203896  -0.355620
     9  C   -1.354692   2.043081
    10  C   -4.779476  -0.639644
    11  C   -2.804690   0.066306
    12  C   -2.950177  -0.022079
    13  C   -2.395001   0.048332
    14  C   -2.891525   0.004091
    15  C   -3.503924  -0.001207
    16  C   -3.978954  -0.000645
    17  C   -4.969670   0.000263
    18  H    1.789388  -0.002120
    19  H    0.775860  -0.015122
    20  H    1.514721   0.003314
    21  H    1.176920  -0.000593
    22  H    1.313298  -0.000269
    23  H    1.138798   0.014206
    24  H    0.829276  -0.015651
    25  H    1.127035   0.001895
    26  H    1.271291   0.000072
    27  H    1.279225   0.000948
    28  H    1.055468  -0.001793
    29  H    0.972109  -0.000950
    30  H    1.299723   0.002497
    31  H    1.265688   0.001572
    32  H    1.063799   0.000136
    33  H    2.208082   0.001225
    34  H    1.400790   0.023607
    35  H    1.778700  -0.011284
    36  H    2.034873   0.028680
    37  H    1.671101   0.000153
    38  H    1.656234   0.000599
    39  H    1.613457   0.000563
    40  H    1.770023   0.000207
    41  H    1.669461   0.000533
    42  H    1.675304   0.000052
    43  H    1.631212   0.000050
    44  H    1.640844  -0.000063
    45  H    1.525039  -0.000103
    46  H    1.533246  -0.000009
    47  H    1.069445  -0.000051
    48  H    1.366851  -0.000036
    49  H    1.366952  -0.000021
    50  H    1.742819  -0.005847
    51  H    0.985236   0.002017
    52  H    0.907872  -0.010051
 Sum of Mulliken charges =  -0.00000   1.00000

 Dipole moment (field-independent basis, Debye):
    X=              0.0427    Y=              0.1076    Z=              0.0159  Tot=              0.1169
                          Isotropic Fermi Contact Couplings
        Atom                 a.u.       MegaHertz       Gauss      10(-4) cm-1
     1  Si(29)             0.08085     -71.85096     -25.63821     -23.96690
     2  C(13)             -0.00129      -1.44546      -0.51578      -0.48215
     3  C(13)              0.00039       0.44257       0.15792       0.14763
     4  C(13)             -0.00152      -1.71295      -0.61122      -0.57138
     5  C(13)              0.00012       0.13651       0.04871       0.04554
     6  C(13)              0.00526       5.91692       2.11131       1.97367
     7  C(13)              0.00193       2.16582       0.77282       0.72244
     8  C(13)             -0.03229     -36.30311     -12.95385     -12.10941

 Normal termination of Gaussian 16 at Wed Apr  9 02:04:42 2025.
