 Gaussian 16, Revision C.01,

 ----------------------------------------------------------------------
 #t hf aug-cc-pvdz symm=none int=(grid=ultrafine) guess=(read,tcheck) s
 table=opt
 ----------------------------------------------------------------------
 -----
 title
 -----
 Symbolic Z-matrix:
 Charge =  0 Multiplicity = 2

 SCF Done:  E(UHF) =  -1465.21029181     A.U. after   20 cycles

 1\1\GINC-SE186\Stability\UHF\Aug-CC-pVDZ\C7H13S3\OHZDE\09-Apr-2025\0\\
 #t hf aug-cc-pvdz symm=none int=(grid=ultrafine) guess=(read,tcheck) s
 table=opt\\title\\0,2\C,0,-0.568254,-1.541204,-0.716078\H,0,-0.033787,
 -2.497163,-0.710574\H,0,-0.841447,-1.340921,-1.756458\C,0,-1.841646,-1
 .676975,0.12781\H,0,-2.302182,-2.628438,-0.15136\C,0,-2.564917,0.78477
 6,0.55443\H,0,-3.474274,1.381451,0.641914\H,0,-1.572829,-1.77712,1.184
 767\H,0,-2.147557,0.684792,1.558819\C,0,-2.906478,-0.586331,-0.024494\
 H,0,-0.352266,0.705084,-0.401683\H,0,-3.806837,-0.944297,0.486656\H,0,

 Normal termination of Gaussian 16 at Wed Apr  9 01:05:16 2025.
 Gaussian 16:  ES64L-G16RevC.01  3-Jul-2019

 ----------------------------------------------------------------------
 #t hf aug-cc-pvdz iop(5/13=1,5/36=2,99/5=2) pseudo=read geom=check gue
 ss=(read,tcheck) scf=(maxcycle=1)
 ----------------------------------------------------------------------
 -----
 title
 -----
 Structure from the checkpoint file:  "BH10_168_forward_mol1.chk"
 Charge =  0 Multiplicity = 2

                         Standard orientation:
 ---------------------------------------------------------------------
 Center     Atomic      Atomic             Coordinates (Angstroms)
 Number     Number       Type             X           Y           Z
 ---------------------------------------------------------------------
      1          6           0       -0.568254   -1.541204   -0.716078
      2          1           0       -0.033787   -2.497163   -0.710574
      3          1           0       -0.841447   -1.340921   -1.756458
      4          6           0       -1.841646   -1.676975    0.127810
      5          1           0       -2.302182   -2.628438   -0.151360
      6          6           0       -2.564917    0.784776    0.554430
      7          1           0       -3.474274    1.381451    0.641914
      8          1           0       -1.572829   -1.777120    1.184767
      9          1           0       -2.147557    0.684792    1.558819
     10          6           0       -2.906478   -0.586331   -0.024494
     11          1           0       -0.352266    0.705084   -0.401683
     12          1           0       -3.806837   -0.944297    0.486656
     13          1           0       -3.171556   -0.473337   -1.080018
     14          6           0        0.396805   -0.466071   -0.273853
     15          6           0        2.194614    0.756937    1.143479
     16          6           0        2.965552    0.350331   -0.101062
     17          1           0        2.838475    0.788984    2.022168
     18          1           0        1.712780    1.726906    1.015872
     19          1           0        3.542643    1.185264   -0.497814
     20          1           0        3.635873   -0.482127    0.110264
     21         16           0        0.908314   -0.493285    1.426982
     22         16           0        1.770876   -0.177078   -1.381430
     23         16           0       -1.434259    1.791747   -0.463299
 ---------------------------------------------------------------------

 SCF Done:  E(UHF) =  -1467.29073928     A.U. after    2 cycles

 The electronic state is 2-A.
 Alpha  occ. eigenvalues --  -75.69693 -75.69298 -75.66530 -13.17108 -13.16272
 Alpha  occ. eigenvalues --  -13.14650 -13.11891 -13.10805 -13.10404 -13.06742
 Alpha  occ. eigenvalues --  -13.05218 -13.01264 -11.47747 -11.45120 -11.44527
 Alpha  occ. eigenvalues --  -11.42405 -11.40482 -11.39685 -11.36315  -8.04001
 Alpha  occ. eigenvalues --   -8.03382  -8.00243  -1.38391  -1.26084  -1.16648
 Alpha  occ. eigenvalues --   -1.12384  -1.10872  -1.01550  -0.91695  -0.86866
 Alpha  occ. eigenvalues --   -0.84742  -0.78679  -0.67066  -0.66273  -0.64813
 Alpha  occ. eigenvalues --   -0.62497  -0.61315  -0.57438  -0.56200  -0.54755
 Alpha  occ. eigenvalues --   -0.52109  -0.47832  -0.45621  -0.44237  -0.42264
 Alpha  occ. eigenvalues --   -0.41893  -0.38074  -0.34590  -0.29921  -0.23995
 Alpha  occ. eigenvalues --   -0.22226  -0.17241
 Alpha virt. eigenvalues --    0.02983   0.03700   0.04786   0.05200   0.05422
 Alpha virt. eigenvalues --    0.06035   0.06114   0.06504   0.06849   0.07412
 Alpha virt. eigenvalues --    0.07730   0.08482   0.09081   0.09955   0.10686

  Beta  occ. eigenvalues --  -75.69666 -75.69262 -75.65970 -13.16939 -13.16163
  Beta  occ. eigenvalues --  -13.14661 -13.11147 -13.10280 -13.09503 -13.06083
  Beta  occ. eigenvalues --  -13.04197 -13.00904 -11.46806 -11.45058 -11.44408
  Beta  occ. eigenvalues --  -11.41933 -11.40475 -11.39635 -11.36297  -8.03969
  Beta  occ. eigenvalues --   -8.03342  -7.99617  -1.37106  -1.25737  -1.15208
  Beta  occ. eigenvalues --   -1.12056  -1.08943  -1.00506  -0.90462  -0.86677
  Beta  occ. eigenvalues --   -0.83167  -0.75541  -0.66587  -0.64944  -0.63980
  Beta  occ. eigenvalues --   -0.61638  -0.60988  -0.56270  -0.55280  -0.53609
  Beta  occ. eigenvalues --   -0.51765  -0.47543  -0.44846  -0.43746  -0.41995
  Beta  occ. eigenvalues --   -0.41318  -0.37490  -0.33709  -0.27012  -0.23117
  Beta  occ. eigenvalues --   -0.21518
  Beta virt. eigenvalues --    0.02972   0.03560   0.04697   0.05222   0.05374
  Beta virt. eigenvalues --    0.05910   0.06099   0.06425   0.06662   0.07350
  Beta virt. eigenvalues --    0.07720   0.08426   0.08913   0.09491   0.10040

 Mulliken charges and spin densities:
               1          2
     1  C   -3.997858  -0.218499
     2  H    1.329544  -0.001573
     3  H    1.206372   0.007235
     4  C   -2.928245   0.018569
     5  H    1.299701   0.002873
     6  C   -4.379814  -0.063546
     7  H    1.330047  -0.005944
     8  H    1.678538   0.003143
     9  H    1.578154   0.001508
    10  C   -2.523802   0.014196
    11  H    4.375491  -0.526616
    12  H    1.280298  -0.000445
    13  H    1.554685   0.001306
    14  C   -0.707264   1.051350
    15  C   -4.218586  -0.045114
    16  C   -3.600264   0.015325
    17  H    1.349738  -0.001222
    18  H    1.436536   0.005542
    19  H    1.394241   0.002867
    20  H    1.543583  -0.012459
    21  S    0.521218   0.039001
    22  S    0.691406   0.085505
    23  S   -0.213720   0.626997
 Sum of Mulliken charges =   0.00000   1.00000

 Dipole moment (field-independent basis, Debye):
    X=              0.8249    Y=             -0.6640    Z=              0.5781  Tot=              1.2065
                          Isotropic Fermi Contact Couplings
        Atom                 a.u.       MegaHertz       Gauss      10(-4) cm-1
     1  C(13)             -0.01510     -16.97699      -6.05781      -5.66292
     2  H(1)               0.00787      35.19505      12.55847      11.73981
     3  H(1)               0.00182       8.14333       2.90574       2.71632
     4  C(13)              0.00354       3.98162       1.42074       1.32813
     5  H(1)              -0.00044      -1.95097      -0.69615      -0.65077
     6  C(13)             -0.00645      -7.25112      -2.58738      -2.41871
     7  H(1)               0.00505      22.57117       8.05395       7.52893
     8  H(1)              -0.00024      -1.05298      -0.37573      -0.35124

 Normal termination of Gaussian 16 at Wed Apr  9 01:05:36 2025.
