 Gaussian 16, Revision C.01,

 ----------------------------------------------------------------------
 #t hf aug-cc-pvdz symm=none int=(grid=ultrafine) guess=(read,tcheck) s
 table=(opt,rrhf)
 ----------------------------------------------------------------------
 -----
 title
 -----
 Symbolic Z-matrix:
 Charge =  0 Multiplicity = 1

 SCF Done:  E(RHF) =  -1155.56506024     A.U. after   16 cycles
 Normal termination of Gaussian 16 at Wed Apr  9 03:15:22 2025.
 Gaussian 16:  ES64L-G16RevC.01  3-Jul-2019

 ----------------------------------------------------------------------
 #t hf aug-cc-pvdz iop(5/13=1,5/36=2,99/5=2) pseudo=read geom=check gue
 ss=(read,tcheck) scf=(maxcycle=1)
 ----------------------------------------------------------------------
 -----
 title
 -----
 Structure from the checkpoint file:  "BH10_401_forward_mol2.chk"
 Charge =  0 Multiplicity = 1

                         Standard orientation:
 ---------------------------------------------------------------------
 Center     Atomic      Atomic             Coordinates (Angstroms)
 Number     Number       Type             X           Y           Z
 ---------------------------------------------------------------------
      1          6           0       -0.114498   -2.591609   -0.405885
      2          1           0       -0.581837   -3.319622   -1.091710
      3          6           0        0.929545   -1.795482   -1.152948
      4          6           0       -0.313455    0.325631   -0.823835
      5          1           0       -0.425665    1.037071   -0.005703
      6          1           0       -0.371172    0.889338   -1.759071
      7          6           0       -1.488154   -0.667728   -0.749526
      8          1           0       -1.644391   -1.111516   -1.750025
      9          7           0       -1.107792   -1.714065    0.194347
     10          6           0        2.147976    0.222862   -0.301657
     11          6           0        1.630259   -2.313245   -2.153148
     12          6           0        3.406863   -0.529183   -0.086710
     13          6           0        3.559525   -1.505675    0.800924
     14          6           0        1.026817   -0.376281   -0.730791
     15          6           0        4.832207   -2.253863    1.039887
     16          1           0        5.145018   -2.185651    2.086031
     17          1           0        4.707995   -3.318003    0.815585
     18          1           0        5.641878   -1.869960    0.416268
     19          6           0       -2.220287   -2.452407    0.753864
     20          1           0       -2.823435   -2.938203   -0.035327
     21          1           0       -1.816906   -3.247408    1.385649
     22          6           0       -2.768984    0.043506   -0.369275
     23          6           0       -3.520986   -0.337251    0.740425
     24          6           0       -3.091006   -1.517028    1.570576
     25          1           0       -2.521400   -1.174334    2.439874
     26          1           0       -3.970161   -2.047309    1.945055
     27          1           0        0.368476   -3.158673    0.397343
     28          6           0       -4.680845    0.369843    1.053536
     29          1           0       -5.264468    0.065678    1.916087
     30          6           0       -3.207194    1.110339   -1.154075
     31          1           0       -2.636870    1.397688   -2.030188
     32          6           0       -5.099759    1.438615    0.281096
     33          1           0       -6.004446    1.975572    0.539521
     34          6           0       -4.359210    1.807529   -0.835594
     35          1           0       -4.682016    2.633574   -1.457669
     36         14           0        2.237709    2.044836    0.214318
     37          6           0        1.530110    2.214180    1.946747
     38          1           0        2.073260    1.570558    2.642962
     39          1           0        1.612301    3.243510    2.306308
     40          1           0        0.476871    1.928297    1.986611
     41          6           0        4.046117    2.555237    0.244481
     42          1           0        4.505812    2.471109   -0.743757
     43          1           0        4.136918    3.597440    0.561945
     44          1           0        4.626935    1.942399    0.936579
     45          6           0        1.343035    3.202308   -0.969602
     46          1           0        1.610270    2.988212   -2.007565
     47          1           0        0.257597    3.144007   -0.882866
     48          1           0        1.635473    4.235174   -0.760631
     49          1           0        2.384393   -1.733033   -2.669198
     50          1           0        1.480445   -3.337952   -2.475913
     51          1           0        2.698433   -1.801241    1.396770
     52          1           0        4.278853   -0.207773   -0.654774
 ---------------------------------------------------------------------

 SCF Done:  E(RHF) =  -1160.04692301     A.U. after    2 cycles

 The electronic state is 1-A.
 Alpha  occ. eigenvalues --  -76.17592 -15.70237 -11.52272 -11.51877 -11.50167
 Alpha  occ. eigenvalues --  -11.46684 -11.45839 -11.44694 -11.43809 -11.43544
 Alpha  occ. eigenvalues --  -11.42326 -11.41118 -11.40683 -11.40246 -11.39331
 Alpha  occ. eigenvalues --  -11.38965 -11.38423 -11.37530 -11.36157 -11.35502
 Alpha  occ. eigenvalues --  -11.34433 -11.34144 -11.33737  -5.51826  -2.16961
 Alpha  occ. eigenvalues --   -2.15934  -2.15573  -1.49445  -1.33928  -1.28436
 Alpha  occ. eigenvalues --   -1.20347  -1.17386  -1.15340  -1.09379  -1.07282
 Alpha  occ. eigenvalues --   -1.05980  -1.03097  -1.00235  -0.99929  -0.98630
 Alpha  occ. eigenvalues --   -0.94720  -0.90493  -0.86927  -0.85028  -0.84325
 Alpha  occ. eigenvalues --   -0.78127  -0.76937  -0.70416  -0.69716  -0.67788
 Alpha  occ. eigenvalues --   -0.65582  -0.64848  -0.63945  -0.61641  -0.60850
 Alpha  occ. eigenvalues --   -0.59865  -0.58563  -0.57389  -0.56585  -0.56019
 Alpha  occ. eigenvalues --   -0.55820  -0.55483  -0.55419  -0.54629  -0.53983
 Alpha  occ. eigenvalues --   -0.53437  -0.53419  -0.52345  -0.52188  -0.52111
 Alpha  occ. eigenvalues --   -0.50763  -0.49136  -0.48703  -0.48269  -0.47251
 Alpha  occ. eigenvalues --   -0.46342  -0.43561  -0.40745  -0.39913  -0.39122
 Alpha  occ. eigenvalues --   -0.38028  -0.36996  -0.35634  -0.33447  -0.32218
 Alpha  occ. eigenvalues --   -0.31592  -0.30164  -0.27797
 Alpha virt. eigenvalues --    0.03740   0.04035   0.04274   0.04583   0.05013
 Alpha virt. eigenvalues --    0.05214   0.05426   0.05470   0.05677   0.05977
 Alpha virt. eigenvalues --    0.06233   0.06366   0.06552   0.06859   0.07278

 Mulliken charges:
               1
     1  C   -5.652002
     2  H    1.497190
     3  C    4.610580
     4  C   -4.256266
     5  H    1.636910
     6  H    1.863485
     7  C   -4.235881
     8  H    1.546577
     9  N   -2.191085
    10  C   -1.200820
    11  C   -7.235659
    12  C   -2.494890
    13  C   -1.555165
    14  C    4.999995
    15  C   -5.382014
    16  H    1.238644
    17  H    1.225762
    18  H    1.343691
    19  C   -5.246265
    20  H    1.745165
    21  H    1.658372
    22  C   10.043796
    23  C    3.755988
    24  C   -5.720725
    25  H    0.906150
    26  H    0.980846
    27  H    1.621694
    28  C   -3.401378
    29  H    1.849141
    30  C   -2.936742
    31  H    2.018613
    32  C   -2.851432
    33  H    1.597880
    34  C   -3.551758
    35  H    1.660006
    36  Si  13.465491
    37  C   -6.651805
    38  H    0.921487
    39  H    0.976592
    40  H    1.160407
    41  C   -6.684886
    42  H    1.098769
    43  H    0.852288
    44  H    1.108477
    45  C   -6.561551
    46  H    0.787800
    47  H    1.344495
    48  H    1.058150
    49  H    1.737682
    50  H    1.855706
    51  H    2.002755
    52  H    1.639740
 Sum of Mulliken charges =  -0.00000

 Dipole moment (field-independent basis, Debye):
    X=             -0.6304    Y=             -0.9123    Z=              0.1948  Tot=              1.1259

 Test job not archived.
 1\1\GINC-SE184\SP\RHF\Aug-CC-pVDZ\C21H29N1Si1\OHZDE\09-Apr-2025\0\\#t
 hf aug-cc-pvdz iop(5/13=1,5/36=2,99/5=2) pseudo=read geom=check guess=
 (read,tcheck) scf=(maxcycle=1)\\title\\0,1\C,0,-0.114498,-2.591609,-0.
 405885\H,0,-0.581837,-3.319622,-1.09171\C,0,0.929545,-1.795482,-1.1529
 48\C,0,-0.313455,0.325631,-0.823835\H,0,-0.425665,1.037071,-0.005703\H
 ,0,-0.371172,0.889338,-1.759071\C,0,-1.488154,-0.667728,-0.749526\H,0,
 -1.644391,-1.111516,-1.750025\N,0,-1.107792,-1.714065,0.194347\C,0,2.1
 47976,0.222862,-0.301657\C,0,1.630259,-2.313245,-2.153148\C,0,3.406863

 Normal termination of Gaussian 16 at Wed Apr  9 03:18:18 2025.
