 Gaussian 16, Revision C.01,

 ----------------------------------------------------------------------
 #t hf aug-cc-pvdz symm=none int=(grid=ultrafine) guess=(read,tcheck) s
 table=opt
 ----------------------------------------------------------------------
 -----
 title
 -----
 Symbolic Z-matrix:
 Charge =  0 Multiplicity = 2

 SCF Done:  E(UHF) =  -962.539676107     A.U. after   29 cycles
 Normal termination of Gaussian 16 at Wed Apr  9 01:02:01 2025.
 Gaussian 16:  ES64L-G16RevC.01  3-Jul-2019

 ----------------------------------------------------------------------
 #t hf aug-cc-pvdz iop(5/13=1,5/36=2,99/5=2) pseudo=read geom=check gue
 ss=(read,tcheck) scf=(maxcycle=1)
 ----------------------------------------------------------------------
 -----
 title
 -----
 Structure from the checkpoint file:  "BH10_157_forward_mol1.chk"
 Charge =  0 Multiplicity = 2

                         Standard orientation:
 ---------------------------------------------------------------------
 Center     Atomic      Atomic             Coordinates (Angstroms)
 Number     Number       Type             X           Y           Z
 ---------------------------------------------------------------------
      1          7           0        1.762185   -0.464392    1.058765
      2          1           0        1.462405   -0.497280    2.021498
      3          6           0        0.756336   -0.449213    0.000495
      4          1           0        1.197992   -0.960905   -0.855250
      5          6           0       -0.488677   -1.203269    0.445299
      6          6           0        0.494814    1.010126   -0.402890
      7          1           0       -0.185339   -2.174124    0.839964
      8          1           0       -1.006247   -0.671926    1.252842
      9         16           0       -1.679780   -1.481101   -0.884872
     10          8           0       -0.433607    1.675469    0.043520
     11          1           0       -2.624486   -0.252108   -0.469721
     12          7           0        1.401294    1.517311   -1.246296
     13          1           0        2.246960    0.998975   -1.452285
     14          1           0        1.342682    2.497525   -1.476435
     15          6           0        3.084074   -0.403159    0.784002
     16          1           0        3.721673   -0.475902    1.677874
     17          8           0        3.540264   -0.280845   -0.335885
     18          8           0       -3.294489    0.519918    0.093306
     19          8           0       -2.645451    0.929112    1.212988
     20          1           0       -1.836509    1.386806    0.859318
 ---------------------------------------------------------------------

 SCF Done:  E(UHF) =  -965.203133042     A.U. after    2 cycles

 The electronic state is 2-A.
 Alpha  occ. eigenvalues --  -75.70072 -21.13400 -21.10860 -21.06181 -21.05238
 Alpha  occ. eigenvalues --  -15.80386 -15.79557 -13.15921 -13.11885 -13.05492
 Alpha  occ. eigenvalues --  -11.54980 -11.51749 -11.49379 -11.43216  -8.03823
 Alpha  occ. eigenvalues --   -1.99406  -1.75319  -1.73402  -1.45356  -1.37403
 Alpha  occ. eigenvalues --   -1.35872  -1.23027  -1.08517  -0.94182  -0.88452
 Alpha  occ. eigenvalues --   -0.82160  -0.76087  -0.74432  -0.70305  -0.69127
 Alpha  occ. eigenvalues --   -0.65253  -0.61370  -0.58311  -0.56713  -0.54772
 Alpha  occ. eigenvalues --   -0.54106  -0.51930  -0.49734  -0.49229  -0.43721
 Alpha  occ. eigenvalues --   -0.41324  -0.36655  -0.34811  -0.32953  -0.32030
 Alpha  occ. eigenvalues --   -0.30647  -0.24744  -0.24069
 Alpha virt. eigenvalues --    0.02741   0.04093   0.04732   0.04979   0.05928
 Alpha virt. eigenvalues --    0.06679   0.07304   0.07918   0.08890   0.09388
 Alpha virt. eigenvalues --    0.10212   0.11096   0.12017   0.12516   0.12897

  Beta  occ. eigenvalues --  -75.69426 -21.10954 -21.10363 -21.06180 -21.05237
  Beta  occ. eigenvalues --  -15.80388 -15.79558 -13.14816 -13.08665 -13.05081
  Beta  occ. eigenvalues --  -11.54981 -11.51750 -11.49391 -11.43251  -8.03110
  Beta  occ. eigenvalues --   -1.95820  -1.75301  -1.73396  -1.45308  -1.36643
  Beta  occ. eigenvalues --   -1.32251  -1.21463  -1.06380  -0.92435  -0.88111
  Beta  occ. eigenvalues --   -0.82123  -0.76031  -0.74256  -0.69965  -0.67356
  Beta  occ. eigenvalues --   -0.65040  -0.59634  -0.56549  -0.56121  -0.54105
  Beta  occ. eigenvalues --   -0.53969  -0.51903  -0.49248  -0.46083  -0.43032
  Beta  occ. eigenvalues --   -0.39229  -0.36275  -0.34503  -0.32770  -0.30653
  Beta  occ. eigenvalues --   -0.29248  -0.23774
  Beta virt. eigenvalues --    0.02739   0.03975   0.04584   0.04738   0.05573
  Beta virt. eigenvalues --    0.06755   0.07291   0.07867   0.08229   0.09177
  Beta virt. eigenvalues --    0.09430   0.10967   0.11104   0.12042   0.12780

 Mulliken charges and spin densities:
               1          2
     1  N   -2.777926   0.006197
     2  H    0.725987   0.000967
     3  C   -0.887412   0.026298
     4  H    2.327585  -0.007561
     5  C   -4.020934  -0.103226
     6  C    5.706817  -0.006717
     7  H    1.122558   0.002926
     8  H    1.610474   0.000419
     9  S   -0.648430   0.814058
    10  O   -3.681159   0.006160
    11  H    2.115540  -0.357687
    12  N   -3.438109   0.007392
    13  H    0.806062   0.000241
    14  H    0.767451  -0.000504
    15  C    2.067403   0.001489
    16  H    1.739429  -0.000331
    17  O   -2.779777   0.000851
    18  O   -1.427527   0.542963
    19  O   -1.029142   0.080356
    20  H    1.701110  -0.014291
 Sum of Mulliken charges =   0.00000   1.00000

 Dipole moment (field-independent basis, Debye):
    X=              2.2951    Y=             -0.0006    Z=              0.6218  Tot=              2.3778
                          Isotropic Fermi Contact Couplings
        Atom                 a.u.       MegaHertz       Gauss      10(-4) cm-1
     1  N(14)             -0.00029      -0.09456      -0.03374      -0.03154
     2  H(1)               0.00001       0.02282       0.00814       0.00761
     3  C(13)              0.00239       2.68728       0.95889       0.89638
     4  H(1)              -0.00017      -0.75794      -0.27045      -0.25282
     5  C(13)             -0.00706      -7.93489      -2.83136      -2.64679
     6  C(13)             -0.00044      -0.49522      -0.17671      -0.16519
     7  H(1)               0.00493      22.03534       7.86276       7.35020
     8  H(1)               0.00670      29.93504      10.68157       9.98525

 Normal termination of Gaussian 16 at Wed Apr  9 01:02:15 2025.
