 Gaussian 16, Revision C.01,

 ----------------------------------------------------------------------
 #t hf aug-cc-pvdz symm=none int=(grid=ultrafine) guess=(read,tcheck) s
 table=(opt,rrhf)
 ----------------------------------------------------------------------
 -----
 title
 -----
 Symbolic Z-matrix:
 Charge =  0 Multiplicity = 1

 SCF Done:  E(RHF) =  -1444.34010676     A.U. after   20 cycles
 Normal termination of Gaussian 16 at Wed Apr  9 02:54:46 2025.
 Gaussian 16:  ES64L-G16RevC.01  3-Jul-2019

 ----------------------------------------------------------------------
 #t hf aug-cc-pvdz iop(5/13=1,5/36=2,99/5=2) pseudo=read geom=check gue
 ss=(read,tcheck) scf=(maxcycle=1)
 ----------------------------------------------------------------------
 -----
 title
 -----
 Structure from the checkpoint file:  "BH10_377_forward_mol1.chk"
 Charge =  0 Multiplicity = 1

                         Standard orientation:
 ---------------------------------------------------------------------
 Center     Atomic      Atomic             Coordinates (Angstroms)
 Number     Number       Type             X           Y           Z
 ---------------------------------------------------------------------
      1          6           0       -5.386186   -2.165413    0.331917
      2          6           0       -4.758030   -0.943563    0.517684
      3          6           0       -3.485932   -0.700217   -0.003443
      4          6           0       -2.850809   -1.731280   -0.702892
      5          6           0       -3.482552   -2.949558   -0.893713
      6          6           0       -4.753211   -3.174631   -0.379612
      7          1           0       -6.374621   -2.328789    0.744669
      8          1           0       -5.260926   -0.160371    1.074113
      9          1           0       -1.844583   -1.588886   -1.075864
     10          1           0       -2.972339   -3.734917   -1.438862
     11          1           0       -5.241214   -4.130361   -0.526079
     12          6           0       -2.853487    0.610125    0.229817
     13          1           0       -3.443363    1.300300    0.817174
     14          6           0       -1.962096    1.144087   -0.698522
     15          1           0       -1.657709    0.533970   -1.537483
     16          6           0       -0.465731    2.762371   -1.706765
     17          6           0       -1.625212    3.333501    0.379757
     18          6           0        0.893995    3.000015   -1.054590
     19          1           0       -0.806361    3.678519   -2.202860
     20          1           0       -0.408468    1.976795   -2.458781
     21          6           0       -0.291554    3.575373    1.083535
     22          1           0       -2.002600    4.272242   -0.041461
     23          1           0       -2.368117    2.962031    1.079535
     24          6           0        0.780674    4.009007    0.086168
     25          1           0        1.597853    3.347480   -1.814665
     26          1           0        1.273066    2.050369   -0.670153
     27          1           0       -0.431742    4.332930    1.858211
     28          1           0        0.015688    2.654926    1.587179
     29          1           0        1.743163    4.121839    0.589456
     30          1           0        0.521029    4.993219   -0.321670
     31          7           0       -1.466279    2.381102   -0.714251
     32          7           0       -0.077653   -0.208632    0.361268
     33          7           0       -0.619117   -0.113339    1.526922
     34          7           0       -1.678544    0.217934    1.890632
     35          6           0        1.252018   -0.577857    0.285237
     36          6           0        2.155000   -0.775737    1.333287
     37          6           0        1.768499   -0.736495   -1.005187
     38          6           0        3.475666   -1.120086    1.103763
     39          6           0        3.083310   -1.074620   -1.245339
     40          6           0        3.950232   -1.272090   -0.184942
     41          9           0        1.764480   -0.626393    2.602713
     42          9           0        4.298585   -1.299269    2.135081
     43          9           0        5.222745   -1.600041   -0.404311
     44          9           0        3.520923   -1.209681   -2.496069
     45          9           0        0.958247   -0.542209   -2.056461
 ---------------------------------------------------------------------

 SCF Done:  E(RHF) =  -1450.53703324     A.U. after    2 cycles

 The electronic state is 1-A.
 Alpha  occ. eigenvalues --  -29.31617 -29.31348 -29.31244 -29.31053 -29.30522
 Alpha  occ. eigenvalues --  -15.87939 -15.84535 -15.77445 -15.75818 -11.60762
 Alpha  occ. eigenvalues --  -11.54524 -11.54094 -11.53182 -11.51701 -11.51191
 Alpha  occ. eigenvalues --  -11.50555 -11.48423 -11.46102 -11.45132 -11.44834
 Alpha  occ. eigenvalues --  -11.44412 -11.42927 -11.41907 -11.40270 -11.40261
 Alpha  occ. eigenvalues --  -11.40192 -11.37270 -11.35946  -1.65034  -1.51426
 Alpha  occ. eigenvalues --   -1.47973  -1.35566  -1.34379  -1.27871  -1.25573
 Alpha  occ. eigenvalues --   -1.20886  -1.16543  -1.15534  -1.08735  -1.08068
 Alpha  occ. eigenvalues --   -1.06476  -1.04054  -0.96962  -0.93617  -0.90244
 Alpha  occ. eigenvalues --   -0.88924  -0.87501  -0.85752  -0.82867  -0.79363
 Alpha  occ. eigenvalues --   -0.78933  -0.74963  -0.74267  -0.72708  -0.71326
 Alpha  occ. eigenvalues --   -0.70634  -0.67877  -0.67343  -0.65423  -0.64705
 Alpha  occ. eigenvalues --   -0.64077  -0.63645  -0.63307  -0.62936  -0.60642
 Alpha  occ. eigenvalues --   -0.58908  -0.58037  -0.57474  -0.57041  -0.55470
 Alpha  occ. eigenvalues --   -0.54523  -0.53604  -0.52588  -0.51816  -0.50616
 Alpha  occ. eigenvalues --   -0.50043  -0.49455  -0.46672  -0.44655  -0.43892
 Alpha  occ. eigenvalues --   -0.43655  -0.43440  -0.43265  -0.42525  -0.41951
 Alpha  occ. eigenvalues --   -0.41589  -0.41093  -0.39800  -0.38909  -0.38733
 Alpha  occ. eigenvalues --   -0.36307  -0.34705  -0.32575  -0.30527  -0.30380
 Alpha  occ. eigenvalues --   -0.29923  -0.29290  -0.27672  -0.26611  -0.23515
 Alpha  occ. eigenvalues --   -0.19348  -0.18181
 Alpha virt. eigenvalues --    0.03446   0.04101   0.04427   0.04478   0.04788
 Alpha virt. eigenvalues --    0.04949   0.05442   0.05627   0.05839   0.06620
 Alpha virt. eigenvalues --    0.07049   0.07532   0.08108   0.08192   0.08830

 Mulliken charges:
               1
     1  C   -1.345988
     2  C   -5.136260
     3  C    7.451303
     4  C    0.024008
     5  C   -3.742209
     6  C   -3.510368
     7  H    1.546750
     8  H    1.837557
     9  H    2.821120
    10  H    1.484689
    11  H    1.588264
    12  C   -3.813727
    13  H    1.850100
    14  C    0.111635
    15  H    2.441382
    16  C   -3.680334
    17  C   -4.143136
    18  C   -4.125830
    19  H    1.536070
    20  H    1.883910
    21  C   -3.530427
    22  H    1.530918
    23  H    2.115709
    24  C   -2.820750
    25  H    1.494033
    26  H    2.524886
    27  H    1.419511
    28  H    1.839443
    29  H    1.497000
    30  H    1.359389
    31  N   -3.073213
    32  N   -2.517012
    33  N    1.389059
    34  N   -1.029993
    35  C   -6.378852
    36  C    2.859253
    37  C    1.257071
    38  C   -1.377652
    39  C   -0.327001
    40  C    2.365234
    41  F    0.743586
    42  F    1.012027
    43  F    1.004057
    44  F    0.992751
    45  F    0.572040
 Sum of Mulliken charges =   0.00000

 Dipole moment (field-independent basis, Debye):
    X=              1.8639    Y=              3.6724    Z=             -1.7508  Tot=              4.4751

 Test job not archived.
 1\1\GINC-SE364\SP\RHF\Aug-CC-pVDZ\C19H17F5N4\OHZDE\09-Apr-2025\0\\#t h
 f aug-cc-pvdz iop(5/13=1,5/36=2,99/5=2) pseudo=read geom=check guess=(
 read,tcheck) scf=(maxcycle=1)\\title\\0,1\C,0,-5.386186,-2.165413,0.33
 1917\C,0,-4.75803,-0.943563,0.517684\C,0,-3.485932,-0.700217,-0.003443
 \C,0,-2.850809,-1.73128,-0.702892\C,0,-3.482552,-2.949558,-0.893713\C,
 0,-4.753211,-3.174631,-0.379612\H,0,-6.374621,-2.328789,0.744669\H,0,-
 5.260926,-0.160371,1.074113\H,0,-1.844583,-1.588886,-1.075864\H,0,-2.9
 72339,-3.734917,-1.438862\H,0,-5.241214,-4.130361,-0.526079\C,0,-2.853

 Normal termination of Gaussian 16 at Wed Apr  9 02:57:13 2025.
