 Gaussian 16, Revision C.01,

 ----------------------------------------------------------------------
 #t hf aug-cc-pvdz symm=none int=(grid=ultrafine) guess=(read,tcheck) s
 table=opt
 ----------------------------------------------------------------------
 -----
 title
 -----
 Symbolic Z-matrix:
 Charge =  0 Multiplicity = 2

 SCF Done:  E(UHF) =  -592.115995322     A.U. after   44 cycles
 Normal termination of Gaussian 16 at Wed Apr  9 01:03:01 2025.
 Gaussian 16:  ES64L-G16RevC.01  3-Jul-2019

 ----------------------------------------------------------------------
 #t hf aug-cc-pvdz iop(5/13=1,5/36=2,99/5=2) pseudo=read geom=check gue
 ss=(read,tcheck) scf=(maxcycle=1)
 ----------------------------------------------------------------------
 -----
 title
 -----
 Structure from the checkpoint file:  "BH10_186_forward_mol3.chk"
 Charge =  0 Multiplicity = 2

                         Standard orientation:
 ---------------------------------------------------------------------
 Center     Atomic      Atomic             Coordinates (Angstroms)
 Number     Number       Type             X           Y           Z
 ---------------------------------------------------------------------
      1          6           0       -0.423469   -1.198801   -0.186411
      2          6           0        0.397486   -0.055815    0.410279
      3         16           0        2.134537   -0.003838   -0.058105
      4          6           0       -1.869669   -0.748185    0.053866
      5          6           0       -1.838188    0.796647   -0.048272
      6          6           0       -0.346382    1.196461   -0.097992
      7          1           0       -0.192818   -2.166919    0.260508
      8          1           0       -0.207494   -1.265486   -1.256203
      9          1           0        0.335489   -0.080591    1.501719
     10          1           0       -2.193063   -1.053234    1.051727
     11          1           0       -2.562875   -1.200516   -0.656338
     12          1           0       -2.333030    1.252015    0.810865
     13          1           0       -2.358848    1.152841   -0.938053
     14          1           0       -0.116599    2.081763    0.494571
     15          1           0       -0.042027    1.399683   -1.127941
 ---------------------------------------------------------------------

 SCF Done:  E(UHF) =  -593.305691185     A.U. after    2 cycles

 The electronic state is 2-A.
 Alpha  occ. eigenvalues --  -75.69590 -13.13530 -13.06425 -13.03005 -11.47180
 Alpha  occ. eigenvalues --  -11.43728 -11.38628 -11.38197 -11.34697  -8.03237
 Alpha  occ. eigenvalues --   -1.35369  -1.13587  -1.05047  -0.98412  -0.82627
 Alpha  occ. eigenvalues --   -0.81060  -0.68003  -0.63689  -0.58862  -0.58316
 Alpha  occ. eigenvalues --   -0.47715  -0.46978  -0.46717  -0.45061  -0.44693
 Alpha  occ. eigenvalues --   -0.38209  -0.27954  -0.23684
 Alpha virt. eigenvalues --    0.03673   0.05577   0.05731   0.05782   0.05882
 Alpha virt. eigenvalues --    0.06029   0.06059   0.06567   0.07085   0.09340
 Alpha virt. eigenvalues --    0.12140   0.13768   0.13880   0.14171   0.14779

  Beta  occ. eigenvalues --  -75.68613 -13.12877 -13.02970 -13.00052 -11.47136
  Beta  occ. eigenvalues --  -11.43789 -11.38608 -11.38161 -11.34676  -8.02144
  Beta  occ. eigenvalues --   -1.34748  -1.09918  -1.04846  -0.94033  -0.82430
  Beta  occ. eigenvalues --   -0.80016  -0.67876  -0.63243  -0.58791  -0.57821
  Beta  occ. eigenvalues --   -0.47312  -0.46869  -0.45528  -0.44954  -0.44628
  Beta  occ. eigenvalues --   -0.37405  -0.22165
  Beta virt. eigenvalues --    0.03625   0.03813   0.05685   0.05788   0.05881
  Beta virt. eigenvalues --    0.05973   0.06080   0.06608   0.07023   0.08051
  Beta virt. eigenvalues --    0.09499   0.12231   0.13902   0.14033   0.14374

 Mulliken charges and spin densities:
               1          2
     1  C   -2.851032   0.030311
     2  C   -1.917116  -0.153334
     3  S    0.439317   1.129013
     4  C   -2.604588  -0.004519
     5  C   -2.565015   0.034508
     6  C   -2.783750   0.008527
     7  H    1.303059  -0.000369
     8  H    1.450536  -0.020606
     9  H    1.484825  -0.004418
    10  H    1.308298   0.000901
    11  H    1.337841   0.001029
    12  H    1.334405   0.003054
    13  H    1.357645  -0.002670
    14  H    1.304788  -0.014851
    15  H    1.400788  -0.006577
 Sum of Mulliken charges =  -0.00000   1.00000

 Dipole moment (field-independent basis, Debye):
    X=             -0.6541    Y=              0.0683    Z=              0.0717  Tot=              0.6616
                          Isotropic Fermi Contact Couplings
        Atom                 a.u.       MegaHertz       Gauss      10(-4) cm-1
     1  C(13)              0.00389       4.36876       1.55888       1.45726
     2  C(13)             -0.01790     -20.12043      -7.17947      -6.71145
     3  S(33)              0.25887      88.91470      31.72698      29.65875
     4  C(13)             -0.00156      -1.75409      -0.62590      -0.58510
     5  C(13)              0.00282       3.17353       1.13239       1.05858
     6  C(13)              0.03317      37.28893      13.30562      12.43825
     7  H(1)              -0.00035      -1.56528      -0.55853      -0.52212
     8  H(1)              -0.00023      -1.02263      -0.36490      -0.34111

 Normal termination of Gaussian 16 at Wed Apr  9 01:03:07 2025.
