 Gaussian 16, Revision C.01,

 ----------------------------------------------------------------------
 #t hf aug-cc-pvdz symm=none int=(grid=ultrafine) guess=(read,tcheck) s
 table=(opt,rrhf)
 ----------------------------------------------------------------------
 -----
 title
 -----
 Symbolic Z-matrix:
 Charge = -1 Multiplicity = 1

 SCF Done:  E(RHF) =  -718.908499154     A.U. after   14 cycles
 Normal termination of Gaussian 16 at Wed Apr  9 01:39:30 2025.
 Gaussian 16:  ES64L-G16RevC.01  3-Jul-2019

 ----------------------------------------------------------------------
 #t hf aug-cc-pvdz iop(5/13=1,5/36=2,99/5=2) pseudo=read geom=check gue
 ss=(read,tcheck) scf=(maxcycle=1)
 ----------------------------------------------------------------------
 -----
 title
 -----
 Structure from the checkpoint file:  "BH10_324_forward_mol3.chk"
 Charge = -1 Multiplicity = 1

                         Standard orientation:
 ---------------------------------------------------------------------
 Center     Atomic      Atomic             Coordinates (Angstroms)
 Number     Number       Type             X           Y           Z
 ---------------------------------------------------------------------
      1         16           0       -2.227134   -0.126972   -0.065207
      2          6           0       -0.832148    0.973776    0.373378
      3          6           0        0.474251    0.655326   -0.361640
      4          1           0       -0.640072    0.932624    1.453457
      5          1           0       -1.085191    2.007923    0.129850
      6          7           0        1.460197    1.716279   -0.148817
      7          6           0        1.056826   -0.726233   -0.018130
      8          1           0        0.232355    0.608250   -1.429718
      9          8           0        2.249117   -0.880048    0.163700
     10          8           0        0.213959   -1.733924    0.016427
     11          1           0       -0.756292   -1.384585   -0.059605
     12          1           0        2.385084    1.300870   -0.219243
     13          1           0        1.378691    2.047081    0.807622
 ---------------------------------------------------------------------

 SCF Done:  E(RHF) =  -720.574106650     A.U. after    2 cycles

 The electronic state is 1-A.
 Alpha  occ. eigenvalues --  -75.44405 -20.93410 -20.89306 -15.60045 -12.86705
 Alpha  occ. eigenvalues --  -12.82412 -12.77425 -11.36988 -11.29642 -11.23529
 Alpha  occ. eigenvalues --   -7.78092  -1.66402  -1.49435  -1.21745  -0.99132
 Alpha  occ. eigenvalues --   -0.84319  -0.72163  -0.62127  -0.55310  -0.51289
 Alpha  occ. eigenvalues --   -0.45486  -0.42376  -0.40261  -0.35287  -0.34080
 Alpha  occ. eigenvalues --   -0.31778  -0.23527  -0.21624  -0.17611  -0.14935
 Alpha  occ. eigenvalues --   -0.04125  -0.03995
 Alpha virt. eigenvalues --    0.13981   0.15162   0.15517   0.15807   0.17054
 Alpha virt. eigenvalues --    0.17573   0.19980   0.21582   0.22607   0.24618
 Alpha virt. eigenvalues --    0.25408   0.26077   0.27328   0.27658   0.28582

 Mulliken charges:
               1
     1  S   -0.679556
     2  C   -3.665484
     3  C    0.236122
     4  H    1.314702
     5  H    1.332963
     6  N   -2.861511
     7  C    5.477336
     8  H    1.543126
     9  O   -3.111979
    10  O   -3.358635
    11  H    1.648414
    12  H    0.624940
    13  H    0.499561
 Sum of Mulliken charges =  -1.00000

 Dipole moment (field-independent basis, Debye):
    X=              3.5885    Y=              0.5159    Z=              0.5296  Tot=              3.6639

 Test job not archived.
 1\1\GINC-SE094\SP\RHF\Aug-CC-pVDZ\C3H6N1O2S1(1-)\OHZDE\09-Apr-2025\0\\
 #t hf aug-cc-pvdz iop(5/13=1,5/36=2,99/5=2) pseudo=read geom=check gue
 ss=(read,tcheck) scf=(maxcycle=1)\\title\\-1,1\S,0,-2.227134,-0.126972
 ,-0.065207\C,0,-0.832148,0.973776,0.373378\C,0,0.474251,0.655326,-0.36
 164\H,0,-0.640072,0.932624,1.453457\H,0,-1.085192,2.007923,0.12985\N,0
 ,1.460197,1.716279,-0.148817\C,0,1.056826,-0.726233,-0.01813\H,0,0.232
 355,0.60825,-1.429718\O,0,2.249117,-0.880048,0.1637\O,0,0.213959,-1.73
 3924,0.016427\H,0,-0.756292,-1.384585,-0.059605\H,0,2.385084,1.30087,-

 Normal termination of Gaussian 16 at Wed Apr  9 01:39:35 2025.
