 Gaussian 16, Revision C.01,

 ----------------------------------------------------------------------
 #t hf aug-cc-pvdz symm=none int=(grid=ultrafine) guess=(read,tcheck) s
 table=opt
 ----------------------------------------------------------------------
 -----
 title
 -----
 Symbolic Z-matrix:
 Charge =  0 Multiplicity = 2

 SCF Done:  E(UHF) =  -1668.49707231     A.U. after   18 cycles
 Normal termination of Gaussian 16 at Wed Apr  9 02:55:05 2025.
 Gaussian 16:  ES64L-G16RevC.01  3-Jul-2019

 ----------------------------------------------------------------------
 #t hf aug-cc-pvdz iop(5/13=1,5/36=2,99/5=2) pseudo=read geom=check gue
 ss=(read,tcheck) scf=(maxcycle=1)
 ----------------------------------------------------------------------
 -----
 title
 -----
 Structure from the checkpoint file:  "BH10_294_reverse_mol2.chk"
 Charge =  0 Multiplicity = 2

                         Standard orientation:
 ---------------------------------------------------------------------
 Center     Atomic      Atomic             Coordinates (Angstroms)
 Number     Number       Type             X           Y           Z
 ---------------------------------------------------------------------
      1          6           0        0.713425    0.444763    2.026963
      2          6           0        2.080061    1.011940    1.920959
      3         14           0       -0.008486    0.021895    0.272146
      4         14           0       -1.899178   -1.373521    0.462253
      5         14           0        1.581859   -1.112906   -1.037134
      6         14           0       -0.644776    1.991487   -0.848413
      7          6           0       -3.077519   -0.812502    1.823840
      8          1           0       -3.971409   -1.443316    1.824982
      9          1           0       -2.619530   -0.889748    2.812416
     10          1           0       -3.400142    0.221425    1.683557
     11          6           0       -2.855937   -1.381308   -1.163670
     12          1           0       -3.693930   -2.082061   -1.106293
     13          1           0       -3.266792   -0.395086   -1.390998
     14          1           0       -2.228263   -1.681770   -2.004698
     15          6           0       -1.371685   -3.142829    0.851418
     16          1           0       -2.247846   -3.780706    0.999536
     17          1           0       -0.781521   -3.574619    0.040266
     18          1           0       -0.768947   -3.191214    1.761723
     19          6           0        0.740983   -1.892168   -2.535908
     20          1           0        0.206287   -1.154084   -3.136642
     21          1           0        1.487480   -2.366655   -3.179519
     22          1           0        0.026077   -2.662961   -2.239678
     23          6           0        2.907506    0.072667   -1.665203
     24          1           0        3.400636    0.598839   -0.845815
     25          1           0        3.673649   -0.467329   -2.229056
     26          1           0        2.478349    0.826430   -2.329604
     27          6           0        2.401632   -2.503292   -0.062630
     28          1           0        2.940293   -2.131529    0.809615
     29          1           0        1.663249   -3.228125    0.286669
     30          1           0        3.118149   -3.036656   -0.694313
     31          6           0        0.646420    3.351123   -0.648887
     32          1           0        1.631048    3.019849   -0.985826
     33          1           0        0.367066    4.228213   -1.240038
     34          1           0        0.741121    3.670533    0.391078
     35          6           0       -0.840124    1.638109   -2.691069
     36          1           0       -1.198474    2.532063   -3.209671
     37          1           0        0.108418    1.349748   -3.149176
     38          1           0       -1.557849    0.836565   -2.877259
     39          6           0       -2.296692    2.638156   -0.205234
     40          1           0       -2.582022    3.550998   -0.736254
     41          1           0       -3.096177    1.908168   -0.351186
     42          1           0       -2.253178    2.872451    0.860340
     43          6           0       -0.231258    1.384300    2.796879
     44          1           0       -1.253938    1.006123    2.828245
     45          1           0        0.113868    1.519172    3.825346
     46          1           0       -0.258262    2.372564    2.332304
     47          6           0        3.325259    0.268930    2.254853
     48          1           0        3.108222   -0.646720    2.810244
     49          1           0        3.904208   -0.020036    1.366814
     50          1           0        3.999306    0.878722    2.866272
     51          1           0        0.769629   -0.510645    2.561379
     52          1           0        2.176919    2.026683    1.547441
 ---------------------------------------------------------------------

 SCF Done:  E(UHF) =  -1671.85315128     A.U. after    2 cycles

 The electronic state is 2-A.
 Alpha  occ. eigenvalues --  -76.17918 -76.17895 -76.17789 -76.16517 -11.43753
 Alpha  occ. eigenvalues --  -11.39911 -11.38083 -11.35497 -11.35223 -11.35033
 Alpha  occ. eigenvalues --  -11.34917 -11.34573 -11.34513 -11.34433 -11.34401
 Alpha  occ. eigenvalues --  -11.34358 -11.34352  -5.51955  -5.51920  -5.51825
 Alpha  occ. eigenvalues --   -5.50586  -2.16028  -2.15969  -2.15903  -2.15813
 Alpha  occ. eigenvalues --   -2.15757  -2.15687  -2.15673  -2.15637  -2.15445
 Alpha  occ. eigenvalues --   -2.13882  -2.12844  -2.12742  -1.23455  -1.07791
 Alpha  occ. eigenvalues --   -1.07148  -1.06866  -1.06585  -1.00672  -1.00515
 Alpha  occ. eigenvalues --   -1.00420  -1.00344  -1.00209  -1.00015  -0.92202
 Alpha  occ. eigenvalues --   -0.81352  -0.74024  -0.64520  -0.64378  -0.62000
 Alpha  occ. eigenvalues --   -0.59795  -0.59338  -0.58098  -0.57282  -0.57122
 Alpha  occ. eigenvalues --   -0.57044  -0.56337  -0.56066  -0.55712  -0.55619
 Alpha  occ. eigenvalues --   -0.55429  -0.55009  -0.54429  -0.54031  -0.53818
 Alpha  occ. eigenvalues --   -0.53658  -0.53442  -0.53363  -0.52807  -0.52563
 Alpha  occ. eigenvalues --   -0.52506  -0.52049  -0.50659  -0.46728  -0.46202
 Alpha  occ. eigenvalues --   -0.40327  -0.39221  -0.39119  -0.38521  -0.38376
 Alpha  occ. eigenvalues --   -0.38225  -0.36939  -0.28606  -0.28233  -0.24477
 Alpha virt. eigenvalues --    0.03710   0.04692   0.04735   0.05012   0.05061
 Alpha virt. eigenvalues --    0.05114   0.05313   0.05532   0.05709   0.05717
 Alpha virt. eigenvalues --    0.05912   0.06017   0.06351   0.06389   0.06511

  Beta  occ. eigenvalues --  -76.17905 -76.17896 -76.17791 -76.16451 -11.43134
  Beta  occ. eigenvalues --  -11.39759 -11.37845 -11.35472 -11.35138 -11.34996
  Beta  occ. eigenvalues --  -11.34578 -11.34560 -11.34497 -11.34429 -11.34372
  Beta  occ. eigenvalues --  -11.34357 -11.34098  -5.51940  -5.51917  -5.51827
  Beta  occ. eigenvalues --   -5.50478  -2.15987  -2.15942  -2.15883  -2.15807
  Beta  occ. eigenvalues --   -2.15750  -2.15657  -2.15649  -2.15614  -2.15260
  Beta  occ. eigenvalues --   -2.13760  -2.12792  -2.12681  -1.20699  -1.07133
  Beta  occ. eigenvalues --   -1.06917  -1.06855  -1.06293  -1.00655  -1.00514
  Beta  occ. eigenvalues --   -1.00420  -1.00344  -1.00202  -1.00010  -0.90997
  Beta  occ. eigenvalues --   -0.77943  -0.73450  -0.64482  -0.64320  -0.61109
  Beta  occ. eigenvalues --   -0.59345  -0.58292  -0.57397  -0.57179  -0.57044
  Beta  occ. eigenvalues --   -0.56655  -0.56133  -0.56043  -0.55684  -0.55559
  Beta  occ. eigenvalues --   -0.55351  -0.54531  -0.54082  -0.53997  -0.53726
  Beta  occ. eigenvalues --   -0.53621  -0.53340  -0.53116  -0.52765  -0.52505
  Beta  occ. eigenvalues --   -0.52398  -0.51884  -0.50368  -0.46166  -0.45015
  Beta  occ. eigenvalues --   -0.39862  -0.39204  -0.39100  -0.38489  -0.38352
  Beta  occ. eigenvalues --   -0.38222  -0.34107  -0.28186  -0.28061
  Beta virt. eigenvalues --    0.03724   0.04692   0.04717   0.05014   0.05063
  Beta virt. eigenvalues --    0.05073   0.05318   0.05463   0.05708   0.05721
  Beta virt. eigenvalues --    0.05886   0.05957   0.06353   0.06395   0.06511

 Mulliken charges and spin densities:
               1          2
     1  C   -2.212571  -0.686454
     2  C   -1.141661   2.050988
     3  Si   4.733254  -0.156942
     4  Si   9.852322   0.098684
     5  Si   9.545915  -0.068632
     6  Si  10.631478   0.014539
     7  C   -6.959643  -0.007923
     8  H    0.959354   0.001164
     9  H    1.121707   0.001410
    10  H    1.322432  -0.000022
    11  C   -6.921203   0.004336
    12  H    0.936827   0.004509
    13  H    1.185318  -0.002719
    14  H    1.514420  -0.003526
    15  C   -6.924983  -0.005353
    16  H    1.072165   0.002363
    17  H    1.191498  -0.001223
    18  H    1.220234  -0.000793
    19  C   -6.981517   0.003522
    20  H    1.471060   0.004423
    21  H    0.915331  -0.000881
    22  H    1.159061   0.004138
    23  C   -6.949362   0.013396
    24  H    1.430502  -0.001345
    25  H    0.989741  -0.002457
    26  H    1.177848   0.004459
    27  C   -6.992805   0.008007
    28  H    1.386753   0.004221
    29  H    1.248868   0.000324
    30  H    0.864148  -0.001057
    31  C   -7.122158   0.013676
    32  H    1.265155   0.004991
    33  H    0.991418   0.002058
    34  H    1.282415  -0.001246
    35  C   -7.087959  -0.004921
    36  H    0.865096  -0.001596
    37  H    1.164537  -0.000633
    38  H    1.449972  -0.000674
    39  C   -6.904168  -0.002367
    40  H    1.052724  -0.000164
    41  H    1.112827   0.000583
    42  H    1.248651  -0.001595
    43  C   -5.969950   0.116745
    44  H    1.613278   0.009672
    45  H    1.270994   0.007205
    46  H    1.408680  -0.000742
    47  C   -5.925372  -0.429287
    48  H    1.610707   0.003639
    49  H    1.557980   0.041785
    50  H    1.134790   0.019074
    51  H    1.401559  -0.016569
    52  H    1.732333  -0.040789
 Sum of Mulliken charges =   0.00000   1.00000

 Dipole moment (field-independent basis, Debye):
    X=              0.2177    Y=             -0.0214    Z=              0.4712  Tot=              0.5196
                          Isotropic Fermi Contact Couplings
        Atom                 a.u.       MegaHertz       Gauss      10(-4) cm-1
     1  C(13)             -0.03945     -44.34463     -15.82327     -14.79178
     2  C(13)              0.14196     159.58972      56.94558      53.23340
     3  Si(29)             0.07663     -68.10099     -24.30013     -22.71604
     4  Si(29)             0.01550     -13.77844      -4.91649      -4.59599
     5  Si(29)            -0.00150       1.33078       0.47486       0.44390
     6  Si(29)            -0.00178       1.57867       0.56331       0.52659
     7  C(13)             -0.00057      -0.63624      -0.22703      -0.21223
     8  H(1)              -0.00003      -0.14650      -0.05228      -0.04887

 Normal termination of Gaussian 16 at Wed Apr  9 02:57:48 2025.
