 Gaussian 16, Revision C.01,

 ----------------------------------------------------------------------
 #t hf aug-cc-pvdz symm=none int=(grid=ultrafine) guess=(read,tcheck) s
 table=opt
 ----------------------------------------------------------------------
 -----
 title
 -----
 Symbolic Z-matrix:
 Charge =  0 Multiplicity = 2

 SCF Done:  E(UHF) =  -692.537992043     A.U. after   17 cycles
 Normal termination of Gaussian 16 at Wed Apr  9 01:25:34 2025.
 Gaussian 16:  ES64L-G16RevC.01  3-Jul-2019

 ----------------------------------------------------------------------
 #t hf aug-cc-pvdz iop(5/13=1,5/36=2,99/5=2) pseudo=read geom=check gue
 ss=(read,tcheck) scf=(maxcycle=1)
 ----------------------------------------------------------------------
 -----
 title
 -----
 Structure from the checkpoint file:  "BH10_305_forward_mol3.chk"
 Charge =  0 Multiplicity = 2

                         Standard orientation:
 ---------------------------------------------------------------------
 Center     Atomic      Atomic             Coordinates (Angstroms)
 Number     Number       Type             X           Y           Z
 ---------------------------------------------------------------------
      1          6           0       -0.286274    0.569342   -0.000000
      2          6           0        0.181787   -0.000269    1.294031
      3         17           0       -0.694142    2.260509   -0.000000
      4          6           0        0.181787   -0.000269   -1.294031
      5          6           0        0.181787   -1.532300    1.257445
      6          6           0        0.866284   -2.062940    0.000000
      7          6           0        0.181787   -1.532300   -1.257445
      8          1           0       -0.435915    0.370445    2.114844
      9          1           0        1.206143    0.356101    1.494573
     10          1           0        1.206143    0.356101   -1.494573
     11          1           0       -0.435915    0.370445   -2.114844
     12          1           0       -0.852101   -1.891594    1.281347
     13          1           0        0.672418   -1.916472    2.154868
     14          1           0        0.856738   -3.155703    0.000000
     15          1           0        1.919645   -1.757498    0.000000
     16          1           0       -0.852101   -1.891594   -1.281347
     17          1           0        0.672418   -1.916472   -2.154868
 ---------------------------------------------------------------------

 SCF Done:  E(UHF) =  -693.956402367     A.U. after    2 cycles

 The electronic state is 2-A'.
 Alpha  occ. eigenvalues --  -99.88108 -11.44968 -11.44011 -11.42850 -11.38880
 Alpha  occ. eigenvalues --  -11.38399 -11.35003 -10.45520  -9.65394  -9.64644
 Alpha  occ. eigenvalues --   -9.64640  -1.38909  -1.26614  -1.12081  -1.08705
 Alpha  occ. eigenvalues --   -0.90493  -0.87605  -0.77587  -0.68256  -0.64121
 Alpha  occ. eigenvalues --   -0.62846  -0.61426  -0.56433  -0.55379  -0.54019
 Alpha  occ. eigenvalues --   -0.52619  -0.48305  -0.45867  -0.45847  -0.41874
 Alpha  occ. eigenvalues --   -0.40787  -0.31712
 Alpha virt. eigenvalues --    0.03884   0.05368   0.05385   0.05491   0.05749
 Alpha virt. eigenvalues --    0.06008   0.06114   0.07010   0.07049   0.08639
 Alpha virt. eigenvalues --    0.09210   0.11471   0.12734   0.13347   0.13938

  Beta  occ. eigenvalues --  -99.88091 -11.44136 -11.43274 -11.42853 -11.38490
  Beta  occ. eigenvalues --  -11.38341 -11.34919 -10.45501  -9.65643  -9.64633
  Beta  occ. eigenvalues --   -9.64322  -1.36902  -1.26458  -1.11994  -1.06654
  Beta  occ. eigenvalues --   -0.90278  -0.85429  -0.74825  -0.67695  -0.62830
  Beta  occ. eigenvalues --   -0.62083  -0.58027  -0.56081  -0.54367  -0.53904
  Beta  occ. eigenvalues --   -0.50821  -0.47668  -0.45674  -0.45552  -0.41807
  Beta  occ. eigenvalues --   -0.40285
  Beta virt. eigenvalues --    0.03346   0.05294   0.05389   0.05472   0.05765
  Beta virt. eigenvalues --    0.06012   0.06120   0.06962   0.07109   0.08651
  Beta virt. eigenvalues --    0.09183   0.09621   0.12029   0.13113   0.13422

 Mulliken charges and spin densities:
               1          2
     1  C    0.202654   1.716359
     2  C   -2.913898  -0.348565
     3  Cl  -0.331479  -0.033829
     4  C   -2.913898  -0.348565
     5  C   -2.731151   0.013487
     6  C   -2.636598  -0.053708
     7  C   -2.731151   0.013487
     8  H    1.587070   0.008722
     9  H    1.354726   0.015557
    10  H    1.354726   0.015557
    11  H    1.587070   0.008722
    12  H    1.415235  -0.003329
    13  H    1.313468   0.000246
    14  H    1.276040  -0.000592
    15  H    1.438480  -0.000464
    16  H    1.415235  -0.003329
    17  H    1.313468   0.000246
 Sum of Mulliken charges =  -0.00000   1.00000

 Dipole moment (field-independent basis, Debye):
    X=              0.9095    Y=             -2.4884    Z=              0.0000  Tot=              2.6494
                          Isotropic Fermi Contact Couplings
        Atom                 a.u.       MegaHertz       Gauss      10(-4) cm-1
     1  C(13)              0.19655     220.96490      78.84577      73.70596
     2  C(13)             -0.02456     -27.61110      -9.85233      -9.21007
     3  Cl(35)             0.03282      14.39058       5.13492       4.80018
     4  C(13)             -0.02456     -27.61110      -9.85233      -9.21007
     5  C(13)              0.00829       9.31518       3.32389       3.10721
     6  C(13)             -0.00205      -2.30121      -0.82113      -0.76760
     7  C(13)              0.00829       9.31518       3.32389       3.10721
     8  H(1)               0.00566      25.28286       9.02155       8.43346

 Normal termination of Gaussian 16 at Wed Apr  9 01:25:39 2025.
