 Gaussian 16, Revision C.01,

 ----------------------------------------------------------------------
 #t hf aug-cc-pvdz symm=none int=(grid=ultrafine) guess=(read,tcheck) s
 table=(opt,rrhf)
 ----------------------------------------------------------------------
 -----
 title
 -----
 Symbolic Z-matrix:
 Charge =  0 Multiplicity = 1

 SCF Done:  E(RHF) =  -446.718648491     A.U. after   15 cycles

 1\1\GINC-SE341\Stability\RHF\Aug-CC-pVDZ\C9H11F1\OHZDE\09-Apr-2025\0\\
 #t hf aug-cc-pvdz symm=none int=(grid=ultrafine) guess=(read,tcheck) s
 table=(opt,rrhf)\\title\\0,1\C,0,1.447175,0.014538,0.000006\C,0,2.0168
 82,-0.604722,-1.264622\C,0,-0.069548,0.009376,-0.000003\C,0,2.016863,-
 0.604513,1.264745\H,0,1.635729,-0.080292,-2.141318\H,0,1.7329,-1.65515
 4,-1.340784\H,0,3.105767,-0.535973,-1.25389\C,0,-0.761757,-1.200213,0.
 000081\C,0,-0.791163,1.196845,-0.000092\H,0,1.732877,-1.654932,1.34107
 7\H,0,1.6357,-0.079937,2.141348\H,0,3.105749,-0.535769,1.254017\C,0,-2

 Normal termination of Gaussian 16 at Wed Apr  9 00:57:47 2025.
 Gaussian 16:  ES64L-G16RevC.01  3-Jul-2019

 ----------------------------------------------------------------------
 #t hf aug-cc-pvdz iop(5/13=1,5/36=2,99/5=2) pseudo=read geom=check gue
 ss=(read,tcheck) scf=(maxcycle=1)
 ----------------------------------------------------------------------
 -----
 title
 -----
 Structure from the checkpoint file:  "BH10_105_forward_mol2.chk"
 Charge =  0 Multiplicity = 1

                         Standard orientation:
 ---------------------------------------------------------------------
 Center     Atomic      Atomic             Coordinates (Angstroms)
 Number     Number       Type             X           Y           Z
 ---------------------------------------------------------------------
      1          6           0        1.447175    0.014538    0.000006
      2          6           0        2.016882   -0.604722   -1.264622
      3          6           0       -0.069548    0.009376   -0.000003
      4          6           0        2.016863   -0.604513    1.264745
      5          1           0        1.635729   -0.080292   -2.141318
      6          1           0        1.732900   -1.655154   -1.340784
      7          1           0        3.105767   -0.535973   -1.253890
      8          6           0       -0.761757   -1.200213    0.000081
      9          6           0       -0.791163    1.196845   -0.000092
     10          1           0        1.732877   -1.654932    1.341077
     11          1           0        1.635700   -0.079937    2.141348
     12          1           0        3.105749   -0.535769    1.254017
     13          6           0       -2.180418    1.174780   -0.000096
     14          6           0       -2.863362   -0.031612   -0.000012
     15          6           0       -2.147717   -1.221838    0.000077
     16          1           0       -0.218686   -2.138372    0.000152
     17          1           0       -2.670343   -2.170867    0.000143
     18          1           0       -0.260186    2.138503   -0.000158
     19          1           0       -2.729407    2.108912   -0.000166
     20          1           0       -3.946461   -0.046842   -0.000015
     21          9           0        1.874959    1.361653   -0.000102
 ---------------------------------------------------------------------

 SCF Done:  E(RHF) =  -448.779331750     A.U. after    2 cycles

 The electronic state is 1-A.
 Alpha  occ. eigenvalues --  -29.23592 -11.52221 -11.49607 -11.43313 -11.43289
 Alpha  occ. eigenvalues --  -11.40757 -11.40524 -11.40081 -11.39212 -11.36027
 Alpha  occ. eigenvalues --   -1.38453  -1.26108  -1.09485  -1.08219  -1.03187
 Alpha  occ. eigenvalues --   -0.92771  -0.86860  -0.83674  -0.72847  -0.68691
 Alpha  occ. eigenvalues --   -0.64828  -0.61836  -0.60879  -0.58131  -0.56469
 Alpha  occ. eigenvalues --   -0.55836  -0.52455  -0.51220  -0.51067  -0.47821
 Alpha  occ. eigenvalues --   -0.45119  -0.43019  -0.33886  -0.33096  -0.32536
 Alpha  occ. eigenvalues --   -0.24009  -0.23916
 Alpha virt. eigenvalues --    0.03500   0.04677   0.05158   0.05731   0.05838
 Alpha virt. eigenvalues --    0.06066   0.06626   0.06662   0.07574   0.08171
 Alpha virt. eigenvalues --    0.08434   0.10623   0.11828   0.11912   0.12352

 Mulliken charges:
               1
     1  C    1.953961
     2  C   -4.887475
     3  C    4.766709
     4  C   -4.887477
     5  H    1.178979
     6  H    1.225817
     7  H    1.188478
     8  C   -2.345062
     9  C   -3.492454
    10  H    1.225820
    11  H    1.178981
    12  H    1.188486
    13  C   -1.347467
    14  C   -3.213514
    15  C   -2.168886
    16  H    2.060789
    17  H    1.450315
    18  H    1.903868
    19  H    1.473483
    20  H    1.584817
    21  F   -0.038168
 Sum of Mulliken charges =   0.00000

 Dipole moment (field-independent basis, Debye):
    X=              0.2635    Y=              1.0078    Z=             -0.0001  Tot=              1.0416

 Test job not archived.
 1\1\GINC-SE341\SP\RHF\Aug-CC-pVDZ\C9H11F1\OHZDE\09-Apr-2025\0\\#t hf a
 ug-cc-pvdz iop(5/13=1,5/36=2,99/5=2) pseudo=read geom=check guess=(rea
 d,tcheck) scf=(maxcycle=1)\\title\\0,1\C,0,1.447175,0.014538,0.000006\
 C,0,2.016882,-0.604722,-1.264622\C,0,-0.069548,0.009376,-0.000003\C,0,
 2.016863,-0.604513,1.264745\H,0,1.635729,-0.080292,-2.141318\H,0,1.732
 9,-1.655154,-1.340784\H,0,3.105767,-0.535973,-1.25389\C,0,-0.761757,-1
 .200213,0.000081\C,0,-0.791163,1.196845,-0.000092\H,0,1.732877,-1.6549
 32,1.341077\H,0,1.6357,-0.079937,2.141348\H,0,3.105749,-0.535769,1.254

 Normal termination of Gaussian 16 at Wed Apr  9 00:57:59 2025.
