 Gaussian 16, Revision C.01,

 ----------------------------------------------------------------------
 #t hf aug-cc-pvdz symm=none int=(grid=ultrafine) guess=(read,tcheck) s
 table=(opt,rrhf)
 ----------------------------------------------------------------------
 -----
 title
 -----
 Symbolic Z-matrix:
 Charge = -1 Multiplicity = 1

 SCF Done:  E(RHF) =  -989.813102823     A.U. after   14 cycles
 Normal termination of Gaussian 16 at Wed Apr  9 01:10:13 2025.
 Gaussian 16:  ES64L-G16RevC.01  3-Jul-2019

 ----------------------------------------------------------------------
 #t hf aug-cc-pvdz iop(5/13=1,5/36=2,99/5=2) pseudo=read geom=check gue
 ss=(read,tcheck) scf=(maxcycle=1)
 ----------------------------------------------------------------------
 -----
 title
 -----
 Structure from the checkpoint file:  "BH10_247_reverse_mol3.chk"
 Charge = -1 Multiplicity = 1

                         Standard orientation:
 ---------------------------------------------------------------------
 Center     Atomic      Atomic             Coordinates (Angstroms)
 Number     Number       Type             X           Y           Z
 ---------------------------------------------------------------------
      1          6           0        6.187026    0.737423    0.686647
      2          6           0        5.064525    1.141310   -0.275210
      3          1           0        6.916776    1.543139    0.822383
      4          1           0        6.722525   -0.139572    0.310780
      5          1           0        5.775820    0.474973    1.664364
      6          6           0        4.067881    0.048355   -0.522059
      7          6           0        2.767270    0.115797   -0.187230
      8          6           0        1.757620   -0.883647   -0.381358
      9          6           0        0.461225   -0.676412    0.021876
     10          8           0       -0.041866    0.289406    0.643840
     11         16           0       -0.692926   -2.048891   -0.494993
     12          6           0       -2.023572   -1.873065    0.736258
     13          6           0       -3.178024   -0.971091    0.323409
     14          1           0       -1.572689   -1.507107    1.659889
     15          1           0       -2.403282   -2.879811    0.918275
     16          7           0       -2.728648    0.399316    0.226925
     17          1           0       -3.985115   -1.042773    1.062002
     18          1           0       -3.594590   -1.299309   -0.634148
     19          6           0       -3.557209    1.398791   -0.093540
     20          8           0       -4.762300    1.251257   -0.291975
     21          6           0       -2.906843    2.763319   -0.195077
     22          1           0       -3.083775    3.158871   -1.196583
     23          1           0       -1.834544    2.730712   -0.000982
     24          1           0       -3.388790    3.436076    0.516514
     25          1           0       -1.714421    0.551391    0.361688
     26          1           0        4.541316    2.015447    0.126496
     27          1           0        5.523140    1.467613   -1.219891
     28          1           0        2.017352   -1.825262   -0.849774
     29          1           0        4.450005   -0.856509   -0.995510
     30          1           0        2.411567    1.029179    0.288689
 ---------------------------------------------------------------------

 SCF Done:  E(RHF) =  -992.844918804     A.U. after    2 cycles

 The electronic state is 1-A.
 Alpha  occ. eigenvalues --  -75.53785 -20.88963 -20.85734 -15.61166 -12.99960
 Alpha  occ. eigenvalues --  -12.95581 -12.89297 -11.37534 -11.34340 -11.32643
 Alpha  occ. eigenvalues --  -11.31035 -11.29011 -11.27053 -11.26738 -11.26116
 Alpha  occ. eigenvalues --  -11.25191 -11.20621  -7.87895  -1.57197  -1.53299
 Alpha  occ. eigenvalues --   -1.27167  -1.12441  -1.08074  -1.00903  -0.97616
 Alpha  occ. eigenvalues --   -0.90905  -0.86027  -0.77698  -0.74109  -0.67300
 Alpha  occ. eigenvalues --   -0.64955  -0.57305  -0.54145  -0.52903  -0.51153
 Alpha  occ. eigenvalues --   -0.50617  -0.48746  -0.47593  -0.46429  -0.44761
 Alpha  occ. eigenvalues --   -0.41822  -0.40581  -0.39163  -0.38434  -0.37321
 Alpha  occ. eigenvalues --   -0.35941  -0.34593  -0.33930  -0.33638  -0.32822
 Alpha  occ. eigenvalues --   -0.27805  -0.25503  -0.23081  -0.17746  -0.16282
 Alpha  occ. eigenvalues --   -0.11249  -0.09366  -0.06405
 Alpha virt. eigenvalues --    0.11171   0.12077   0.12462   0.12874   0.13105
 Alpha virt. eigenvalues --    0.13324   0.13937   0.14045   0.14472   0.14619
 Alpha virt. eigenvalues --    0.14874   0.15851   0.16159   0.16890   0.18074

 Mulliken charges:
               1
     1  C   -3.918106
     2  C   -4.541999
     3  H    1.161987
     4  H    1.311076
     5  H    1.303567
     6  C   -1.369210
     7  C    3.086134
     8  C   -3.788807
     9  C    3.029051
    10  O   -4.427189
    11  S    0.329906
    12  C   -4.571842
    13  C   -2.501226
    14  H    1.575076
    15  H    1.377896
    16  N   -2.461250
    17  H    1.484948
    18  H    1.714960
    19  C    5.595412
    20  O   -3.506891
    21  C   -4.880949
    22  H    1.240182
    23  H    1.584535
    24  H    1.217443
    25  H    1.324028
    26  H    1.386665
    27  H    1.141649
    28  H    1.894080
    29  H    1.574430
    30  H    1.634442
 Sum of Mulliken charges =  -1.00000

 Dipole moment (field-independent basis, Debye):
    X=              0.0291    Y=              0.2524    Z=              0.4189  Tot=              0.4899

 Test job not archived.
 1\1\GINC-SE396\SP\RHF\Aug-CC-pVDZ\C10H16N1O2S1(1-)\OHZDE\09-Apr-2025\0
 \\#t hf aug-cc-pvdz iop(5/13=1,5/36=2,99/5=2) pseudo=read geom=check g
 uess=(read,tcheck) scf=(maxcycle=1)\\title\\-1,1\C,0,6.187026,0.737423
 ,0.686647\C,0,5.064525,1.14131,-0.27521\H,0,6.916776,1.543139,0.822383
 \H,0,6.722525,-0.139572,0.31078\H,0,5.77582,0.474973,1.664364\C,0,4.06
 7881,0.048355,-0.522059\C,0,2.76727,0.115797,-0.18723\C,0,1.75762,-0.8
 83647,-0.381358\C,0,0.461225,-0.676412,0.021876\O,0,-0.041866,0.289406
 ,0.64384\S,0,-0.692926,-2.048891,-0.494993\C,0,-2.023572,-1.873065,0.7

 Normal termination of Gaussian 16 at Wed Apr  9 01:10:40 2025.
