 Gaussian 16, Revision C.01,

 ----------------------------------------------------------------------
 #t hf aug-cc-pvdz symm=none int=(grid=ultrafine) guess=(read,tcheck) s
 table=(opt,rrhf)
 ----------------------------------------------------------------------
 -----
 title
 -----
 Symbolic Z-matrix:
 Charge =  0 Multiplicity = 1

 SCF Done:  E(RHF) =  -837.362058929     A.U. after   15 cycles
 Normal termination of Gaussian 16 at Wed Apr  9 01:55:37 2025.
 Gaussian 16:  ES64L-G16RevC.01  3-Jul-2019

 ----------------------------------------------------------------------
 #t hf aug-cc-pvdz iop(5/13=1,5/36=2,99/5=2) pseudo=read geom=check gue
 ss=(read,tcheck) scf=(maxcycle=1)
 ----------------------------------------------------------------------
 -----
 title
 -----
 Structure from the checkpoint file:  "BH10_345_forward_mol3.chk"
 Charge =  0 Multiplicity = 1

                         Standard orientation:
 ---------------------------------------------------------------------
 Center     Atomic      Atomic             Coordinates (Angstroms)
 Number     Number       Type             X           Y           Z
 ---------------------------------------------------------------------
      1          7           0        0.019836    1.048464    0.035810
      2          6           0        1.367835    0.661517   -0.218113
      3          6           0        1.632344   -0.640758   -0.076742
      4         16           0        0.197539   -1.555506    0.468495
      5          6           0       -0.792631   -0.114729    0.097635
      6          6           0        2.327683    1.735131   -0.614929
      7          1           0        1.921033    2.313550   -1.447668
      8          1           0        3.284377    1.317200   -0.921663
      9          1           0        2.520632    2.428830    0.207488
     10          6           0        2.902313   -1.390876   -0.290455
     11          1           0        3.728144   -0.717223   -0.515619
     12          1           0        2.809169   -2.104658   -1.113028
     13          1           0        3.169308   -1.958102    0.605624
     14          6           0       -0.144824    1.995338    1.143601
     15          1           0        0.211480    1.581459    2.095745
     16          1           0       -1.197538    2.250879    1.244763
     17          1           0        0.403558    2.911853    0.927147
     18          6           0       -2.085548   -0.170413   -0.222796
     19          6           0       -2.905346    0.996736   -0.644932
     20          1           0       -3.593682    1.309725    0.145564
     21          1           0       -3.506495    0.717717   -1.512686
     22          1           0       -2.262298    1.835521   -0.907854
     23          8           0       -2.800318   -1.335366   -0.182499
     24          1           0       -2.195566   -2.086657   -0.134039
 ---------------------------------------------------------------------

 SCF Done:  E(RHF) =  -839.702524525     A.U. after    2 cycles

 The electronic state is 1-A.
 Alpha  occ. eigenvalues --  -75.68612 -21.08918 -15.73056 -13.16500 -13.15446
 Alpha  occ. eigenvalues --  -13.03088 -11.48766 -11.46860 -11.41986 -11.41412
 Alpha  occ. eigenvalues --  -11.41310 -11.39811 -11.37923 -11.37386  -8.02941
 Alpha  occ. eigenvalues --   -1.74747  -1.49290  -1.23206  -1.18030  -1.10598
 Alpha  occ. eigenvalues --   -1.06971  -0.99907  -0.98511  -0.87856  -0.76184
 Alpha  occ. eigenvalues --   -0.72280  -0.67098  -0.63042  -0.62122  -0.59429
 Alpha  occ. eigenvalues --   -0.58432  -0.58214  -0.57081  -0.56417  -0.54502
 Alpha  occ. eigenvalues --   -0.54069  -0.51852  -0.50935  -0.45576  -0.44070
 Alpha  occ. eigenvalues --   -0.42202  -0.40820  -0.37810  -0.31457  -0.29725
 Alpha  occ. eigenvalues --   -0.18738
 Alpha virt. eigenvalues --    0.03100   0.04597   0.05043   0.05380   0.05838
 Alpha virt. eigenvalues --    0.05910   0.06194   0.06428   0.06738   0.07097
 Alpha virt. eigenvalues --    0.08177   0.08629   0.09377   0.10574   0.11004

 Mulliken charges:
               1
     1  N   -3.284965
     2  C    2.398841
     3  C    2.036476
     4  S    0.465719
     5  C   -0.202602
     6  C   -4.890632
     7  H    1.248172
     8  H    1.197915
     9  H    1.204982
    10  C   -5.336021
    11  H    1.272563
    12  H    1.237835
    13  H    1.204634
    14  C   -4.597132
    15  H    1.422878
    16  H    1.511806
    17  H    1.480091
    18  C    6.207378
    19  C   -5.462641
    20  H    1.257996
    21  H    1.157606
    22  H    1.372575
    23  O   -3.862870
    24  H    0.959396
 Sum of Mulliken charges =   0.00000

 Dipole moment (field-independent basis, Debye):
    X=              0.7283    Y=              0.1198    Z=              0.3069  Tot=              0.7993

 Test job not archived.
 1\1\GINC-SE112\SP\RHF\Aug-CC-pVDZ\C8H13N1O1S1\OHZDE\09-Apr-2025\0\\#t
 hf aug-cc-pvdz iop(5/13=1,5/36=2,99/5=2) pseudo=read geom=check guess=
 (read,tcheck) scf=(maxcycle=1)\\title\\0,1\N,0,0.019836,1.048464,0.035
 81\C,0,1.367835,0.661517,-0.218113\C,0,1.632344,-0.640758,-0.076742\S,
 0,0.197539,-1.555506,0.468495\C,0,-0.792631,-0.114729,0.097635\C,0,2.3
 27683,1.735131,-0.614929\H,0,1.921033,2.31355,-1.447668\H,0,3.284377,1
 .3172,-0.921663\H,0,2.520632,2.42883,0.207488\C,0,2.902313,-1.390876,-
 0.290455\H,0,3.728144,-0.717223,-0.515619\H,0,2.809169,-2.104658,-1.11

 Normal termination of Gaussian 16 at Wed Apr  9 01:55:55 2025.
