 Gaussian 16, Revision C.01,

 ----------------------------------------------------------------------
 #t hf aug-cc-pvdz symm=none int=(grid=ultrafine) guess=(read,tcheck) s
 table=(opt,rrhf)
 ----------------------------------------------------------------------
 -----
 title
 -----
 Symbolic Z-matrix:
 Charge =  0 Multiplicity = 1

 SCF Done:  E(RHF) =  -1273.93991324     A.U. after   16 cycles
 Normal termination of Gaussian 16 at Wed Apr  9 02:02:31 2025.
 Gaussian 16:  ES64L-G16RevC.01  3-Jul-2019

 ----------------------------------------------------------------------
 #t hf aug-cc-pvdz iop(5/13=1,5/36=2,99/5=2) pseudo=read geom=check gue
 ss=(read,tcheck) scf=(maxcycle=1)
 ----------------------------------------------------------------------
 -----
 title
 -----
 Structure from the checkpoint file:  "BH10_350_reverse_mol2.chk"
 Charge =  0 Multiplicity = 1

                         Standard orientation:
 ---------------------------------------------------------------------
 Center     Atomic      Atomic             Coordinates (Angstroms)
 Number     Number       Type             X           Y           Z
 ---------------------------------------------------------------------
      1          7           0       -0.319928    0.891959   -0.521109
      2          6           0       -1.644435    0.449823   -0.438084
      3          6           0       -1.799904   -0.844235   -0.141864
      4         16           0       -0.227264   -1.639022    0.094932
      5          6           0        0.669470   -0.037955   -0.065209
      6          6           0       -2.735545    1.426873   -0.726896
      7          1           0       -2.683541    2.293991   -0.064042
      8          1           0       -3.710069    0.962502   -0.597181
      9          1           0       -2.671505    1.791805   -1.755156
     10          6           0       -3.030344   -1.674092   -0.009261
     11          1           0       -3.927002   -1.072306   -0.154546
     12          1           0       -3.096321   -2.136112    0.980366
     13          1           0       -3.050926   -2.480646   -0.748383
     14          6           0        0.031780    2.293948   -0.633068
     15          1           0       -0.598561    2.771948   -1.380633
     16          1           0        1.058581    2.377930   -0.976805
     17          1           0       -0.063809    2.833722    0.316387
     18          6           0        1.805728   -0.247496   -1.092259
     19          8           0        1.783186    0.328878   -2.146637
     20          6           0        2.916956   -1.189213   -0.711818
     21          1           0        3.410378   -1.533935   -1.618425
     22          1           0        2.559608   -2.034604   -0.124345
     23          1           0        3.642758   -0.650010   -0.097697
     24         16           0        1.500228    0.473744    1.534167
     25          6           0        0.033174    0.610770    2.579036
     26          1           0       -0.496136   -0.340834    2.605609
     27          1           0       -0.631299    1.398086    2.226357
     28          1           0        0.383144    0.857642    3.580309
 ---------------------------------------------------------------------

 SCF Done:  E(RHF) =  -1276.71510405     A.U. after    2 cycles

 The electronic state is 1-A.
 Alpha  occ. eigenvalues --  -75.69088 -75.68080 -21.05424 -15.73450 -13.19982
 Alpha  occ. eigenvalues --  -13.17336 -13.14038 -13.11502 -13.08373 -13.06304
 Alpha  occ. eigenvalues --  -11.52612 -11.48158 -11.46694 -11.42451 -11.41773
 Alpha  occ. eigenvalues --  -11.40151 -11.39753 -11.38792 -11.37693  -8.03366
 Alpha  occ. eigenvalues --   -8.02146  -1.72040  -1.50458  -1.24091  -1.23803
 Alpha  occ. eigenvalues --   -1.14674  -1.10772  -1.06955  -1.01073  -1.00609
 Alpha  occ. eigenvalues --   -0.92238  -0.85805  -0.76961  -0.70778  -0.66791
 Alpha  occ. eigenvalues --   -0.63742  -0.62492  -0.60573  -0.59946  -0.59602
 Alpha  occ. eigenvalues --   -0.58137  -0.57906  -0.57602  -0.56910  -0.54929
 Alpha  occ. eigenvalues --   -0.54262  -0.50553  -0.49844  -0.48537  -0.46181
 Alpha  occ. eigenvalues --   -0.42315  -0.41520  -0.37979  -0.36284  -0.32263
 Alpha  occ. eigenvalues --   -0.28524  -0.23157  -0.17860
 Alpha virt. eigenvalues --    0.02953   0.04098   0.04287   0.04848   0.05346
 Alpha virt. eigenvalues --    0.05685   0.06163   0.06627   0.06719   0.07336
 Alpha virt. eigenvalues --    0.07808   0.08042   0.08387   0.08933   0.09669

 Mulliken charges:
               1
     1  N   -2.544820
     2  C    2.333377
     3  C    2.832653
     4  S    0.422384
     5  C    1.702503
     6  C   -5.087287
     7  H    1.060851
     8  H    1.276272
     9  H    1.189680
    10  C   -5.708680
    11  H    1.193413
    12  H    1.246523
    13  H    1.232867
    14  C   -4.608999
    15  H    1.438903
    16  H    1.516117
    17  H    1.436023
    18  C    4.749869
    19  O   -3.695800
    20  C   -5.523410
    21  H    1.278793
    22  H    1.482093
    23  H    1.427093
    24  S    0.549344
    25  C   -5.807794
    26  H    1.760469
    27  H    1.600849
    28  H    1.246714
 Sum of Mulliken charges =   0.00000

 Dipole moment (field-independent basis, Debye):
    X=             -0.3912    Y=              0.0421    Z=              0.9109  Tot=              0.9922

 Test job not archived.
 1\1\GINC-SE424\SP\RHF\Aug-CC-pVDZ\C9H15N1O1S2\OHZDE\09-Apr-2025\0\\#t
 hf aug-cc-pvdz iop(5/13=1,5/36=2,99/5=2) pseudo=read geom=check guess=
 (read,tcheck) scf=(maxcycle=1)\\title\\0,1\N,0,-0.319928,0.891959,-0.5
 21109\C,0,-1.644435,0.449823,-0.438084\C,0,-1.799904,-0.844235,-0.1418
 64\S,0,-0.227264,-1.639022,0.094932\C,0,0.66947,-0.037955,-0.065209\C,
 0,-2.735545,1.426873,-0.726896\H,0,-2.683541,2.293991,-0.064042\H,0,-3
 .710069,0.962502,-0.597181\H,0,-2.671505,1.791805,-1.755156\C,0,-3.030
 344,-1.674092,-0.009261\H,0,-3.927002,-1.072306,-0.154546\H,0,-3.09632

 Normal termination of Gaussian 16 at Wed Apr  9 02:03:02 2025.
