 Gaussian 16, Revision C.01,

 ----------------------------------------------------------------------
 #t hf aug-cc-pvdz symm=none int=(grid=ultrafine) guess=(read,tcheck) s
 table=(opt,rrhf)
 ----------------------------------------------------------------------
 -----
 title
 -----
 Symbolic Z-matrix:
 Charge =  0 Multiplicity = 1

 SCF Done:  E(RHF) =  -551.640091385     A.U. after   12 cycles
 Normal termination of Gaussian 16 at Wed Apr  9 01:16:48 2025.
 Gaussian 16:  ES64L-G16RevC.01  3-Jul-2019

 ----------------------------------------------------------------------
 #t hf aug-cc-pvdz iop(5/13=1,5/36=2,99/5=2) pseudo=read geom=check gue
 ss=(read,tcheck) scf=(maxcycle=1)
 ----------------------------------------------------------------------
 -----
 title
 -----
 Structure from the checkpoint file:  "BH10_293_reverse_mol3.chk"
 Charge =  0 Multiplicity = 1

                         Standard orientation:
 ---------------------------------------------------------------------
 Center     Atomic      Atomic             Coordinates (Angstroms)
 Number     Number       Type             X           Y           Z
 ---------------------------------------------------------------------
      1         16           0        1.428718   -0.292410   -0.011148
      2          6           0        0.068299    0.895561   -0.294572
      3          6           0       -1.244511    0.449304    0.327062
      4          8           0       -1.690971   -0.786883   -0.181089
      5          1           0        0.360290    1.880633    0.069950
      6          1           0       -0.034242    0.949442   -1.378962
      7          1           0       -1.144087    0.411910    1.420087
      8          1           0       -2.022377    1.178202    0.090211
      9          1           0       -0.971524   -1.421670   -0.083820
     10          1           0        1.537489   -0.094084    1.314671
 ---------------------------------------------------------------------

 SCF Done:  E(RHF) =  -552.579975886     A.U. after    2 cycles

 The electronic state is 1-A.
 Alpha  occ. eigenvalues --  -75.69428 -21.06641 -13.13719 -13.09929 -13.04477
 Alpha  occ. eigenvalues --  -11.44577 -11.39554  -8.03341  -1.71388  -1.21435
 Alpha  occ. eigenvalues --   -1.02808  -0.86658  -0.66962  -0.63659  -0.57134
 Alpha  occ. eigenvalues --   -0.54845  -0.48828  -0.41709  -0.38403  -0.32267
 Alpha  occ. eigenvalues --   -0.25285
 Alpha virt. eigenvalues --    0.03306   0.04329   0.05471   0.05677   0.06238
 Alpha virt. eigenvalues --    0.07446   0.09556   0.11921   0.12561   0.13421
 Alpha virt. eigenvalues --    0.14629   0.15391   0.16031   0.16466   0.18009

 Mulliken charges:
               1
     1  S   -0.602422
     2  C   -3.838557
     3  C   -0.540545
     4  O   -2.497048
     5  H    1.392377
     6  H    1.516681
     7  H    1.291932
     8  H    1.313964
     9  H    0.926333
    10  H    1.037284
 Sum of Mulliken charges =  -0.00000

 Dipole moment (field-independent basis, Debye):
    X=              0.7857    Y=              0.2944    Z=             -0.7002  Tot=              1.0929

 Test job not archived.
 1\1\GINC-SE195\SP\RHF\Aug-CC-pVDZ\C2H6O1S1\OHZDE\09-Apr-2025\0\\#t hf
 aug-cc-pvdz iop(5/13=1,5/36=2,99/5=2) pseudo=read geom=check guess=(re
 ad,tcheck) scf=(maxcycle=1)\\title\\0,1\S,0,1.428718,-0.29241,-0.01114
 8\C,0,0.068299,0.895561,-0.294572\C,0,-1.244511,0.449304,0.327062\O,0,
 -1.690971,-0.786883,-0.181089\H,0,0.36029,1.880633,0.06995\H,0,-0.0342
 42,0.949442,-1.378962\H,0,-1.144087,0.41191,1.420087\H,0,-2.022377,1.1
 78202,0.090211\H,0,-0.971524,-1.42167,-0.08382\H,0,1.537489,-0.094084,
 1.314671\\Version=ES64L-G16RevC.01\State=1-A\HF=-552.5799759\RMSD=2.05

 Normal termination of Gaussian 16 at Wed Apr  9 01:16:51 2025.
