 Gaussian 16, Revision C.01,

 ----------------------------------------------------------------------
 #t hf aug-cc-pvdz symm=none int=(grid=ultrafine) guess=(read,tcheck) s
 table=opt
 ----------------------------------------------------------------------
 -----
 title
 -----
 Symbolic Z-matrix:
 Charge =  0 Multiplicity = 2

 SCF Done:  E(UHF) =  -485.851368897     A.U. after   15 cycles
 Normal termination of Gaussian 16 at Wed Apr  9 01:07:42 2025.
 Gaussian 16:  ES64L-G16RevC.01  3-Jul-2019

 ----------------------------------------------------------------------
 #t hf aug-cc-pvdz iop(5/13=1,5/36=2,99/5=2) pseudo=read geom=check gue
 ss=(read,tcheck) scf=(maxcycle=1)
 ----------------------------------------------------------------------
 -----
 title
 -----
 Structure from the checkpoint file:  "BH10_274_reverse_mol2.chk"
 Charge =  0 Multiplicity = 2

                         Standard orientation:
 ---------------------------------------------------------------------
 Center     Atomic      Atomic             Coordinates (Angstroms)
 Number     Number       Type             X           Y           Z
 ---------------------------------------------------------------------
      1         14           0        0.372306   -0.000000   -0.011711
      2          6           0        0.434312   -1.537267   -1.085904
      3          1           0        0.388833   -2.446634   -0.481003
      4          1           0       -0.402569   -1.561388   -1.787631
      5          1           0        1.358465   -1.573546   -1.668468
      6          6           0        1.818815   -0.000003    1.187649
      7          1           0        2.772866   -0.000000    0.653911
      8          1           0        1.801065    0.882539    1.832212
      9          1           0        1.801066   -0.882551    1.832205
     10          6           0        0.434301    1.537284   -1.085881
     11          1           0       -0.402579    1.561409   -1.787610
     12          1           0        0.388814    2.446642   -0.480966
     13          1           0        1.358455    1.573579   -1.668442
     14          6           0       -1.248388   -0.000015    0.992823
     15          6           0       -2.454368   -0.000000    0.140868
     16          1           0       -1.218849   -0.881944    1.642519
     17          1           0       -1.218848    0.881891    1.642550
     18          1           0       -2.873521   -0.925641   -0.231338
     19          1           0       -2.873513    0.925653   -0.231314
 ---------------------------------------------------------------------

 SCF Done:  E(UHF) =  -487.039201055     A.U. after    2 cycles

 The electronic state is 2-A.
 Alpha  occ. eigenvalues --  -76.17741 -11.39031 -11.34287 -11.33803 -11.33801
 Alpha  occ. eigenvalues --  -11.33719  -5.52029  -2.15906  -2.15686  -2.15679
 Alpha  occ. eigenvalues --   -1.15175  -1.06037  -1.00483  -1.00454  -0.86673
 Alpha  occ. eigenvalues --   -0.64574  -0.62327  -0.56775  -0.56184  -0.55991
 Alpha  occ. eigenvalues --   -0.54789  -0.53800  -0.52735  -0.52086  -0.49328
 Alpha  occ. eigenvalues --   -0.43741  -0.38501  -0.38453  -0.26607
 Alpha virt. eigenvalues --    0.03017   0.05250   0.05637   0.05811   0.06035
 Alpha virt. eigenvalues --    0.06272   0.06424   0.06446   0.06655   0.08327
 Alpha virt. eigenvalues --    0.08410   0.08536   0.09240   0.09823   0.10577

  Beta  occ. eigenvalues --  -76.17669 -11.37702 -11.33827 -11.33806 -11.33768
  Beta  occ. eigenvalues --  -11.33580  -5.51909  -2.15643  -2.15595  -2.15442
  Beta  occ. eigenvalues --   -1.12255  -1.05094  -1.00479  -1.00404  -0.81770
  Beta  occ. eigenvalues --   -0.63734  -0.61466  -0.56576  -0.55976  -0.55925
  Beta  occ. eigenvalues --   -0.54449  -0.53754  -0.52717  -0.51107  -0.48721
  Beta  occ. eigenvalues --   -0.38943  -0.38451  -0.38302
  Beta virt. eigenvalues --    0.03030   0.05335   0.05647   0.05813   0.06039
  Beta virt. eigenvalues --    0.06237   0.06440   0.06462   0.06580   0.08315
  Beta virt. eigenvalues --    0.08332   0.08540   0.09247   0.09673   0.10267

 Mulliken charges and spin densities:
               1          2
     1  Si  11.663065  -0.036805
     2  C   -6.043324  -0.013038
     3  H    1.045791   0.001953
     4  H    1.067400   0.000250
     5  H    1.049383  -0.003286
     6  C   -6.114758   0.016761
     7  H    1.093667   0.000384
     8  H    1.101258   0.000163
     9  H    1.101258   0.000163
    10  C   -6.043324  -0.013038
    11  H    1.067405   0.000250
    12  H    1.045788   0.001953
    13  H    1.049381  -0.003286
    14  C   -4.727386  -0.337808
    15  C   -3.293990   1.551151
    16  H    1.104596  -0.002104
    17  H    1.104593  -0.002103
    18  H    1.364599  -0.080779
    19  H    1.364597  -0.080779
 Sum of Mulliken charges =  -0.00000   1.00000

 Dipole moment (field-independent basis, Debye):
    X=              0.4173    Y=             -0.0000    Z=              0.0190  Tot=              0.4177
                          Isotropic Fermi Contact Couplings
        Atom                 a.u.       MegaHertz       Gauss      10(-4) cm-1
     1  Si(29)             0.08481     -75.37697     -26.89638     -25.14305
     2  C(13)             -0.00183      -2.05307      -0.73259      -0.68483
     3  H(1)               0.00011       0.46965       0.16758       0.15666
     4  H(1)              -0.00001      -0.05224      -0.01864      -0.01743
     5  H(1)              -0.00018      -0.78276      -0.27931      -0.26110
     6  C(13)              0.00445       5.00765       1.78685       1.67037
     7  H(1)               0.00060       2.69729       0.96246       0.89972
     8  H(1)              -0.00014      -0.61196      -0.21836      -0.20413

 Normal termination of Gaussian 16 at Wed Apr  9 01:07:50 2025.
