 Gaussian 16, Revision C.01,

 ----------------------------------------------------------------------
 #t hf aug-cc-pvdz symm=none int=(grid=ultrafine) guess=(read,tcheck) s
 table=(opt,rrhf)
 ----------------------------------------------------------------------
 -----
 title
 -----
 Symbolic Z-matrix:
 Charge =  0 Multiplicity = 1

 SCF Done:  E(RHF) =  -1081.86081087     A.U. after   15 cycles
 Normal termination of Gaussian 16 at Wed Apr  9 02:15:45 2025.
 Gaussian 16:  ES64L-G16RevC.01  3-Jul-2019

 ----------------------------------------------------------------------
 #t hf aug-cc-pvdz iop(5/13=1,5/36=2,99/5=2) pseudo=read geom=check gue
 ss=(read,tcheck) scf=(maxcycle=1)
 ----------------------------------------------------------------------
 -----
 title
 -----
 Structure from the checkpoint file:  "BH10_88_forward_mol2.chk"
 Charge =  0 Multiplicity = 1

                         Standard orientation:
 ---------------------------------------------------------------------
 Center     Atomic      Atomic             Coordinates (Angstroms)
 Number     Number       Type             X           Y           Z
 ---------------------------------------------------------------------
      1          6           0        0.328236    0.031571   -0.684939
      2          6           0        0.204217    1.317206    0.079176
      3          6           0       -0.652414   -0.860385   -0.763571
      4          6           0       -1.948867   -0.656596   -0.083147
      5          8           0       -2.776958   -1.679638   -0.321638
      6          8           0       -2.238327    0.292913    0.599845
      7          8           0        0.687654    1.475449    1.174116
      8          8           0       -0.406519    2.259253   -0.614997
      9          6           0       -0.613594    3.504239    0.068240
     10          6           0       -4.063263   -1.596579    0.301328
     11         16           0        1.927449   -0.221347   -1.429420
     12          6           0        2.620581   -1.553613   -0.380608
     13          6           0        3.006648   -1.140877    1.033076
     14          8           0        1.903045   -0.981061    1.887698
     15          1           0       -1.094591    4.155098   -0.655855
     16          1           0        0.339147    3.919839    0.393326
     17          1           0       -1.258291    3.339888    0.930731
     18          1           0       -3.954534   -1.539296    1.383988
     19          1           0       -4.586288   -2.504354    0.014272
     20          1           0       -4.597910   -0.715337   -0.052326
     21          1           0        3.508163   -1.870881   -0.933398
     22          1           0        1.918411   -2.386831   -0.354745
     23          1           0        3.626222   -0.237647    0.999186
     24          1           0        3.615762   -1.945961    1.455200
     25          1           0        1.525629   -0.093355    1.783256
     26          1           0       -0.521318   -1.784741   -1.310440
 ---------------------------------------------------------------------

 SCF Done:  E(RHF) =  -1085.07860136     A.U. after    2 cycles

 The electronic state is 1-A.
 Alpha  occ. eigenvalues --  -75.70121 -21.10538 -21.10374 -21.06005 -21.05650
 Alpha  occ. eigenvalues --  -21.04348 -13.19308 -13.13853 -13.09086 -11.56126
 Alpha  occ. eigenvalues --  -11.54468 -11.50660 -11.45105 -11.42720 -11.42382
 Alpha  occ. eigenvalues --  -11.42101 -11.39498  -8.04253  -1.87056  -1.85674
 Alpha  occ. eigenvalues --   -1.69961  -1.67794  -1.67515  -1.29109  -1.17155
 Alpha  occ. eigenvalues --   -1.07271  -1.03615  -1.01297  -0.91995  -0.85412
 Alpha  occ. eigenvalues --   -0.80132  -0.72995  -0.70577  -0.66677  -0.66311
 Alpha  occ. eigenvalues --   -0.64524  -0.63896  -0.62932  -0.59975  -0.59458
 Alpha  occ. eigenvalues --   -0.56626  -0.55897  -0.55402  -0.53999  -0.52333
 Alpha  occ. eigenvalues --   -0.51683  -0.46809  -0.44019  -0.43011  -0.41581
 Alpha  occ. eigenvalues --   -0.40382  -0.36133  -0.34401  -0.32208  -0.31666
 Alpha  occ. eigenvalues --   -0.30350  -0.29857  -0.23852
 Alpha virt. eigenvalues --    0.03437   0.03933   0.04563   0.05063   0.05540
 Alpha virt. eigenvalues --    0.05936   0.06327   0.06585   0.07041   0.07180
 Alpha virt. eigenvalues --    0.07761   0.08182   0.09047   0.09236   0.10251

 Mulliken charges:
               1
     1  C    2.281152
     2  C    5.718971
     3  C   -4.125177
     4  C    6.567812
     5  O   -3.707789
     6  O   -3.396759
     7  O   -3.452370
     8  O   -3.693830
     9  C   -3.456330
    10  C   -3.404568
    11  S    0.564984
    12  C   -3.690041
    13  C   -1.219538
    14  O   -2.906274
    15  H    1.356310
    16  H    1.422378
    17  H    1.347928
    18  H    1.361456
    19  H    1.463554
    20  H    1.334822
    21  H    1.405707
    22  H    1.691361
    23  H    1.724521
    24  H    1.188337
    25  H    1.481641
    26  H    2.141740
 Sum of Mulliken charges =  -0.00000

 Dipole moment (field-independent basis, Debye):
    X=             -1.0582    Y=              0.2202    Z=             -1.8761  Tot=              2.1652

 Test job not archived.
 1\1\GINC-SE128\SP\RHF\Aug-CC-pVDZ\C8H12O5S1\OHZDE\09-Apr-2025\0\\#t hf
  aug-cc-pvdz iop(5/13=1,5/36=2,99/5=2) pseudo=read geom=check guess=(r
 ead,tcheck) scf=(maxcycle=1)\\title\\0,1\C,0,0.328236,0.031571,-0.6849
 39\C,0,0.204217,1.317206,0.079176\C,0,-0.652414,-0.860385,-0.763571\C,
 0,-1.948867,-0.656596,-0.083147\O,0,-2.776958,-1.679638,-0.321638\O,0,
 -2.238327,0.292913,0.599845\O,0,0.687654,1.475449,1.174116\O,0,-0.4065
 19,2.259253,-0.614997\C,0,-0.613594,3.504239,0.06824\C,0,-4.063263,-1.
 596579,0.301328\S,0,1.927449,-0.221347,-1.42942\C,0,2.620581,-1.553613

 Normal termination of Gaussian 16 at Wed Apr  9 02:16:10 2025.
