 Gaussian 16, Revision C.01,

 ----------------------------------------------------------------------
 #t hf aug-cc-pvdz symm=none int=(grid=ultrafine) guess=(read,tcheck) s
 table=(opt,rrhf)
 ----------------------------------------------------------------------
 -----
 title
 -----
 Symbolic Z-matrix:
 Charge =  0 Multiplicity = 1

 SCF Done:  E(RHF) =  -882.420515867     A.U. after   14 cycles
 Normal termination of Gaussian 16 at Wed Apr  9 00:58:35 2025.
 Gaussian 16:  ES64L-G16RevC.01  3-Jul-2019

 ----------------------------------------------------------------------
 #t hf aug-cc-pvdz iop(5/13=1,5/36=2,99/5=2) pseudo=read geom=check gue
 ss=(read,tcheck) scf=(maxcycle=1)
 ----------------------------------------------------------------------
 -----
 title
 -----
 Structure from the checkpoint file:  "BH10-RE_128_mol3.chk"
 Charge =  0 Multiplicity = 1

                         Standard orientation:
 ---------------------------------------------------------------------
 Center     Atomic      Atomic             Coordinates (Angstroms)
 Number     Number       Type             X           Y           Z
 ---------------------------------------------------------------------
      1          6           0        2.830055    0.460317    0.001654
      2          6           0        2.401084   -0.620679    0.986220
      3          6           0        1.644037    1.159617   -0.652470
      4          6           0        1.081757   -1.259530    0.565787
      5          6           0       -0.051925   -0.219787    0.616931
      6          6           0        0.453282    1.198387    0.300082
      7          6           0       -2.749633    0.147323    0.099494
      8          6           0       -4.021773   -0.047548   -0.683510
      9          8           0       -2.667709    0.867199    1.059890
     10          1           0        2.301991   -0.178238    1.982100
     11          1           0        3.198848   -1.362619    1.048389
     12          1           0        1.378560    0.595952   -1.551389
     13          1           0        1.924139    2.161728   -0.979619
     14          1           0        0.833518   -2.110565    1.201183
     15          1           0        1.196407   -1.652780   -0.448420
     16          1           0       -0.521962   -0.218166    1.599303
     17          1           0        0.746116    1.679674    1.238659
     18          1           0       -0.353931    1.806361   -0.105090
     19          1           0       -4.851719   -0.155908    0.014691
     20          1           0       -3.974024   -0.909243   -1.348161
     21          1           0       -4.196079    0.850406   -1.280496
     22         16           0       -1.359809   -0.767533   -0.538000
     23          9           0        3.599669   -0.138492   -1.015053
     24          1           0        3.498424    1.174172    0.488076
 ---------------------------------------------------------------------

 SCF Done:  E(RHF) =  -884.844537052     A.U. after    2 cycles

 The electronic state is 1-A.
 Alpha  occ. eigenvalues --  -75.69366 -29.23642 -21.06014 -13.17698 -13.12615
 Alpha  occ. eigenvalues --  -13.05522 -11.52114 -11.50836 -11.47389 -11.44421
 Alpha  occ. eigenvalues --  -11.40386 -11.39786 -11.39690 -11.36322  -8.03739
 Alpha  occ. eigenvalues --   -1.72523  -1.37069  -1.22108  -1.13781  -1.12241
 Alpha  occ. eigenvalues --   -1.05890  -0.92461  -0.91618  -0.79259  -0.74854
 Alpha  occ. eigenvalues --   -0.71621  -0.70241  -0.65069  -0.61141  -0.60394
 Alpha  occ. eigenvalues --   -0.59439  -0.57543  -0.55149  -0.54120  -0.53274
 Alpha  occ. eigenvalues --   -0.51947  -0.49989  -0.46276  -0.45868  -0.43250
 Alpha  occ. eigenvalues --   -0.42837  -0.36586  -0.34360  -0.26687  -0.25180
 Alpha  occ. eigenvalues --   -0.24034  -0.23093
 Alpha virt. eigenvalues --    0.03404   0.04291   0.05102   0.05386   0.05558
 Alpha virt. eigenvalues --    0.05866   0.06058   0.06435   0.06965   0.07551
 Alpha virt. eigenvalues --    0.07908   0.08376   0.09169   0.10736   0.12381

 Mulliken charges:
               1
     1  C   -0.181149
     2  C   -3.952037
     3  C   -3.974583
     4  C   -3.925348
     5  C    0.414332
     6  C   -3.186871
     7  C    3.547366
     8  C   -5.002518
     9  O   -3.232844
    10  H    1.364099
    11  H    1.262697
    12  H    1.443561
    13  H    1.283641
    14  H    1.218997
    15  H    1.591457
    16  H    1.901065
    17  H    1.336210
    18  H    1.728371
    19  H    1.228662
    20  H    1.517230
    21  H    1.302259
    22  S    0.531541
    23  F    0.104179
    24  H    1.679683
 Sum of Mulliken charges =  -0.00000

 Dipole moment (field-independent basis, Debye):
    X=              1.1783    Y=             -1.3808    Z=             -1.5707  Tot=              2.4005

 Test job not archived.
 1\1\GINC-SE070\SP\RHF\Aug-CC-pVDZ\C8H13F1O1S1\OHZDE\09-Apr-2025\0\\#t
 hf aug-cc-pvdz iop(5/13=1,5/36=2,99/5=2) pseudo=read geom=check guess=
 (read,tcheck) scf=(maxcycle=1)\\title\\0,1\C,0,2.830055,0.460317,0.001
 654\C,0,2.401084,-0.620679,0.98622\C,0,1.644037,1.159617,-0.65247\C,0,
 1.081757,-1.25953,0.565787\C,0,-0.051925,-0.219787,0.616931\C,0,0.4532
 82,1.198387,0.300082\C,0,-2.749633,0.147323,0.099494\C,0,-4.021773,-0.
 047548,-0.68351\O,0,-2.667709,0.867199,1.05989\H,0,2.301991,-0.178238,
 1.9821\H,0,3.198848,-1.362619,1.048389\H,0,1.37856,0.595952,-1.551389\

 Normal termination of Gaussian 16 at Wed Apr  9 00:58:52 2025.
