 Gaussian 16, Revision C.01,

 ----------------------------------------------------------------------
 #t hf aug-cc-pvdz symm=none int=(grid=ultrafine) guess=(read,tcheck) s
 table=(opt,rrhf)
 ----------------------------------------------------------------------
 -----
 title
 -----
 Symbolic Z-matrix:
 Charge =  0 Multiplicity = 1

 SCF Done:  E(RHF) =  -1125.22519297     A.U. after   15 cycles
 Normal termination of Gaussian 16 at Wed Apr  9 02:30:55 2025.
 Gaussian 16:  ES64L-G16RevC.01  3-Jul-2019

 ----------------------------------------------------------------------
 #t hf aug-cc-pvdz iop(5/13=1,5/36=2,99/5=2) pseudo=read geom=check gue
 ss=(read,tcheck) scf=(maxcycle=1)
 ----------------------------------------------------------------------
 -----
 title
 -----
 Structure from the checkpoint file:  "BH10_302_forward_mol1.chk"
 Charge =  0 Multiplicity = 1

                         Standard orientation:
 ---------------------------------------------------------------------
 Center     Atomic      Atomic             Coordinates (Angstroms)
 Number     Number       Type             X           Y           Z
 ---------------------------------------------------------------------
      1          6           0        1.464571    2.484376    0.157466
      2          6           0        0.480151    1.860386    1.168136
      3          6           0       -0.897948    0.904185   -1.424954
      4          1           0        2.340174    1.837289    0.048701
      5          6           0       -0.812764    2.698229    1.295381
      6          1           0       -1.073186    2.780394    2.355545
      7          1           0       -0.614148    3.723006    0.963938
      8          1           0       -1.333241    0.415303   -2.299778
      9          1           0        0.992874    1.943797    2.130770
     10          6           0       -2.049641    2.147735    0.587386
     11          1           0       -2.325702    1.217499    1.085426
     12          1           0       -2.883527    2.833783    0.769630
     13          6           0       -1.980031    1.885449   -0.919628
     14          1           0       -2.959840    1.491812   -1.209431
     15          1           0       -1.884745    2.833709   -1.457889
     16          6           0        0.345617    1.616827   -1.998886
     17          1           0        1.133696    0.869543   -2.149727
     18          6           0        0.909043    2.800599   -1.223522
     19          1           0        1.709964    3.250542   -1.818958
     20          1           0        0.141067    3.574862   -1.140302
     21          1           0        0.081854    1.979349   -2.998572
     22          1           0        1.833045    3.422678    0.588893
     23          6           0       -0.556048   -0.230497   -0.420367
     24          1           0        0.173314   -0.862409   -0.950409
     25         14           0       -1.981186   -1.493611   -0.320221
     26          6           0       -3.506265   -1.002839    0.675878
     27          1           0       -4.212503   -1.838416    0.658197
     28          1           0       -3.286506   -0.787758    1.723493
     29          1           0       -4.017687   -0.134009    0.258262
     30          6           0       -1.399284   -3.147456    0.380788
     31          1           0       -1.340077   -3.156416    1.472085
     32          1           0       -2.121518   -3.919623    0.101606
     33          1           0       -0.426878   -3.443742   -0.020030
     34          6           0       -2.571852   -1.844896   -2.075039
     35          1           0       -3.270695   -2.685745   -2.070120
     36          1           0       -3.089689   -0.993014   -2.521061
     37          1           0       -1.739764   -2.111178   -2.732202
     38          5           0        0.191759    0.286732    0.903669
     39          6           0        1.846038   -0.460656    1.322886
     40          1           0        2.394551    0.330019    1.810056
     41          6           0        0.733331   -1.079473    1.909762
     42          1           0        0.456112   -2.027884    1.469864
     43          6           0       -0.242177   -0.360953    2.591643
     44          1           0        0.000456    0.464532    3.243852
     45          1           0       -1.185637   -0.854632    2.781370
     46          6           0        2.554681   -1.191811    0.264876
     47          8           0        2.162516   -2.196522   -0.280530
     48          8           0        3.698734   -0.575119   -0.072399
     49          6           0        4.435973   -1.173755   -1.141072
     50          1           0        3.837136   -1.192533   -2.051585
     51          1           0        5.315984   -0.550486   -1.275103
     52          1           0        4.722545   -2.192950   -0.882737
 ---------------------------------------------------------------------

 SCF Done:  E(RHF) =  -1129.53044055     A.U. after    2 cycles

 The electronic state is 1-A.
 Alpha  occ. eigenvalues --  -76.17102 -21.09175 -21.04160 -11.55508 -11.52122
 Alpha  occ. eigenvalues --  -11.47456 -11.46495 -11.45088 -11.44444 -11.43718
 Alpha  occ. eigenvalues --  -11.41998 -11.41825 -11.41476 -11.38265 -11.36640
 Alpha  occ. eigenvalues --  -11.35838 -11.34986 -11.34168 -11.34006 -11.33836
 Alpha  occ. eigenvalues --   -7.63973  -5.51253  -2.16316  -2.15404  -2.15107
 Alpha  occ. eigenvalues --   -1.84876  -1.66249  -1.37853  -1.29840  -1.18921
 Alpha  occ. eigenvalues --   -1.16689  -1.08870  -1.07159  -1.04848  -1.00269
 Alpha  occ. eigenvalues --   -1.00150  -0.99730  -0.97472  -0.93315  -0.85420
 Alpha  occ. eigenvalues --   -0.84577  -0.82692  -0.77380  -0.73733  -0.71000
 Alpha  occ. eigenvalues --   -0.69296  -0.66088  -0.64615  -0.64040  -0.63530
 Alpha  occ. eigenvalues --   -0.62752  -0.60975  -0.60042  -0.59697  -0.57564
 Alpha  occ. eigenvalues --   -0.57260  -0.56287  -0.55935  -0.55289  -0.54603
 Alpha  occ. eigenvalues --   -0.54241  -0.53684  -0.53069  -0.52700  -0.52329
 Alpha  occ. eigenvalues --   -0.51604  -0.50260  -0.48483  -0.46839  -0.45478
 Alpha  occ. eigenvalues --   -0.44879  -0.43682  -0.42453  -0.42023  -0.40161
 Alpha  occ. eigenvalues --   -0.38985  -0.38480  -0.37327  -0.35827  -0.35330
 Alpha  occ. eigenvalues --   -0.33371  -0.32097  -0.30007  -0.29461
 Alpha virt. eigenvalues --    0.03964   0.04260   0.04459   0.04837   0.05082
 Alpha virt. eigenvalues --    0.05477   0.05516   0.05684   0.05759   0.05848
 Alpha virt. eigenvalues --    0.05956   0.06204   0.06256   0.06558   0.06639

 Mulliken charges:
               1
     1  C   -6.045385
     2  C   -2.804112
     3  C    1.143234
     4  H    0.812171
     5  C   -4.878907
     6  H    0.951675
     7  H    1.352894
     8  H    1.506636
     9  H   -1.560303
    10  C   -4.570095
    11  H    1.941887
    12  H    1.547986
    13  C   -5.139830
    14  H    1.212880
    15  H    1.393772
    16  C   -6.077679
    17  H    1.358258
    18  C   -2.901767
    19  H    1.436686
    20  H    1.409128
    21  H    1.330204
    22  H    1.350781
    23  C   -6.624287
    24  H    0.832945
    25  Si  15.664699
    26  C   -7.097558
    27  H    0.841727
    28  H    0.971289
    29  H    0.878737
    30  C   -6.775279
    31  H    0.863033
    32  H    1.123189
    33  H    1.050401
    34  C   -6.861279
    35  H    0.990041
    36  H    0.908543
    37  H    0.715811
    38  B   30.517934
    39  C   -5.853247
    40  H    0.854114
    41  C   -4.198427
    42  H    1.448047
    43  C   -6.141733
    44  H   -0.351929
    45  H    1.071785
    46  C    8.327820
    47  O   -3.984924
    48  O   -4.183997
    49  C   -4.109523
    50  H    1.484656
    51  H    1.427882
    52  H    1.439419
 Sum of Mulliken charges =  -0.00000

 Dipole moment (field-independent basis, Debye):
    X=              1.0150    Y=              0.3322    Z=              0.7019  Tot=              1.2780

 Test job not archived.
 1\1\GINC-SE126\SP\RHF\Aug-CC-pVDZ\C17H31B1O2Si1\OHZDE\09-Apr-2025\0\\#
 t hf aug-cc-pvdz iop(5/13=1,5/36=2,99/5=2) pseudo=read geom=check gues
 s=(read,tcheck) scf=(maxcycle=1)\\title\\0,1\C,0,1.464571,2.484376,0.1
 57466\C,0,0.480151,1.860386,1.168136\C,0,-0.897948,0.904185,-1.424954\
 H,0,2.340174,1.837289,0.048701\C,0,-0.812764,2.698229,1.295381\H,0,-1.
 073186,2.780394,2.355545\H,0,-0.614148,3.723006,0.963938\H,0,-1.333241
 ,0.415303,-2.299778\H,0,0.992874,1.943797,2.13077\C,0,-2.049641,2.1477
 35,0.587386\H,0,-2.325702,1.217499,1.085426\H,0,-2.883527,2.833783,0.7

 Normal termination of Gaussian 16 at Wed Apr  9 02:34:04 2025.
