 Gaussian 16, Revision C.01,

 ----------------------------------------------------------------------
 #t hf aug-cc-pvdz symm=none int=(grid=ultrafine) guess=(read,tcheck) s
 table=(opt,rrhf)
 ----------------------------------------------------------------------
 -----
 title
 -----
 Symbolic Z-matrix:
 Charge =  0 Multiplicity = 1

 SCF Done:  E(RHF) =  -616.248417448     A.U. after   12 cycles

 1\1\GINC-SE083\Stability\RHF\Aug-CC-pVDZ\C4H9Cl1\OHZDE\09-Apr-2025\0\\
 #t hf aug-cc-pvdz symm=none int=(grid=ultrafine) guess=(read,tcheck) s
 table=(opt,rrhf)\\title\\0,1\Cl,0,-1.479465,-0.000003,0.000001\C,0,0.3
 60813,-0.000001,-0.000004\C,0,0.810834,-0.728693,-1.255701\C,0,0.81083
 6,-0.72312,1.258914\C,0,0.810825,1.451817,-0.003216\H,0,0.446688,-1.75
 641,-1.263292\H,0,1.903674,-0.748641,-1.29011\H,0,0.446661,-0.225395,-
 2.151766\H,0,0.446692,-1.750797,1.271088\H,0,0.446668,-0.215856,2.1527
 44\H,0,1.903677,-0.74291,1.293406\H,0,0.446659,1.972278,-0.889428\H,0,

 Normal termination of Gaussian 16 at Wed Apr  9 00:56:19 2025.
 Gaussian 16:  ES64L-G16RevC.01  3-Jul-2019

 ----------------------------------------------------------------------
 #t hf aug-cc-pvdz iop(5/13=1,5/36=2,99/5=2) pseudo=read geom=check gue
 ss=(read,tcheck) scf=(maxcycle=1)
 ----------------------------------------------------------------------
 -----
 title
 -----
 Structure from the checkpoint file:  "BH10_101_forward_mol2.chk"
 Charge =  0 Multiplicity = 1

                         Standard orientation:
 ---------------------------------------------------------------------
 Center     Atomic      Atomic             Coordinates (Angstroms)
 Number     Number       Type             X           Y           Z
 ---------------------------------------------------------------------
      1         17           0       -1.479465   -0.000004    0.000001
      2          6           0        0.360813   -0.000001   -0.000004
      3          6           0        0.810835   -0.826514   -1.193588
      4          6           0        0.810836   -0.620418    1.312573
      5          6           0        0.810824    1.446937   -0.118988
      6          1           0        0.446690   -1.851563   -1.119194
      7          1           0        1.903675   -0.849142   -1.226296
      8          1           0        0.446662   -0.396280   -2.126937
      9          1           0        0.446693   -1.643851    1.406666
     10          1           0        0.446667   -0.043487    2.163102
     11          1           0        1.903677   -0.637393    1.348534
     12          1           0        0.446658    1.895064   -1.043884
     13          1           0        1.903665    1.486580   -0.122256
     14          1           0        0.446668    2.040118    0.720293
 ---------------------------------------------------------------------

 SCF Done:  E(RHF) =  -617.324900489     A.U. after    2 cycles

 The electronic state is 1-A.
 Alpha  occ. eigenvalues --  -99.86018 -11.45474 -11.39853 -11.39853 -11.36392
 Alpha  occ. eigenvalues --  -10.43336  -9.63309  -9.62575  -9.62575  -1.36134
 Alpha  occ. eigenvalues --   -1.18040  -1.02437  -1.02437  -0.80776  -0.66046
 Alpha  occ. eigenvalues --   -0.63073  -0.63072  -0.56563  -0.56563  -0.52511
 Alpha  occ. eigenvalues --   -0.49346  -0.49345  -0.48486  -0.43871  -0.43871
 Alpha virt. eigenvalues --    0.03458   0.05736   0.05980   0.05980   0.06235
 Alpha virt. eigenvalues --    0.06235   0.07074   0.07074   0.08598   0.09083
 Alpha virt. eigenvalues --    0.10680   0.13966   0.13966   0.14596   0.15428

 Mulliken charges:
               1
     1  Cl  -0.218574
     2  C   -0.164183
     3  C   -3.596321
     4  C   -3.596325
     5  C   -3.596320
     6  H    1.241866
     7  H    1.240176
     8  H    1.241865
     9  H    1.241862
    10  H    1.241865
    11  H    1.240180
    12  H    1.241863
    13  H    1.240181
    14  H    1.241865
 Sum of Mulliken charges =  -0.00000

 Dipole moment (field-independent basis, Debye):
    X=              2.7760    Y=              0.0000    Z=             -0.0000  Tot=              2.7760

 Test job not archived.
 1\1\GINC-SE083\SP\RHF\Aug-CC-pVDZ\C4H9Cl1\OHZDE\09-Apr-2025\0\\#t hf a
 ug-cc-pvdz iop(5/13=1,5/36=2,99/5=2) pseudo=read geom=check guess=(rea
 d,tcheck) scf=(maxcycle=1)\\title\\0,1\Cl,0,-1.479465,-0.000003,0.0000
 01\C,0,0.360813,-0.000001,-0.000004\C,0,0.810834,-0.728693,-1.255701\C
 ,0,0.810836,-0.72312,1.258914\C,0,0.810825,1.451817,-0.003216\H,0,0.44
 6688,-1.75641,-1.263292\H,0,1.903674,-0.748641,-1.29011\H,0,0.446661,-
 0.225395,-2.151766\H,0,0.446692,-1.750797,1.271088\H,0,0.446668,-0.215
 856,2.152744\H,0,1.903677,-0.74291,1.293406\H,0,0.446659,1.972278,-0.8

 Normal termination of Gaussian 16 at Wed Apr  9 00:56:25 2025.
