 Gaussian 16, Revision C.01,

 ----------------------------------------------------------------------
 #t hf aug-cc-pvdz symm=none int=(grid=ultrafine) guess=(read,tcheck) s
 table=(opt,rrhf)
 ----------------------------------------------------------------------
 -----
 title
 -----
 Symbolic Z-matrix:
 Charge =  0 Multiplicity = 1

 SCF Done:  E(RHF) =  -1000.89898136     A.U. after   16 cycles
 Normal termination of Gaussian 16 at Wed Apr  9 02:32:58 2025.
 Gaussian 16:  ES64L-G16RevC.01  3-Jul-2019

 ----------------------------------------------------------------------
 #t hf aug-cc-pvdz iop(5/13=1,5/36=2,99/5=2) pseudo=read geom=check gue
 ss=(read,tcheck) scf=(maxcycle=1)
 ----------------------------------------------------------------------
 -----
 title
 -----
 Structure from the checkpoint file:  "BH10_85_forward_mol2.chk"
 Charge =  0 Multiplicity = 1

                         Standard orientation:
 ---------------------------------------------------------------------
 Center     Atomic      Atomic             Coordinates (Angstroms)
 Number     Number       Type             X           Y           Z
 ---------------------------------------------------------------------
      1          6           0       -0.249352   -0.501251   -0.684632
      2          6           0        2.155206   -0.557749    0.051728
      3          6           0       -1.419736   -1.156441   -0.699558
      4          6           0        2.467182    0.880687   -0.124389
      5          6           0        3.906188    1.264177   -0.414381
      6          6           0        0.944006   -1.116319   -0.175389
      7          6           0        1.839237    3.144444   -0.166555
      8          6           0        3.228850   -1.477148    0.524214
      9          6           0       -2.726967   -0.577823   -1.103246
     10          6           0       -3.667807   -1.626886   -1.707026
     11          1           0       -3.904533   -2.411912   -0.983082
     12          1           0       -3.215311   -2.110340   -2.576698
     13          1           0       -2.549378    0.218668   -1.835488
     14          1           0       -4.610114   -1.180627   -2.028707
     15          7           0        1.533800    1.738985    0.001303
     16         14           0       -3.484777    0.316681    0.414760
     17          6           0       -2.449101    1.831261    0.794576
     18          6           0       -5.240031    0.837515   -0.008050
     19          6           0       -3.503507   -0.853933    1.881182
     20          1           0        0.931815    3.726754   -0.009230
     21          1           0        2.217580    3.371070   -1.170818
     22          1           0        2.591425    3.491458    0.552080
     23          1           0       -5.267948    1.449127   -0.913703
     24          1           0       -5.667553    1.432337    0.803469
     25          1           0       -5.894000   -0.023137   -0.164836
     26          1           0       -2.499902    2.554293   -0.024195
     27          1           0       -1.397409    1.581214    0.950910
     28          1           0       -2.815003    2.329863    1.696156
     29          1           0       -2.489724   -1.133669    2.176400
     30          1           0       -4.055041   -1.771257    1.660050
     31          1           0       -3.981543   -0.384216    2.744619
     32          6           0        4.636408   -0.924241    0.540016
     33          6           0        4.839090    0.073837   -0.592608
     34          1           0        5.324796   -1.767883    0.493871
     35          1           0        4.792031   -0.429670    1.507036
     36          1           0        4.638599   -0.418560   -1.549178
     37          1           0        5.875904    0.414123   -0.625517
     38          1           0        4.262444    1.888381    0.414107
     39          1           0        3.924527    1.907860   -1.298517
     40          8           0        3.004568   -2.619239    0.868757
     41          1           0       -0.194908    0.529125   -1.008558
     42          1           0       -1.443262   -2.177411   -0.319021
     43          1           0        0.882246   -2.178888    0.047735
 ---------------------------------------------------------------------

 SCF Done:  E(RHF) =  -1004.54833671     A.U. after    2 cycles

 The electronic state is 1-A.
 Alpha  occ. eigenvalues --  -76.18070 -21.02722 -15.71038 -11.51606 -11.48893
 Alpha  occ. eigenvalues --  -11.48064 -11.45965 -11.44665 -11.43385 -11.41252
 Alpha  occ. eigenvalues --  -11.40546 -11.38969 -11.38183 -11.37998 -11.36738
 Alpha  occ. eigenvalues --  -11.34709 -11.34435 -11.33887  -5.52356  -2.16557
 Alpha  occ. eigenvalues --   -2.16282  -2.16147  -1.69485  -1.41642  -1.27553
 Alpha  occ. eigenvalues --   -1.24789  -1.17427  -1.08366  -1.06718  -1.06202
 Alpha  occ. eigenvalues --   -1.00907  -1.00506  -0.99466  -0.94310  -0.89595
 Alpha  occ. eigenvalues --   -0.84041  -0.79714  -0.77039  -0.70235  -0.66786
 Alpha  occ. eigenvalues --   -0.65924  -0.64486  -0.62254  -0.61237  -0.60294
 Alpha  occ. eigenvalues --   -0.58299  -0.57438  -0.56834  -0.56598  -0.56115
 Alpha  occ. eigenvalues --   -0.55758  -0.54864  -0.53992  -0.53767  -0.53327
 Alpha  occ. eigenvalues --   -0.52770  -0.52191  -0.50910  -0.49522  -0.48240
 Alpha  occ. eigenvalues --   -0.47922  -0.47155  -0.44915  -0.42409  -0.41836
 Alpha  occ. eigenvalues --   -0.39171  -0.38675  -0.38389  -0.35134  -0.33191
 Alpha  occ. eigenvalues --   -0.26741  -0.26026
 Alpha virt. eigenvalues --    0.03299   0.04407   0.04601   0.04712   0.05023
 Alpha virt. eigenvalues --    0.05097   0.05447   0.05578   0.05895   0.06129
 Alpha virt. eigenvalues --    0.06224   0.06442   0.07099   0.07323   0.07426

 Mulliken charges:
               1
     1  C    0.931994
     2  C    1.324068
     3  C   -1.757738
     4  C    5.109630
     5  C   -3.915899
     6  C   -0.192368
     7  C   -4.693985
     8  C    3.758695
     9  C   -5.301342
    10  C   -5.290947
    11  H    1.206003
    12  H    1.292590
    13  H    1.222131
    14  H    1.301485
    15  N   -4.552459
    16  Si  13.068772
    17  C   -6.676102
    18  C   -6.457629
    19  C   -6.479032
    20  H    1.439769
    21  H    1.649329
    22  H    1.640092
    23  H    0.927569
    24  H    1.054873
    25  H    1.119090
    26  H    0.985768
    27  H    1.420511
    28  H    1.127495
    29  H    1.116264
    30  H    0.831127
    31  H    1.008069
    32  C   -4.619570
    33  C   -3.654236
    34  H    1.303833
    35  H    1.395725
    36  H    1.434765
    37  H    1.177088
    38  H    1.159822
    39  H    1.270240
    40  O   -4.294942
    41  H    2.715784
    42  H    1.990377
    43  H    1.903291
 Sum of Mulliken charges =  -0.00000

 Dipole moment (field-independent basis, Debye):
    X=             -0.7248    Y=              1.5610    Z=             -0.9300  Tot=              1.9562

 Test job not archived.
 1\1\GINC-SE249\SP\RHF\Aug-CC-pVDZ\C15H25N1O1Si1\OHZDE\09-Apr-2025\0\\#
 t hf aug-cc-pvdz iop(5/13=1,5/36=2,99/5=2) pseudo=read geom=check gues
 s=(read,tcheck) scf=(maxcycle=1)\\title\\0,1\C,0,0.249352,-0.501251,0.
 684632\C,0,-2.155206,-0.557749,-0.051728\C,0,1.419736,-1.156441,0.6995
 58\C,0,-2.467182,0.880687,0.124389\C,0,-3.906188,1.264177,0.414381\C,0
 ,-0.944006,-1.116319,0.175389\C,0,-1.839237,3.144444,0.166555\C,0,-3.2
 2885,-1.477148,-0.524214\C,0,2.726967,-0.577823,1.103246\C,0,3.667807,
 -1.626886,1.707026\H,0,3.904533,-2.411912,0.983082\H,0,3.215311,-2.110

 Normal termination of Gaussian 16 at Wed Apr  9 02:34:21 2025.
