 Gaussian 16, Revision C.01,

 ----------------------------------------------------------------------
 #t hf aug-cc-pvdz symm=none int=(grid=ultrafine) guess=(read,tcheck) s
 table=(opt,rrhf)
 ----------------------------------------------------------------------
 -----
 title
 -----
 Symbolic Z-matrix:
 Charge =  0 Multiplicity = 1

 SCF Done:  E(RHF) =  -816.214381000     A.U. after   15 cycles
 Normal termination of Gaussian 16 at Wed Apr  9 01:04:07 2025.
 Gaussian 16:  ES64L-G16RevC.01  3-Jul-2019

 ----------------------------------------------------------------------
 #t hf aug-cc-pvdz iop(5/13=1,5/36=2,99/5=2) pseudo=read geom=check gue
 ss=(read,tcheck) scf=(maxcycle=1)
 ----------------------------------------------------------------------
 -----
 title
 -----
 Structure from the checkpoint file:  "BH10_223_forward_mol2.chk"
 Charge =  0 Multiplicity = 1

                         Standard orientation:
 ---------------------------------------------------------------------
 Center     Atomic      Atomic             Coordinates (Angstroms)
 Number     Number       Type             X           Y           Z
 ---------------------------------------------------------------------
      1          8           0        1.721031   -0.796577   -1.184470
      2          6           0        2.226198   -0.236070   -0.250395
      3          8           0        3.394365   -0.630293    0.287484
      4          6           0        1.671852    0.976218    0.446260
      5          6           0        0.283448    1.331805   -0.053713
      6          6           0       -0.743526    0.296641    0.359179
      7          1           0        0.269978    1.441116   -1.138981
      8          1           0       -0.034891    2.287269    0.372905
      9         16           0       -2.235112    0.336709   -0.601925
     10          6           0       -3.167186   -0.954423    0.255071
     11          1           0       -3.334389   -0.677955    1.293494
     12          1           0       -2.624839   -1.895888    0.210445
     13          1           0       -4.119658   -1.047820   -0.263610
     14          8           0       -0.583594   -0.466858    1.274929
     15          1           0        3.692402   -1.407551   -0.205557
     16          1           0        1.665175    0.776685    1.518531
     17          1           0        2.368887    1.801591    0.281619
 ---------------------------------------------------------------------

 SCF Done:  E(RHF) =  -818.279464495     A.U. after    2 cycles

 The electronic state is 1-A.
 Alpha  occ. eigenvalues --  -75.69449 -21.12553 -21.06089 -21.05569 -13.14315
 Alpha  occ. eigenvalues --  -13.10918 -13.02747 -11.53111 -11.50765 -11.45041
 Alpha  occ. eigenvalues --  -11.40079 -11.39786  -8.03813  -1.83590  -1.72728
 Alpha  occ. eigenvalues --   -1.65882  -1.24786  -1.19135  -1.03353  -0.95484
 Alpha  occ. eigenvalues --   -0.80267  -0.73258  -0.68077  -0.66884  -0.61650
 Alpha  occ. eigenvalues --   -0.60729  -0.59337  -0.56866  -0.54966  -0.54352
 Alpha  occ. eigenvalues --   -0.49345  -0.46895  -0.46300  -0.44916  -0.40280
 Alpha  occ. eigenvalues --   -0.34256  -0.30503  -0.26902  -0.24615
 Alpha virt. eigenvalues --    0.03323   0.03954   0.05128   0.05526   0.05871
 Alpha virt. eigenvalues --    0.06651   0.06836   0.07380   0.09807   0.10656
 Alpha virt. eigenvalues --    0.11775   0.12586   0.12803   0.13203   0.13368

 Mulliken charges:
               1
     1  O   -3.023290
     2  C    5.770719
     3  O   -3.103494
     4  C   -3.652069
     5  C   -3.441763
     6  C    3.543396
     7  H    1.664968
     8  H    1.323148
     9  S    1.197534
    10  C   -5.006200
    11  H    1.459276
    12  H    1.498393
    13  H    1.290151
    14  O   -3.304525
    15  H    0.914180
    16  H    1.518514
    17  H    1.351062
 Sum of Mulliken charges =  -0.00000

 Dipole moment (field-independent basis, Debye):
    X=             -0.2327    Y=              0.8460    Z=             -0.5251  Tot=              1.0225

 Test job not archived.
 1\1\GINC-SE128\SP\RHF\Aug-CC-pVDZ\C5H8O3S1\OHZDE\09-Apr-2025\0\\#t hf
 aug-cc-pvdz iop(5/13=1,5/36=2,99/5=2) pseudo=read geom=check guess=(re
 ad,tcheck) scf=(maxcycle=1)\\title\\0,1\O,0,1.721031,-0.796577,-1.1844
 7\C,0,2.226198,-0.23607,-0.250395\O,0,3.394365,-0.630293,0.287484\C,0,
 1.671852,0.976218,0.44626\C,0,0.283448,1.331805,-0.053713\C,0,-0.74352
 6,0.296641,0.359179\H,0,0.269978,1.441116,-1.138981\H,0,-0.034891,2.28
 7269,0.372905\S,0,-2.235112,0.336709,-0.601925\C,0,-3.167186,-0.954423
 ,0.255071\H,0,-3.334389,-0.677955,1.293494\H,0,-2.624839,-1.895888,0.2

 Normal termination of Gaussian 16 at Wed Apr  9 01:04:16 2025.
