 Gaussian 16, Revision C.01,

 ----------------------------------------------------------------------
 #t hf aug-cc-pvdz symm=none int=(grid=ultrafine) guess=(read,tcheck) s
 table=(opt,rrhf)
 ----------------------------------------------------------------------
 -----
 title
 -----
 Symbolic Z-matrix:
 Charge =  0 Multiplicity = 1

 SCF Done:  E(RHF) =  -678.961083227     A.U. after   15 cycles
 Normal termination of Gaussian 16 at Wed Apr  9 01:26:25 2025.
 Gaussian 16:  ES64L-G16RevC.01  3-Jul-2019

 ----------------------------------------------------------------------
 #t hf aug-cc-pvdz iop(5/13=1,5/36=2,99/5=2) pseudo=read geom=check gue
 ss=(read,tcheck) scf=(maxcycle=1)
 ----------------------------------------------------------------------
 -----
 title
 -----
 Structure from the checkpoint file:  "BH10_284_forward_mol1.chk"
 Charge =  0 Multiplicity = 1

                         Standard orientation:
 ---------------------------------------------------------------------
 Center     Atomic      Atomic             Coordinates (Angstroms)
 Number     Number       Type             X           Y           Z
 ---------------------------------------------------------------------
      1          6           0       -0.569558   -0.961519    0.916453
      2          1           0        0.195540   -1.499377    1.489716
      3          5           0        0.032560   -0.063096   -0.236416
      4          6           0       -1.326339   -0.058512    1.908381
      5          1           0       -0.580697    0.549949    2.432772
      6          1           0       -1.817390   -0.667348    2.676227
      7          6           0       -1.445844   -2.025285    0.213301
      8          1           0       -0.774874   -2.700462   -0.330927
      9          6           0        1.537714    3.462684   -0.063551
     10          1           0        1.624711    3.705414    0.989806
     11          1           0        1.446427    4.288715   -0.756398
     12          6           0        1.541232    2.204636   -0.493626
     13          6           0        1.683992    1.035997    0.378368
     14          1           0        1.451011    2.004329   -1.555358
     15          1           0       -1.960819   -2.643092    0.957879
     16          1           0        2.024649    1.226121    1.390766
     17          6           0        1.977113   -0.224357   -0.127393
     18          8           0        1.171341   -0.679548   -1.050102
     19          8           0        2.831962   -1.036402    0.455054
     20          6           0        2.786305   -2.429035    0.098079
     21          1           0        1.785853   -2.828360    0.254856
     22          1           0        3.076716   -2.560455   -0.942749
     23          1           0        3.501085   -2.913993    0.756507
     24          6           0       -2.475532   -1.465694   -0.781617
     25          1           0       -2.845729   -2.287225   -1.402493
     26          1           0       -3.346364   -1.096596   -0.240951
     27          6           0       -1.091532    0.733077   -0.993187
     28          1           0       -0.704726    1.390320   -1.775719
     29          6           0       -1.930875   -0.360609   -1.699851
     30          1           0       -1.297440   -0.821568   -2.466229
     31          1           0       -2.765814    0.104582   -2.235712
     32          6           0       -1.876017    1.601858    0.007688
     33          1           0       -2.735150    2.064408   -0.491544
     34          1           0       -1.220030    2.425042    0.306837
     35          6           0       -2.363369    0.878845    1.273138
     36          1           0       -2.656414    1.629554    2.013467
     37          1           0       -3.273506    0.320614    1.054623
 ---------------------------------------------------------------------

 SCF Done:  E(RHF) =  -682.235419053     A.U. after    2 cycles

 The electronic state is 1-A.
 Alpha  occ. eigenvalues --  -21.11849 -21.07197 -11.57644 -11.46374 -11.45247
 Alpha  occ. eigenvalues --  -11.44024 -11.42924 -11.42122 -11.40439 -11.40005
 Alpha  occ. eigenvalues --  -11.38213 -11.37209 -11.36075 -11.34555 -11.33830
 Alpha  occ. eigenvalues --   -7.61989  -1.90821  -1.76005  -1.32520  -1.22651
 Alpha  occ. eigenvalues --   -1.16139  -1.14963  -1.08454  -1.02567  -0.99971
 Alpha  occ. eigenvalues --   -0.96861  -0.83702  -0.82467  -0.81576  -0.80961
 Alpha  occ. eigenvalues --   -0.76074  -0.71505  -0.68256  -0.67562  -0.64331
 Alpha  occ. eigenvalues --   -0.63945  -0.60817  -0.59952  -0.59805  -0.58543
 Alpha  occ. eigenvalues --   -0.57529  -0.57218  -0.55149  -0.53304  -0.51610
 Alpha  occ. eigenvalues --   -0.50207  -0.48924  -0.46810  -0.46053  -0.44263
 Alpha  occ. eigenvalues --   -0.43084  -0.42678  -0.41325  -0.41166  -0.39977
 Alpha  occ. eigenvalues --   -0.38193  -0.37883  -0.34282  -0.28610  -0.27013
 Alpha virt. eigenvalues --    0.03664   0.04564   0.04978   0.05053   0.05489
 Alpha virt. eigenvalues --    0.05558   0.06018   0.06248   0.06343   0.06488
 Alpha virt. eigenvalues --    0.06766   0.06825   0.07074   0.07274   0.07568

 Mulliken charges:
               1
     1  C   -5.027178
     2  H    0.765402
     3  B   21.236046
     4  C   -4.474101
     5  H    1.048029
     6  H    1.418617
     7  C   -4.046348
     8  H    0.896916
     9  C   -4.689127
    10  H    1.524938
    11  H    1.422382
    12  C   -0.427553
    13  C   -5.533390
    14  H    1.369160
    15  H    1.394965
    16  H    1.333886
    17  C    8.509850
    18  O   -4.571604
    19  O   -4.477924
    20  C   -4.113076
    21  H    1.701907
    22  H    1.358796
    23  H    1.345143
    24  C   -2.685165
    25  H    1.259945
    26  H    1.458515
    27  C   -4.556255
    28  H    0.558003
    29  C   -4.162746
    30  H    0.934381
    31  H    1.309884
    32  C   -4.292195
    33  H    1.396516
    34  H    1.351234
    35  C   -3.222403
    36  H    1.228352
    37  H    1.456198
 Sum of Mulliken charges =   0.00000

 Dipole moment (field-independent basis, Debye):
    X=              1.8625    Y=             -2.2385    Z=             -0.1381  Tot=              2.9153

 Test job not archived.
 1\1\GINC-SE125\SP\RHF\Aug-CC-pVDZ\C13H21B1O2\OHZDE\09-Apr-2025\0\\#t h
 f aug-cc-pvdz iop(5/13=1,5/36=2,99/5=2) pseudo=read geom=check guess=(
 read,tcheck) scf=(maxcycle=1)\\title\\0,1\C,0,-0.569558,-0.961519,0.91
 6453\H,0,0.19554,-1.499377,1.489716\B,0,0.03256,-0.063096,-0.236416\C,
 0,-1.326339,-0.058512,1.908381\H,0,-0.580697,0.549949,2.432772\H,0,-1.
 81739,-0.667349,2.676227\C,0,-1.445843,-2.025285,0.213301\H,0,-0.77487
 3,-2.700462,-0.330927\C,0,1.537713,3.462684,-0.063551\H,0,1.62471,3.70
 5414,0.989806\H,0,1.446426,4.288715,-0.756398\C,0,1.541231,2.204636,-0

 Normal termination of Gaussian 16 at Wed Apr  9 01:27:30 2025.
