 Gaussian 16, Revision C.01,

 ----------------------------------------------------------------------
 #t hf aug-cc-pvdz symm=none int=(grid=ultrafine) guess=(read,tcheck) s
 table=(opt,rrhf)
 ----------------------------------------------------------------------
 -----
 title
 -----
 Symbolic Z-matrix:
 Charge =  0 Multiplicity = 1

 SCF Done:  E(RHF) =  -725.808501210     A.U. after   14 cycles
 Normal termination of Gaussian 16 at Wed Apr  9 01:37:57 2025.
 Gaussian 16:  ES64L-G16RevC.01  3-Jul-2019

 ----------------------------------------------------------------------
 #t hf aug-cc-pvdz iop(5/13=1,5/36=2,99/5=2) pseudo=read geom=check gue
 ss=(read,tcheck) scf=(maxcycle=1)
 ----------------------------------------------------------------------
 -----
 title
 -----
 Structure from the checkpoint file:  "BH10_322_forward_mol2.chk"
 Charge =  0 Multiplicity = 1

                         Standard orientation:
 ---------------------------------------------------------------------
 Center     Atomic      Atomic             Coordinates (Angstroms)
 Number     Number       Type             X           Y           Z
 ---------------------------------------------------------------------
      1          6           0        1.053369    0.025774   -0.018733
      2          8           0        1.602967    0.671159   -0.865082
      3          8           0        1.605813   -1.041886    0.574795
      4          6           0       -0.334709    0.308851    0.524242
      5          6           0       -0.771111    1.732747    0.277637
      6          1           0       -0.100040    2.416920    0.801536
      7          1           0       -1.784703    1.883743    0.646979
      8          1           0       -0.734226    1.965857   -0.785285
      9         17           0       -1.461431   -0.856054   -0.281308
     10          1           0        2.467970   -1.196514    0.163433
     11          1           0       -0.360202    0.044498    1.578997
 ---------------------------------------------------------------------

 SCF Done:  E(RHF) =  -727.217406718     A.U. after    2 cycles

 The electronic state is 1-A.
 Alpha  occ. eigenvalues --  -99.89281 -21.13724 -21.06980 -11.54386 -11.47569
 Alpha  occ. eigenvalues --  -11.39393 -10.46570  -9.66516  -9.65768  -9.65667
 Alpha  occ. eigenvalues --   -1.84852  -1.67305  -1.35706  -1.15279  -0.98006
 Alpha  occ. eigenvalues --   -0.80156  -0.70617  -0.66622  -0.63249  -0.59196
 Alpha  occ. eigenvalues --   -0.55293  -0.54180  -0.51718  -0.51173  -0.47964
 Alpha  occ. eigenvalues --   -0.45917  -0.35376  -0.31518
 Alpha virt. eigenvalues --    0.03316   0.05273   0.05671   0.06203   0.06649
 Alpha virt. eigenvalues --    0.07518   0.10125   0.11152   0.11788   0.12310
 Alpha virt. eigenvalues --    0.13471   0.14747   0.16033   0.16103   0.16284

 Mulliken charges:
               1
     1  C    6.184121
     2  O   -2.955700
     3  O   -2.906755
     4  C   -3.815486
     5  C   -2.962318
     6  H    1.206773
     7  H    1.183832
     8  H    1.334560
     9  Cl   0.139371
    10  H    0.860115
    11  H    1.731485
 Sum of Mulliken charges =  -0.00000

 Dipole moment (field-independent basis, Debye):
    X=              1.1026    Y=              0.7980    Z=              1.5392  Tot=              2.0546

 Test job not archived.
 1\1\GINC-SE364\SP\RHF\Aug-CC-pVDZ\C3H5Cl1O2\OHZDE\09-Apr-2025\0\\#t hf
  aug-cc-pvdz iop(5/13=1,5/36=2,99/5=2) pseudo=read geom=check guess=(r
 ead,tcheck) scf=(maxcycle=1)\\title\\0,1\C,0,1.053369,0.025775,-0.0187
 33\O,0,1.602966,0.67116,-0.865082\O,0,1.605813,-1.041885,0.574795\C,0,
 -0.334709,0.308851,0.524242\C,0,-0.771112,1.732747,0.277637\H,0,-0.100
 041,2.41692,0.801536\H,0,-1.784704,1.883742,0.646979\H,0,-0.734227,1.9
 65857,-0.785285\Cl,0,-1.461431,-0.856055,-0.281308\H,0,2.46797,-1.1965
 13,0.163433\H,0,-0.360202,0.044498,1.578997\\Version=ES64L-G16RevC.01\

 Normal termination of Gaussian 16 at Wed Apr  9 01:38:01 2025.
