 Gaussian 16, Revision C.01,

 ----------------------------------------------------------------------
 #t hf aug-cc-pvdz symm=none int=(grid=ultrafine) guess=(read,tcheck) s
 table=(opt,rrhf)
 ----------------------------------------------------------------------
 -----
 title
 -----
 Symbolic Z-matrix:
 Charge =  0 Multiplicity = 1

 SCF Done:  E(RHF) =  -812.385291541     A.U. after   14 cycles
 Normal termination of Gaussian 16 at Wed Apr  9 00:58:50 2025.
 Gaussian 16:  ES64L-G16RevC.01  3-Jul-2019

 ----------------------------------------------------------------------
 #t hf aug-cc-pvdz iop(5/13=1,5/36=2,99/5=2) pseudo=read geom=check gue
 ss=(read,tcheck) scf=(maxcycle=1)
 ----------------------------------------------------------------------
 -----
 title
 -----
 Structure from the checkpoint file:  "BH10_150_forward_mol2.chk"
 Charge =  0 Multiplicity = 1

                         Standard orientation:
 ---------------------------------------------------------------------
 Center     Atomic      Atomic             Coordinates (Angstroms)
 Number     Number       Type             X           Y           Z
 ---------------------------------------------------------------------
      1          7           0       -0.612510   -1.091392   -0.278201
      2          1           0        0.070365   -1.526045   -0.885966
      3          6           0       -0.119102   -0.061500    0.622144
      4          6           0        1.321082   -0.350353    1.026578
      5          6           0       -0.271810    1.350155    0.021785
      6          1           0        1.704782    0.478589    1.616100
      7          1           0        1.349782   -1.252727    1.636938
      8         16           0        2.460863   -0.669419   -0.362623
      9          8           0        0.690024    2.058273   -0.211576
     10          1           0        2.399056    0.576563   -0.863686
     11          7           0       -1.548618    1.721134   -0.195862
     12          1           0       -1.719787    2.625014   -0.606549
     13          1           0       -2.316550    1.093232    0.012961
     14          6           0       -1.912179   -1.420669   -0.383091
     15          1           0       -2.094660   -2.256080   -1.075738
     16          8           0       -2.815189   -0.863977    0.216998
     17          1           0       -0.745523   -0.096202    1.518468
 ---------------------------------------------------------------------

 SCF Done:  E(RHF) =  -814.449555748     A.U. after    2 cycles

 The electronic state is 1-A.
 Alpha  occ. eigenvalues --  -75.68996 -21.04885 -21.03251 -15.78748 -15.77448
 Alpha  occ. eigenvalues --  -13.14424 -13.10910 -13.05910 -11.52685 -11.50380
 Alpha  occ. eigenvalues --  -11.47319 -11.42209  -8.02959  -1.73418  -1.71227
 Alpha  occ. eigenvalues --   -1.44018  -1.34385  -1.21628  -1.08125  -0.93163
 Alpha  occ. eigenvalues --   -0.87769  -0.79658  -0.74921  -0.73068  -0.67180
 Alpha  occ. eigenvalues --   -0.65153  -0.57961  -0.56491  -0.53255  -0.53081
 Alpha  occ. eigenvalues --   -0.51119  -0.49020  -0.48022  -0.39862  -0.35198
 Alpha  occ. eigenvalues --   -0.32617  -0.32064  -0.28564  -0.24930
 Alpha virt. eigenvalues --    0.03318   0.04283   0.05053   0.05481   0.05666
 Alpha virt. eigenvalues --    0.06623   0.07565   0.07951   0.09601   0.10512
 Alpha virt. eigenvalues --    0.11699   0.12023   0.12695   0.12985   0.13635

 Mulliken charges:
               1
     1  N   -2.558544
     2  H    0.715305
     3  C   -1.165946
     4  C   -3.782124
     5  C    5.062391
     6  H    1.236027
     7  H    1.343999
     8  S   -0.684799
     9  O   -3.146465
    10  H    1.101795
    11  N   -2.957371
    12  H    0.749214
    13  H    0.832103
    14  C    2.298126
    15  H    1.765612
    16  O   -2.811198
    17  H    2.001875
 Sum of Mulliken charges =   0.00000

 Dipole moment (field-independent basis, Debye):
    X=              0.4095    Y=             -1.7975    Z=             -0.1984  Tot=              1.8542

 Test job not archived.
 1\1\GINC-SE186\SP\RHF\Aug-CC-pVDZ\C4H8N2O2S1\OHZDE\09-Apr-2025\0\\#t h
 f aug-cc-pvdz iop(5/13=1,5/36=2,99/5=2) pseudo=read geom=check guess=(
 read,tcheck) scf=(maxcycle=1)\\title\\0,1\N,0,-0.61251,-1.091392,-0.27
 8201\H,0,0.070365,-1.526045,-0.885966\C,0,-0.119102,-0.0615,0.622144\C
 ,0,1.321082,-0.350353,1.026578\C,0,-0.27181,1.350155,0.021785\H,0,1.70
 4782,0.478589,1.6161\H,0,1.349782,-1.252727,1.636938\S,0,2.460863,-0.6
 69419,-0.362623\O,0,0.690024,2.058273,-0.211576\H,0,2.399056,0.576563,
 -0.863686\N,0,-1.548618,1.721134,-0.195862\H,0,-1.719787,2.625014,-0.6

 Normal termination of Gaussian 16 at Wed Apr  9 00:58:59 2025.
