 Gaussian 16, Revision C.01,

 ----------------------------------------------------------------------
 #t hf aug-cc-pvdz symm=none int=(grid=ultrafine) guess=(read,tcheck) s
 table=(opt,rrhf)
 ----------------------------------------------------------------------
 -----
 title
 -----
 Symbolic Z-matrix:
 Charge = -1 Multiplicity = 1

 SCF Done:  E(RHF) =  -1778.61892089     A.U. after   20 cycles
 Normal termination of Gaussian 16 at Wed Apr  9 03:00:00 2025.
 Gaussian 16:  ES64L-G16RevC.01  3-Jul-2019

 ----------------------------------------------------------------------
 #t hf aug-cc-pvdz iop(5/13=1,5/36=2,99/5=2) pseudo=read geom=check gue
 ss=(read,tcheck) scf=(maxcycle=1)
 ----------------------------------------------------------------------
 -----
 title
 -----
 Structure from the checkpoint file:  "BH10_247_forward_mol1.chk"
 Charge = -1 Multiplicity = 1

                         Standard orientation:
 ---------------------------------------------------------------------
 Center     Atomic      Atomic             Coordinates (Angstroms)
 Number     Number       Type             X           Y           Z
 ---------------------------------------------------------------------
      1          7           0        2.714883    2.722776    0.357931
      2          6           0        3.906123    3.108973   -0.171150
      3          7           0        4.840782    2.100149   -0.453271
      4          6           0        4.681867    0.740243   -0.261896
      5          6           0        3.420669    0.399118    0.351707
      6          6           0        2.499424    1.439428    0.579116
      7          7           0        1.262119    1.088106    1.106117
      8          7           0        3.157286   -0.925291    0.582184
      9          6           0        1.971927   -1.214060    1.209235
     10          6           0        0.996419   -0.219620    1.461629
     11          6           0       -0.217473   -0.593581    2.040848
     12          6           0        1.677198   -2.554136    1.496768
     13          6           0        0.458594   -2.914159    2.029274
     14          6           0       -0.489504   -1.927095    2.289163
     15          1           0       -1.458234   -2.200468    2.688983
     16          1           0       -0.981204    0.145748    2.222812
     17          1           0        2.443305   -3.288138    1.280585
     18          1           0        0.231995   -3.954425    2.226544
     19          8           0        4.211273    4.266664   -0.417387
     20          8           0        5.539655   -0.056709   -0.626209
     21          6           0        3.658298   -2.624751   -2.362280
     22          6           0        2.527826   -1.813727   -1.766953
     23          1           0        4.618050   -2.147964   -2.158531
     24          1           0        3.541610   -2.725363   -3.446354
     25          1           0        3.678752   -3.631035   -1.935216
     26          6           0        1.261840   -2.402466   -1.552606
     27          1           0        2.501483   -0.769369   -2.095494
     28          6           0        0.117469   -1.667561   -1.258010
     29          1           0        1.196354   -3.487957   -1.517193
     30          6           0       -1.115760   -2.176874   -0.900510
     31          1           0        0.195761   -0.583766   -1.292719
     32          6           0       -2.165457   -1.308299   -0.514624
     33          1           0       -1.288256   -3.245724   -0.862065
     34          8           0       -2.144080   -0.084921   -0.447223
     35         16           0       -3.701756   -2.191856   -0.030795
     36          6           0       -4.732393   -0.752655    0.342897
     37          6           0       -5.258984   -0.063215   -0.913406
     38          1           0       -4.133445   -0.054060    0.926157
     39          1           0       -5.555620   -1.108712    0.964976
     40          7           0       -6.038157    1.125131   -0.615350
     41          1           0       -5.883668   -0.754638   -1.482552
     42          1           0       -4.418758    0.206878   -1.549101
     43          6           0       -5.568777    2.394890   -0.441025
     44          8           0       -6.306698    3.277739   -0.033763
     45          6           0       -4.129770    2.653681   -0.813744
     46          1           0       -4.025839    2.642659   -1.902039
     47          1           0       -3.443395    1.902254   -0.421156
     48          1           0       -3.860751    3.641941   -0.449387
     49          1           0       -6.993987    1.008140   -0.311768
     50          1           0        2.992389   -1.524124   -0.576576
     51          1           0        5.701845    2.400566   -0.886358
     52          6           0        0.218902    2.091488    1.250240
     53          1           0        0.596729    3.017631    0.830718
     54          1           0       -0.020982    2.247660    2.305529
     55          1           0       -0.676252    1.759949    0.718257
 ---------------------------------------------------------------------

 SCF Done:  E(RHF) =  -1785.25669887     A.U. after    2 cycles

 The electronic state is 1-A.
 Alpha  occ. eigenvalues --  -75.60183 -20.94137 -20.93820 -20.90811 -20.89301
 Alpha  occ. eigenvalues --  -15.68133 -15.67914 -15.67250 -15.65795 -15.58863
 Alpha  occ. eigenvalues --  -13.07197 -13.03372 -12.96733 -11.48495 -11.43952
 Alpha  occ. eigenvalues --  -11.43138 -11.42561 -11.42075 -11.40257 -11.38803
 Alpha  occ. eigenvalues --  -11.38604 -11.38461 -11.37611 -11.36097 -11.34760
 Alpha  occ. eigenvalues --  -11.33499 -11.32682 -11.32261 -11.31227 -11.30571
 Alpha  occ. eigenvalues --  -11.30182 -11.29861 -11.29237 -11.28222  -7.94366
 Alpha  occ. eigenvalues --   -1.62536  -1.61085  -1.60461  -1.58032  -1.46490
 Alpha  occ. eigenvalues --   -1.32889  -1.31933  -1.30202  -1.22022  -1.17766
 Alpha  occ. eigenvalues --   -1.17338  -1.13367  -1.05987  -1.02787  -1.01660
 Alpha  occ. eigenvalues --   -1.01327  -0.97521  -0.96984  -0.91606  -0.88688
 Alpha  occ. eigenvalues --   -0.83380  -0.82899  -0.79056  -0.77344  -0.74412
 Alpha  occ. eigenvalues --   -0.71965  -0.71880  -0.70692  -0.64546  -0.63700
 Alpha  occ. eigenvalues --   -0.61162  -0.60394  -0.59443  -0.58186  -0.56765
 Alpha  occ. eigenvalues --   -0.56619  -0.55621  -0.54970  -0.53673  -0.53057
 Alpha  occ. eigenvalues --   -0.52659  -0.50743  -0.50452  -0.49999  -0.48321
 Alpha  occ. eigenvalues --   -0.48159  -0.47270  -0.46764  -0.46570  -0.45891
 Alpha  occ. eigenvalues --   -0.44803  -0.44597  -0.43134  -0.43039  -0.41856
 Alpha  occ. eigenvalues --   -0.40973  -0.40378  -0.39835  -0.39383  -0.39115
 Alpha  occ. eigenvalues --   -0.38478  -0.37827  -0.37287  -0.36901  -0.36248
 Alpha  occ. eigenvalues --   -0.35887  -0.32778  -0.31800  -0.30509  -0.29389
 Alpha  occ. eigenvalues --   -0.25990  -0.23083  -0.22648  -0.20733  -0.20031
 Alpha  occ. eigenvalues --   -0.19600  -0.19485  -0.17076  -0.16671  -0.15750
 Alpha  occ. eigenvalues --   -0.15545  -0.09037
 Alpha virt. eigenvalues --    0.09552   0.09991   0.10506   0.10769   0.10963
 Alpha virt. eigenvalues --    0.11729   0.12158   0.12382   0.12688   0.13021
 Alpha virt. eigenvalues --    0.13069   0.13686   0.14070   0.14179   0.14491

 Mulliken charges:
               1
     1  N   -3.809622
     2  C    5.542223
     3  N   -3.266812
     4  C    6.737231
     5  C    4.054432
     6  C    3.163211
     7  N   -5.635125
     8  N   -6.578162
     9  C    3.570815
    10  C   -1.003372
    11  C    0.388157
    12  C   -0.771273
    13  C   -2.330472
    14  C   -2.304983
    15  H    1.703268
    16  H    2.432246
    17  H    1.839318
    18  H    1.775933
    19  O   -3.820650
    20  O   -4.117981
    21  C   -5.868629
    22  C   -3.189996
    23  H    1.217879
    24  H    1.352525
    25  H    1.229921
    26  C   -3.172758
    27  H    1.594526
    28  C    4.236221
    29  H    2.035501
    30  C   -6.332248
    31  H    2.772038
    32  C    5.214586
    33  H    2.074109
    34  O   -4.715633
    35  S    0.138813
    36  C   -4.801338
    37  C   -2.685207
    38  H    2.017651
    39  H    1.580051
    40  N   -2.860287
    41  H    1.497114
    42  H    2.268355
    43  C    4.794145
    44  O   -3.495681
    45  C   -5.031971
    46  H    1.319258
    47  H    2.326887
    48  H    1.167419
    49  H    0.698883
    50  H    3.751593
    51  H    0.762295
    52  C   -5.605937
    53  H    1.417456
    54  H    1.577227
    55  H    2.146851
 Sum of Mulliken charges =  -1.00000

 Dipole moment (field-independent basis, Debye):
    X=             -7.0201    Y=             -7.2058    Z=              1.2027  Tot=             10.1317

 Test job not archived.
 1\1\GINC-SE164\SP\RHF\Aug-CC-pVDZ\C21H24N5O4S1(1-)\OHZDE\09-Apr-2025\0
 \\#t hf aug-cc-pvdz iop(5/13=1,5/36=2,99/5=2) pseudo=read geom=check g
 uess=(read,tcheck) scf=(maxcycle=1)\\title\\-1,1\N,0,2.714883,2.722776
 ,0.357931\C,0,3.906123,3.108973,-0.17115\N,0,4.840782,2.100149,-0.4532
 71\C,0,4.681867,0.740243,-0.261896\C,0,3.420669,0.399118,0.351707\C,0,
 2.499424,1.439428,0.579116\N,0,1.262119,1.088106,1.106117\N,0,3.157286
 ,-0.925291,0.582184\C,0,1.971927,-1.21406,1.209235\C,0,0.996419,-0.219
 62,1.461629\C,0,-0.217473,-0.593581,2.040848\C,0,1.677198,-2.554136,1.

 Normal termination of Gaussian 16 at Wed Apr  9 03:04:29 2025.
