 Gaussian 16, Revision C.01,

 ----------------------------------------------------------------------
 #t hf aug-cc-pvdz symm=none int=(grid=ultrafine) guess=(read,tcheck) s
 table=(opt,rrhf)
 ----------------------------------------------------------------------
 -----
 title
 -----
 Symbolic Z-matrix:
 Charge =  0 Multiplicity = 1

 SCF Done:  E(RHF) =  -1444.42580367     A.U. after   17 cycles
 Normal termination of Gaussian 16 at Wed Apr  9 03:13:08 2025.
 Gaussian 16:  ES64L-G16RevC.01  3-Jul-2019

 ----------------------------------------------------------------------
 #t hf aug-cc-pvdz iop(5/13=1,5/36=2,99/5=2) pseudo=read geom=check gue
 ss=(read,tcheck) scf=(maxcycle=1)
 ----------------------------------------------------------------------
 -----
 title
 -----
 Structure from the checkpoint file:  "BH10_377_reverse_mol2.chk"
 Charge =  0 Multiplicity = 1

                         Standard orientation:
 ---------------------------------------------------------------------
 Center     Atomic      Atomic             Coordinates (Angstroms)
 Number     Number       Type             X           Y           Z
 ---------------------------------------------------------------------
      1          6           0       -4.400293   -2.615428   -0.047319
      2          6           0       -3.350074   -1.870261    0.466791
      3          6           0       -3.399088   -0.479336    0.445129
      4          6           0       -4.516132    0.150996   -0.091417
      5          6           0       -5.567582   -0.593944   -0.607373
      6          6           0       -5.510778   -1.979886   -0.587422
      7          1           0       -4.353449   -3.697356   -0.022093
      8          1           0       -2.492793   -2.374123    0.896919
      9          1           0       -4.565580    1.234406   -0.103893
     10          1           0       -6.433566   -0.090451   -1.019784
     11          1           0       -6.331133   -2.563954   -0.986283
     12          6           0       -2.236956    0.345591    0.935569
     13          6           0       -1.038469    0.347964   -0.047809
     14          6           0       -1.025559    2.338496   -1.431270
     15          6           0       -0.056972    2.438301    0.791214
     16          6           0       -0.104474    3.445859   -1.926374
     17          1           0       -1.983490    2.780908   -1.102693
     18          1           0       -1.253599    1.642968   -2.242001
     19          6           0        0.906606    3.538459    0.367066
     20          1           0       -0.961391    2.900465    1.223294
     21          1           0        0.393077    1.824233    1.571074
     22          6           0        0.318193    4.358543   -0.777801
     23          1           0       -0.610606    4.017255   -2.708563
     24          1           0        0.780490    2.986381   -2.376710
     25          1           0        1.129383    4.175670    1.226173
     26          1           0        1.846911    3.078057    0.048747
     27          1           0        1.036706    5.103994   -1.126261
     28          1           0       -0.556369    4.910253   -0.413136
     29          7           0       -0.390123    1.594487   -0.351624
     30          7           0       -0.149614   -0.542403    0.704740
     31          7           0       -0.561372   -0.687193    2.007479
     32          7           0       -1.685763   -0.213173    2.193479
     33          6           0        1.183622   -0.773412    0.368152
     34          6           0        1.486349   -1.331659   -0.869619
     35          6           0        2.252501   -0.439688    1.194905
     36          6           0        2.787874   -1.552792   -1.273557
     37          6           0        3.560151   -0.685165    0.815342
     38          6           0        3.832070   -1.237412   -0.422590
     39          9           0        0.494844   -1.661929   -1.699747
     40          9           0        3.039291   -2.084540   -2.466425
     41          9           0        5.087764   -1.460055   -0.794688
     42          9           0        4.561168   -0.359256    1.628025
     43          9           0        2.043142    0.158702    2.365359
     44          1           0       -2.579138    1.358970    1.145516
     45          1           0       -1.319175   -0.117357   -0.991246
 ---------------------------------------------------------------------

 SCF Done:  E(RHF) =  -1450.58997664     A.U. after    2 cycles

 The electronic state is 1-A.
 Alpha  occ. eigenvalues --  -29.32524 -29.32348 -29.32224 -29.32175 -29.31814
 Alpha  occ. eigenvalues --  -15.83525 -15.78014 -15.77861 -15.72014 -11.62237
 Alpha  occ. eigenvalues --  -11.57608 -11.55580 -11.54619 -11.53160 -11.52198
 Alpha  occ. eigenvalues --  -11.52056 -11.47531 -11.46974 -11.46464 -11.45014
 Alpha  occ. eigenvalues --  -11.44600 -11.44543 -11.42502 -11.41847 -11.41561
 Alpha  occ. eigenvalues --  -11.38971 -11.37311 -11.36084  -1.69239  -1.49517
 Alpha  occ. eigenvalues --   -1.47145  -1.37881  -1.35145  -1.29204  -1.25062
 Alpha  occ. eigenvalues --   -1.22137  -1.17443  -1.14011  -1.10249  -1.09524
 Alpha  occ. eigenvalues --   -1.08193  -1.05451  -0.96616  -0.92059  -0.91758
 Alpha  occ. eigenvalues --   -0.90498  -0.89535  -0.87336  -0.84537  -0.80797
 Alpha  occ. eigenvalues --   -0.79549  -0.77215  -0.76139  -0.74886  -0.72982
 Alpha  occ. eigenvalues --   -0.70925  -0.68283  -0.67381  -0.66523  -0.65380
 Alpha  occ. eigenvalues --   -0.64341  -0.63297  -0.62840  -0.61700  -0.59253
 Alpha  occ. eigenvalues --   -0.58749  -0.57966  -0.56849  -0.56374  -0.55648
 Alpha  occ. eigenvalues --   -0.54295  -0.53893  -0.52542  -0.51370  -0.50305
 Alpha  occ. eigenvalues --   -0.48690  -0.47919  -0.46829  -0.45174  -0.44889
 Alpha  occ. eigenvalues --   -0.44438  -0.43762  -0.42897  -0.42781  -0.42501
 Alpha  occ. eigenvalues --   -0.42150  -0.41204  -0.39905  -0.38367  -0.38175
 Alpha  occ. eigenvalues --   -0.35276  -0.34877  -0.33790  -0.31901  -0.31282
 Alpha  occ. eigenvalues --   -0.30939  -0.30083  -0.29212  -0.29030  -0.27543
 Alpha  occ. eigenvalues --   -0.21512  -0.18820
 Alpha virt. eigenvalues --    0.03455   0.04388   0.04480   0.04578   0.05147
 Alpha virt. eigenvalues --    0.05390   0.05556   0.05834   0.06413   0.06839
 Alpha virt. eigenvalues --    0.07057   0.07638   0.08449   0.08781   0.08950

 Mulliken charges:
               1
     1  C   -2.556189
     2  C   -2.614457
     3  C    8.538056
     4  C   -3.351686
     5  C   -2.174420
     6  C   -3.378848
     7  H    1.548705
     8  H    2.073364
     9  H    1.878591
    10  H    1.540623
    11  H    1.592314
    12  C   -3.738223
    13  C    3.222951
    14  C   -3.741634
    15  C   -4.121751
    16  C   -3.374240
    17  H    1.552867
    18  H    1.749891
    19  C   -3.229652
    20  H    1.435563
    21  H    2.037097
    22  C   -2.886326
    23  H    1.317196
    24  H    1.314736
    25  H    1.382889
    26  H    1.444879
    27  H    1.420752
    28  H    1.329400
    29  N   -0.927789
    30  N   -3.303976
    31  N   -1.002316
    32  N   -1.305850
    33  C   -7.651637
    34  C    1.896839
    35  C    2.122933
    36  C    0.032992
    37  C   -0.187544
    38  C    1.308009
    39  F    0.846407
    40  F    0.969555
    41  F    1.017291
    42  F    0.933241
    43  F    0.902828
    44  H    1.424658
    45  H    2.711909
 Sum of Mulliken charges =   0.00000

 Dipole moment (field-independent basis, Debye):
    X=              1.7267    Y=              1.3274    Z=             -3.0852  Tot=              3.7765

 Test job not archived.
 1\1\GINC-SE141\SP\RHF\Aug-CC-pVDZ\C19H17F5N4\OHZDE\09-Apr-2025\0\\#t h
 f aug-cc-pvdz iop(5/13=1,5/36=2,99/5=2) pseudo=read geom=check guess=(
 read,tcheck) scf=(maxcycle=1)\\title\\0,1\C,0,-4.400293,-2.615428,-0.0
 47319\C,0,-3.350074,-1.870261,0.466791\C,0,-3.399088,-0.479336,0.44512
 9\C,0,-4.516132,0.150996,-0.091417\C,0,-5.567582,-0.593944,-0.607373\C
 ,0,-5.510778,-1.979886,-0.587422\H,0,-4.353449,-3.697356,-0.022093\H,0
 ,-2.492793,-2.374123,0.896919\H,0,-4.56558,1.234406,-0.103893\H,0,-6.4
 33566,-0.090451,-1.019784\H,0,-6.331133,-2.563954,-0.986283\C,0,-2.236

 Normal termination of Gaussian 16 at Wed Apr  9 03:15:54 2025.
