 Gaussian 16, Revision C.01,

 ----------------------------------------------------------------------
 #t hf aug-cc-pvdz symm=none int=(grid=ultrafine) guess=(read,tcheck) s
 table=(opt,rrhf)
 ----------------------------------------------------------------------
 -----
 title
 -----
 Symbolic Z-matrix:
 Charge = -1 Multiplicity = 1

 SCF Done:  E(RHF) =  -2156.63189468     A.U. after   15 cycles
 Normal termination of Gaussian 16 at Wed Apr  9 02:15:04 2025.
 Gaussian 16:  ES64L-G16RevC.01  3-Jul-2019

 ----------------------------------------------------------------------
 #t hf aug-cc-pvdz iop(5/13=1,5/36=2,99/5=2) pseudo=read geom=check gue
 ss=(read,tcheck) scf=(maxcycle=1)
 ----------------------------------------------------------------------
 -----
 title
 -----
 Structure from the checkpoint file:  "BH10_327_forward_mol1.chk"
 Charge = -1 Multiplicity = 1

                         Standard orientation:
 ---------------------------------------------------------------------
 Center     Atomic      Atomic             Coordinates (Angstroms)
 Number     Number       Type             X           Y           Z
 ---------------------------------------------------------------------
      1         16           0        1.935179    1.744099   -1.726279
      2          6           0        0.412093    2.700630   -1.393279
      3         16           0        0.791111   -0.340574   -1.512202
      4          6           0        1.628290   -0.813193    0.043847
      5          6           0        2.758714   -1.829717   -0.127660
      6          1           0        0.870303   -1.223736    0.708328
      7          1           0        2.034461    0.095376    0.482803
      8          6           0       -0.088861    2.640884    0.060191
      9          1           0       -0.382115    2.299882   -2.022909
     10          1           0        0.574852    3.738221   -1.691233
     11          7           0        2.281407   -3.065859   -0.714267
     12          6           0        3.420088   -2.024745    1.227667
     13          1           0        3.531523   -1.396099   -0.766364
     14          8           0        4.549633   -1.715705    1.509033
     15          8           0        2.603805   -2.609743    2.131547
     16          7           0       -1.443137    3.163251    0.146566
     17          6           0        0.812103    3.388541    1.041642
     18          1           0       -0.040929    1.587816    0.366617
     19          8           0        0.379600    4.123059    1.894231
     20          8           0        2.119508    3.156668    0.939741
     21         16           0       -0.931264   -2.144426   -1.169906
     22          6           0       -1.972877   -0.917718   -0.315059
     23          6           0       -3.396971   -1.399525   -0.114601
     24          1           0       -1.988922   -0.006057   -0.911156
     25          1           0       -1.548224   -0.668624    0.661482
     26          7           0       -3.435441   -2.539114    0.798265
     27          6           0       -4.266798   -0.289673    0.436952
     28          1           0       -3.814985   -1.636822   -1.106324
     29          8           0       -3.973758    0.871119    0.549803
     30          8           0       -5.499227   -0.736148    0.774100
     31          1           0        2.310635    2.596413    0.141876
     32          1           0        3.101398   -2.670252    2.957853
     33          1           0       -5.986043    0.026484    1.114889
     34          1           0       -2.130295    2.418014    0.127767
     35          1           0       -1.548824    3.679353    1.012661
     36          1           0        1.344287   -3.300330   -0.405196
     37          1           0        2.911522   -3.842200   -0.567818
     38          1           0       -4.333816   -3.004589    0.768123
     39          1           0       -2.716232   -3.193283    0.503003
 ---------------------------------------------------------------------

 SCF Done:  E(RHF) =  -2161.61809094     A.U. after    2 cycles

 The electronic state is 1-A.
 Alpha  occ. eigenvalues --  -75.60506 -75.54211 -75.50871 -21.04230 -21.03863
 Alpha  occ. eigenvalues --  -20.99052 -20.97146 -20.97019 -20.93387 -15.64112
 Alpha  occ. eigenvalues --  -15.63644 -15.61602 -13.08539 -13.05781 -13.02929
 Alpha  occ. eigenvalues --  -13.00487 -12.98208 -12.97273 -12.96258 -12.92875
 Alpha  occ. eigenvalues --  -12.87545 -11.45191 -11.44688 -11.42055 -11.37843
 Alpha  occ. eigenvalues --  -11.37008 -11.34767 -11.30596 -11.28652 -11.28547
 Alpha  occ. eigenvalues --   -7.93540  -7.87988  -7.84576  -1.75298  -1.74821
 Alpha  occ. eigenvalues --   -1.71105  -1.57399  -1.56937  -1.54017  -1.27400
 Alpha  occ. eigenvalues --   -1.26504  -1.24378  -1.09763  -1.04570  -1.03096
 Alpha  occ. eigenvalues --   -0.94671  -0.91665  -0.89360  -0.80103  -0.78092
 Alpha  occ. eigenvalues --   -0.75873  -0.71220  -0.67975  -0.66258  -0.61465
 Alpha  occ. eigenvalues --   -0.59605  -0.58608  -0.57231  -0.54438  -0.53470
 Alpha  occ. eigenvalues --   -0.53032  -0.52271  -0.50918  -0.50718  -0.50253
 Alpha  occ. eigenvalues --   -0.47378  -0.46809  -0.46088  -0.45369  -0.43544
 Alpha  occ. eigenvalues --   -0.41929  -0.41168  -0.40378  -0.39962  -0.38593
 Alpha  occ. eigenvalues --   -0.37835  -0.37458  -0.33815  -0.31371  -0.30163
 Alpha  occ. eigenvalues --   -0.28890  -0.28049  -0.27269  -0.25934  -0.25701
 Alpha  occ. eigenvalues --   -0.24536  -0.23117  -0.21988  -0.21163  -0.19546
 Alpha  occ. eigenvalues --   -0.18901  -0.13933  -0.10428  -0.09816  -0.06624
 Alpha virt. eigenvalues --    0.10514   0.10935   0.11640   0.12112   0.12827
 Alpha virt. eigenvalues --    0.13261   0.13848   0.14235   0.14697   0.15309
 Alpha virt. eigenvalues --    0.15908   0.16422   0.16672   0.17156   0.17371

 Mulliken charges:
               1
     1  S   -1.399208
     2  C   -4.312185
     3  S   -0.892437
     4  C   -1.048114
     5  C   -4.094686
     6  H    2.347630
     7  H    2.142187
     8  C   -0.088458
     9  H    1.654634
    10  H    1.430844
    11  N   -2.484389
    12  C    7.287711
    13  H    1.685406
    14  O   -3.383707
    15  O   -3.340612
    16  N   -3.131104
    17  C    6.286060
    18  H    2.747880
    19  O   -3.430254
    20  O   -3.445766
    21  S   -0.733494
    22  C   -2.703861
    23  C   -2.959019
    24  H    2.199133
    25  H    2.001117
    26  N   -2.924996
    27  C    6.617108
    28  H    1.949705
    29  O   -3.228813
    30  O   -3.343745
    31  H    1.883141
    32  H    0.939150
    33  H    0.931435
    34  H    0.589818
    35  H    0.604583
    36  H    0.606593
    37  H    0.680139
    38  H    0.629458
    39  H    0.731116
 Sum of Mulliken charges =  -1.00000

 Dipole moment (field-independent basis, Debye):
    X=             -2.5983    Y=             -4.4632    Z=              0.5017  Tot=              5.1888

 Test job not archived.
 1\1\GINC-SE123\SP\RHF\Aug-CC-pVDZ\C9H18N3O6S3(1-)\OHZDE\09-Apr-2025\0\
 \#t hf aug-cc-pvdz iop(5/13=1,5/36=2,99/5=2) pseudo=read geom=check gu
 ess=(read,tcheck) scf=(maxcycle=1)\\title\\-1,1\S,0,1.935179,1.744099,
 -1.726279\C,0,0.412094,2.70063,-1.393279\S,0,0.791111,-0.340574,-1.512
 202\C,0,1.62829,-0.813193,0.043847\C,0,2.758714,-1.829718,-0.12766\H,0
 ,0.870303,-1.223736,0.708328\H,0,2.034461,0.095375,0.482803\C,0,-0.088
 86,2.640884,0.060191\H,0,-0.382114,2.299882,-2.022909\H,0,0.574853,3.7
 38221,-1.691233\N,0,2.281406,-3.06586,-0.714267\C,0,3.420088,-2.024746

 Normal termination of Gaussian 16 at Wed Apr  9 02:16:29 2025.
