 Gaussian 16, Revision C.01,

 ----------------------------------------------------------------------
 #t hf aug-cc-pvdz symm=none int=(grid=ultrafine) guess=(read,tcheck) s
 table=(opt,rrhf)
 ----------------------------------------------------------------------
 -----
 title
 -----
 Symbolic Z-matrix:
 Charge =  1 Multiplicity = 1

 SCF Done:  E(RHF) =  -465.335381584     A.U. after   13 cycles
 Normal termination of Gaussian 16 at Wed Apr  9 01:02:06 2025.
 Gaussian 16:  ES64L-G16RevC.01  3-Jul-2019

 ----------------------------------------------------------------------
 #t hf aug-cc-pvdz iop(5/13=1,5/36=2,99/5=2) pseudo=read geom=check gue
 ss=(read,tcheck) scf=(maxcycle=1)
 ----------------------------------------------------------------------
 -----
 title
 -----
 Structure from the checkpoint file:  "BH10_134_forward_mol2.chk"
 Charge =  1 Multiplicity = 1

                         Standard orientation:
 ---------------------------------------------------------------------
 Center     Atomic      Atomic             Coordinates (Angstroms)
 Number     Number       Type             X           Y           Z
 ---------------------------------------------------------------------
      1          9           0        2.633259   -0.000029   -0.000047
      2          7           0        1.244324   -0.000008   -0.000019
      3          6           0        0.792095   -0.729374   -1.226229
      4          6           0       -0.736200   -0.894168   -1.123632
      5          6           0       -1.290797    0.000030    0.000007
      6          6           0        0.792132    1.426666   -0.018561
      7          6           0       -0.736200    1.420245   -0.212443
      8          6           0       -2.811523    0.000004   -0.000070
      9          1           0       -3.202346   -1.015156    0.092436
     10          6           0        0.792120   -0.697233    1.244802
     11          6           0       -0.736213   -0.526100    1.336194
     12          1           0        1.335850   -1.671701   -1.239432
     13          1           0        1.109501   -0.123034   -2.072644
     14          1           0       -0.989513   -1.936695   -0.926199
     15          1           0       -1.187477   -0.626329   -2.078986
     16          1           0        1.335845    1.909253   -0.828075
     17          1           0        1.109593    1.856523    0.929727
     18          1           0       -0.989664    1.770693   -1.213914
     19          1           0       -1.187415    2.113561    0.497357
     20          1           0       -3.202307    0.427426   -0.925515
     21          1           0       -3.202428    0.587720    0.832775
     22          1           0        1.335827   -0.237432    2.067472
     23          1           0        1.109574   -1.733413    1.142990
     24          1           0       -0.989665    0.165947    2.140457
     25          1           0       -1.187451   -1.487465    1.581698
 ---------------------------------------------------------------------

 SCF Done:  E(RHF) =  -467.498521615     A.U. after    2 cycles

 The electronic state is 1-A.
 Alpha  occ. eigenvalues --  -29.48362 -16.07131 -11.67240 -11.67238 -11.64320
 Alpha  occ. eigenvalues --  -11.60348 -11.57371 -11.57371 -11.55302 -11.51328
 Alpha  occ. eigenvalues --   -1.80087  -1.46841  -1.33635  -1.33634  -1.20431
 Alpha  occ. eigenvalues --   -1.11995  -1.11995  -1.06641  -0.99573  -0.89462
 Alpha  occ. eigenvalues --   -0.89461  -0.88685  -0.76666  -0.75863  -0.75862
 Alpha  occ. eigenvalues --   -0.74312  -0.74250  -0.74249  -0.72467  -0.72466
 Alpha  occ. eigenvalues --   -0.66492  -0.66491  -0.64438  -0.58826  -0.56517
 Alpha  occ. eigenvalues --   -0.56516  -0.55941  -0.45248  -0.45248
 Alpha virt. eigenvalues --   -0.07897  -0.05345  -0.05345  -0.04800  -0.04800
 Alpha virt. eigenvalues --   -0.04076  -0.03257  -0.03257  -0.03051  -0.01863
 Alpha virt. eigenvalues --   -0.01476  -0.01476  -0.01245  -0.00466  -0.00466

 Mulliken charges:
               1
     1  F   -0.662631
     2  N    4.763403
     3  C   -3.331723
     4  C   -4.135957
     5  C    8.866021
     6  C   -3.331410
     7  C   -4.136684
     8  C   -6.595695
     9  H    1.270230
    10  C   -3.331667
    11  C   -4.136260
    12  H    1.160278
    13  H    0.852912
    14  H    0.994190
    15  H    1.399768
    16  H    1.160295
    17  H    0.852913
    18  H    0.994324
    19  H    1.399832
    20  H    1.270195
    21  H    1.270237
    22  H    1.160324
    23  H    0.852855
    24  H    0.994242
    25  H    1.400007
 Sum of Mulliken charges =   1.00000

 Dipole moment (field-independent basis, Debye):
    X=              3.5090    Y=              0.0001    Z=             -0.0000  Tot=              3.5090

 Test job not archived.
 1\1\GINC-SE212\SP\RHF\Aug-CC-pVDZ\C8H15F1N1(1+)\OHZDE\09-Apr-2025\0\\#
 t hf aug-cc-pvdz iop(5/13=1,5/36=2,99/5=2) pseudo=read geom=check gues
 s=(read,tcheck) scf=(maxcycle=1)\\title\\1,1\F,0,-2.633259,0.000029,-0
 .000047\N,0,-1.244324,0.000008,-0.000019\C,0,-0.792095,0.727693,-1.227
 227\C,0,0.7362,0.892628,-1.124856\C,0,1.290797,-0.00003,0.000007\C,0,-
 0.792132,-1.42669,-0.016607\C,0,0.7362,-1.420535,-0.210497\C,0,2.81152
 3,-0.000004,-0.00007\H,0,3.202346,1.015281,0.091046\C,0,-0.79212,0.698
 938,1.243846\C,0,0.736213,0.52793,1.335472\H,0,-1.33585,1.670002,-1.24

 Normal termination of Gaussian 16 at Wed Apr  9 01:02:25 2025.
