 Gaussian 16, Revision C.01,

 ----------------------------------------------------------------------
 #t hf aug-cc-pvdz symm=none int=(grid=ultrafine) guess=(read,tcheck) s
 table=(opt,rrhf)
 ----------------------------------------------------------------------
 -----
 title
 -----
 Symbolic Z-matrix:
 Charge =  0 Multiplicity = 1

 SCF Done:  E(RHF) =  -575.774851146     A.U. after   14 cycles
 Normal termination of Gaussian 16 at Wed Apr  9 01:00:29 2025.
 Gaussian 16:  ES64L-G16RevC.01  3-Jul-2019

 ----------------------------------------------------------------------
 #t hf aug-cc-pvdz iop(5/13=1,5/36=2,99/5=2) pseudo=read geom=check gue
 ss=(read,tcheck) scf=(maxcycle=1)
 ----------------------------------------------------------------------
 -----
 title
 -----
 Structure from the checkpoint file:  "BH10_140_forward_mol2.chk"
 Charge =  0 Multiplicity = 1

                         Standard orientation:
 ---------------------------------------------------------------------
 Center     Atomic      Atomic             Coordinates (Angstroms)
 Number     Number       Type             X           Y           Z
 ---------------------------------------------------------------------
      1          6           0        2.563204    0.729675    0.274361
      2          6           0        1.662325   -0.235878    1.009686
      3          6           0        1.034566   -1.306913    0.118990
      4          6           0        0.022372   -0.794387   -0.900664
      5          7           0       -1.169850   -0.196366   -0.276965
      6          6           0       -2.156490   -1.056632    0.169205
      7          8           0       -2.084600   -2.254625    0.078535
      8          6           0       -1.268007    1.194963   -0.180708
      9          8           0       -0.369537    1.897663   -0.580308
     10          6           0       -2.513528    1.790388    0.430781
     11          1           0        0.888500    0.349581    1.517141
     12          1           0        2.244735   -0.724483    1.795369
     13          1           0        0.550299   -2.063113    0.740079
     14          1           0        1.827358   -1.818610   -0.432249
     15          1           0       -0.326532   -1.624238   -1.512990
     16          1           0        0.452031   -0.036327   -1.550314
     17          1           0       -3.022766   -0.556849    0.618201
     18          1           0       -2.647391    1.469274    1.465060
     19          1           0       -3.408576    1.518123   -0.130395
     20          1           0       -2.393670    2.870172    0.407250
     21          1           0        3.013690    1.451119    0.958481
     22          1           0        2.038022    1.266172   -0.515222
     23          9           0        3.615522    0.022459   -0.326375
 ---------------------------------------------------------------------

 SCF Done:  E(RHF) =  -578.306667479     A.U. after    2 cycles

 The electronic state is 1-A.
 Alpha  occ. eigenvalues --  -29.23407 -21.06414 -21.05961 -15.78565 -11.54575
 Alpha  occ. eigenvalues --  -11.51355 -11.45927 -11.45212 -11.42159 -11.40870
 Alpha  occ. eigenvalues --  -11.36632  -1.75275  -1.73415  -1.44636  -1.26203
 Alpha  occ. eigenvalues --   -1.15179  -1.09576  -0.98405  -0.92067  -0.86305
 Alpha  occ. eigenvalues --   -0.78520  -0.71447  -0.69189  -0.66438  -0.65858
 Alpha  occ. eigenvalues --   -0.63296  -0.60765  -0.59347  -0.56637  -0.55447
 Alpha  occ. eigenvalues --   -0.54559  -0.53798  -0.50409  -0.49313  -0.46825
 Alpha  occ. eigenvalues --   -0.45721  -0.45073  -0.35155  -0.33755  -0.32054
 Alpha  occ. eigenvalues --   -0.30372  -0.23526  -0.23328
 Alpha virt. eigenvalues --    0.02975   0.04667   0.04882   0.05027   0.05607
 Alpha virt. eigenvalues --    0.06236   0.06409   0.06825   0.07522   0.07733
 Alpha virt. eigenvalues --    0.08449   0.09637   0.10059   0.11126   0.11856

 Mulliken charges:
               1
     1  C   -2.575173
     2  C   -3.572162
     3  C   -2.801403
     4  C   -3.208143
     5  N   -3.012596
     6  C    2.354782
     7  O   -2.863430
     8  C    5.659727
     9  O   -3.430755
    10  C   -4.663808
    11  H    1.794259
    12  H    1.241095
    13  H    1.588485
    14  H    1.349765
    15  H    1.454382
    16  H    1.919071
    17  H    1.755823
    18  H    1.316884
    19  H    1.365829
    20  H    1.089159
    21  H    1.349413
    22  H    1.801692
    23  F    0.087108
 Sum of Mulliken charges =   0.00000

 Dipole moment (field-independent basis, Debye):
    X=             -0.1039    Y=              0.2272    Z=             -0.2413  Tot=              0.3474

 Test job not archived.
 1\1\GINC-SE044\SP\RHF\Aug-CC-pVDZ\C7H12F1N1O2\OHZDE\09-Apr-2025\0\\#t
 hf aug-cc-pvdz iop(5/13=1,5/36=2,99/5=2) pseudo=read geom=check guess=
 (read,tcheck) scf=(maxcycle=1)\\title\\0,1\C,0,2.563204,0.729675,0.274
 361\C,0,1.662325,-0.235878,1.009686\C,0,1.034566,-1.306913,0.11899\C,0
 ,0.022372,-0.794387,-0.900664\N,0,-1.16985,-0.196366,-0.276965\C,0,-2.
 15649,-1.056632,0.169205\O,0,-2.0846,-2.254625,0.078535\C,0,-1.268007,
 1.194963,-0.180708\O,0,-0.369537,1.897663,-0.580308\C,0,-2.513528,1.79
 0388,0.430781\H,0,0.8885,0.349581,1.517141\H,0,2.244735,-0.724483,1.79

 Normal termination of Gaussian 16 at Wed Apr  9 01:00:44 2025.
