 Gaussian 16, Revision C.01,

 ----------------------------------------------------------------------
 #t hf aug-cc-pvdz symm=none int=(grid=ultrafine) guess=(read,tcheck) s
 table=opt
 ----------------------------------------------------------------------
 -----
 title
 -----
 Symbolic Z-matrix:
 Charge =  0 Multiplicity = 2

 SCF Done:  E(UHF) =  -816.090018122     A.U. after   17 cycles
 Normal termination of Gaussian 16 at Wed Apr  9 01:10:03 2025.
 Gaussian 16:  ES64L-G16RevC.01  3-Jul-2019

 ----------------------------------------------------------------------
 #t hf aug-cc-pvdz iop(5/13=1,5/36=2,99/5=2) pseudo=read geom=check gue
 ss=(read,tcheck) scf=(maxcycle=1)
 ----------------------------------------------------------------------
 -----
 title
 -----
 Structure from the checkpoint file:  "BH10_220_reverse_mol2.chk"
 Charge =  0 Multiplicity = 2

                         Standard orientation:
 ---------------------------------------------------------------------
 Center     Atomic      Atomic             Coordinates (Angstroms)
 Number     Number       Type             X           Y           Z
 ---------------------------------------------------------------------
      1         15           0       -0.000886   -0.046919   -0.471136
      2          8           0        0.033532   -0.338291   -1.924860
      3          7           0        1.166566   -0.997000    0.323744
      4          7           0       -1.524313   -0.298801    0.159390
      5          7           0        0.369494    1.485116    0.083625
      6          6           0        1.749228    1.947536   -0.032524
      7          1           0        1.961689    2.337896   -1.034691
      8          1           0        1.918306    2.746107    0.693788
      9          1           0        2.442027    1.137812    0.183380
     10          6           0       -0.594482    2.556145   -0.150947
     11          1           0       -0.448488    3.338628    0.597972
     12          1           0       -0.470551    3.000173   -1.145614
     13          1           0       -1.610032    2.176653   -0.066633
     14          6           0        1.757761   -2.129251   -0.383555
     15          1           0        1.538886   -2.041950   -1.444480
     16          1           0        2.841071   -2.123329   -0.238584
     17          1           0        1.357903   -3.075770   -0.007294
     18          6           0        1.413212   -0.903348    1.682369
     19          1           0        1.104776   -0.011701    2.203670
     20          1           0        2.165556   -1.556615    2.097827
     21          6           0       -1.825418   -0.117617    1.569698
     22          1           0       -2.873783    0.175422    1.677715
     23          1           0       -1.660532   -1.034987    2.146894
     24          1           0       -1.206653    0.671677    1.992008
     25          6           0       -2.410164   -1.230125   -0.525842
     26          1           0       -2.367840   -2.232661   -0.081407
     27          1           0       -3.439868   -0.868352   -0.456355
     28          1           0       -2.130475   -1.294120   -1.574791
 ---------------------------------------------------------------------

 SCF Done:  E(UHF) =  -818.603810190     A.U. after    2 cycles

 The electronic state is 2-A.
 Alpha  occ. eigenvalues -- -105.27087 -20.98557 -15.72891 -15.71785 -15.71278
 Alpha  occ. eigenvalues --  -11.40483 -11.39890 -11.39302 -11.38900 -11.38811
 Alpha  occ. eigenvalues --  -11.38595  -2.88729  -1.90492  -1.69775  -1.67267
 Alpha  occ. eigenvalues --   -1.46778  -1.30872  -1.29713  -1.23466  -1.04957
 Alpha  occ. eigenvalues --   -1.04181  -1.03239  -0.91367  -0.84965  -0.83049
 Alpha  occ. eigenvalues --   -0.69727  -0.65158  -0.64105  -0.62834  -0.62407
 Alpha  occ. eigenvalues --   -0.60864  -0.60584  -0.59838  -0.58517  -0.54990
 Alpha  occ. eigenvalues --   -0.54915  -0.54760  -0.51884  -0.50701  -0.50116
 Alpha  occ. eigenvalues --   -0.45887  -0.39537  -0.35239  -0.34371  -0.31283
 Alpha  occ. eigenvalues --   -0.27673  -0.25194  -0.23423  -0.14220
 Alpha virt. eigenvalues --    0.03683   0.05060   0.05194   0.05560   0.05667
 Alpha virt. eigenvalues --    0.06008   0.06126   0.06400   0.06816   0.06991
 Alpha virt. eigenvalues --    0.07462   0.07644   0.08016   0.08293   0.08501

  Beta  occ. eigenvalues -- -105.27094 -20.98552 -15.72428 -15.71786 -15.71255
  Beta  occ. eigenvalues --  -11.40363 -11.39889 -11.39143 -11.38918 -11.38713
  Beta  occ. eigenvalues --  -11.36974  -2.88730  -1.90493  -1.69677  -1.67026
  Beta  occ. eigenvalues --   -1.46304  -1.29690  -1.29639  -1.23252  -1.04915
  Beta  occ. eigenvalues --   -1.03922  -1.00761  -0.90539  -0.84792  -0.80369
  Beta  occ. eigenvalues --   -0.69377  -0.64976  -0.63855  -0.62050  -0.61540
  Beta  occ. eigenvalues --   -0.60618  -0.60019  -0.59351  -0.58358  -0.54978
  Beta  occ. eigenvalues --   -0.54842  -0.54644  -0.51434  -0.50571  -0.50023
  Beta  occ. eigenvalues --   -0.39907  -0.38898  -0.34521  -0.33704  -0.31164
  Beta  occ. eigenvalues --   -0.26608  -0.24771  -0.14206
  Beta virt. eigenvalues --    0.03735   0.05101   0.05186   0.05553   0.05680
  Beta virt. eigenvalues --    0.05997   0.06014   0.06405   0.06815   0.06961
  Beta virt. eigenvalues --    0.07451   0.07567   0.07877   0.08256   0.08520

 Mulliken charges and spin densities:
               1          2
     1  P   14.131245  -0.068714
     2  O   -3.759107   0.011615
     3  N   -3.820306   0.005891
     4  N   -3.848043   0.035571
     5  N   -4.022486   0.016337
     6  C   -4.445416   0.000713
     7  H    1.445419  -0.001269
     8  H    1.385389   0.000511
     9  H    1.811591  -0.025301
    10  C   -4.461711   0.001652
    11  H    1.410774  -0.000123
    12  H    1.450083  -0.000197
    13  H    1.769134  -0.000059
    14  C   -3.942839  -0.041064
    15  H    1.464762   0.003113
    16  H    1.461623   0.006448
    17  H    1.498088  -0.000564
    18  C   -3.183363   1.266267
    19  H    1.878571  -0.130516
    20  H    1.479181  -0.070632
    21  C   -4.435362   0.008880
    22  H    1.276646   0.003053
    23  H    1.507886  -0.020403
    24  H    1.760891   0.006774
    25  C   -4.186542  -0.006927
    26  H    1.539687   0.002151
    27  H    1.474143  -0.000739
    28  H    1.360061  -0.002468
 Sum of Mulliken charges =   0.00000   1.00000

 Dipole moment (field-independent basis, Debye):
    X=             -0.1432    Y=              0.8449    Z=              2.8420  Tot=              2.9684
                          Isotropic Fermi Contact Couplings
        Atom                 a.u.       MegaHertz       Gauss      10(-4) cm-1
     1  P(31)             -0.00981     -17.77566      -6.34280      -5.92932
     2  O(17)             -0.00098       0.59108       0.21091       0.19716
     3  N(14)              0.02915       9.41852       3.36076       3.14168
     4  N(14)              0.00073       0.23608       0.08424       0.07875
     5  N(14)             -0.00194      -0.62821      -0.22416      -0.20955
     6  C(13)             -0.00179      -2.00690      -0.71611      -0.66943
     7  H(1)               0.00008       0.34442       0.12290       0.11489
     8  H(1)               0.00018       0.80024       0.28554       0.26693

 1\1\GINC-SE338\SP\UHF\Aug-CC-pVDZ\C6H17N3O1P1(2)\OHZDE\09-Apr-2025\0\\
 #t hf aug-cc-pvdz iop(5/13=1,5/36=2,99/5=2) pseudo=read geom=check gue
 ss=(read,tcheck) scf=(maxcycle=1)\\title\\0,2\P,0,-0.000886,-0.046919,
 -0.471136\O,0,0.033531,-0.338291,-1.92486\N,0,1.166564,-0.997003,0.323
 744\N,0,-1.524314,-0.298798,0.15939\N,0,0.369497,1.485115,0.083625\C,0
 ,1.749232,1.947532,-0.032524\H,0,1.961694,2.337892,-1.034691\H,0,1.918
 312,2.746103,0.693788\H,0,2.44203,1.137807,0.18338\C,0,-0.594476,2.556
 146,-0.150947\H,0,-0.448481,3.338629,0.597972\H,0,-0.470544,3.000174,-

 Normal termination of Gaussian 16 at Wed Apr  9 01:10:27 2025.
