 Gaussian 16, Revision C.01,

 ----------------------------------------------------------------------
 #t hf aug-cc-pvdz symm=none int=(grid=ultrafine) guess=(read,tcheck) s
 table=opt
 ----------------------------------------------------------------------
 -----
 title
 -----
 Symbolic Z-matrix:
 Charge =  0 Multiplicity = 2

 SCF Done:  E(UHF) =  -639.926954993     A.U. after   22 cycles
 Normal termination of Gaussian 16 at Wed Apr  9 01:12:38 2025.
 Gaussian 16:  ES64L-G16RevC.01  3-Jul-2019

 ----------------------------------------------------------------------
 #t hf aug-cc-pvdz iop(5/13=1,5/36=2,99/5=2) pseudo=read geom=check gue
 ss=(read,tcheck) scf=(maxcycle=1)
 ----------------------------------------------------------------------
 -----
 title
 -----
 Structure from the checkpoint file:  "BH10_279_forward_mol1.chk"
 Charge =  0 Multiplicity = 2

                         Standard orientation:
 ---------------------------------------------------------------------
 Center     Atomic      Atomic             Coordinates (Angstroms)
 Number     Number       Type             X           Y           Z
 ---------------------------------------------------------------------
      1          6           0        1.886660   -1.009108    1.509835
      2          1           0        2.921868   -1.004646    1.863424
      3          1           0        1.262258   -0.606065    2.310344
      4          1           0        1.595697   -2.049343    1.348196
      5          6           0        2.752021   -0.741156   -1.447127
      6          1           0        2.462796   -1.776159   -1.640956
      7          1           0        2.622702   -0.179511   -2.374558
      8          1           0        3.815737   -0.730637   -1.192285
      9          6           0        2.178009    1.792187    0.238849
     10          1           0        2.034826    2.389220   -0.664200
     11          1           0        1.560904    2.228043    1.027441
     12          1           0        3.224910    1.885355    0.541726
     13         14           0        1.726130   -0.001097   -0.065604
     14          1           0        0.225352   -0.030501   -0.541270
     15          6           0       -3.392459    0.183883   -0.774890
     16          6           0       -2.043300   -0.009384   -0.066927
     17          1           0       -3.432296    1.162450   -1.254635
     18          1           0       -3.533618   -0.583773   -1.536557
     19          1           0       -4.204707    0.112874   -0.047918
     20          6           0       -1.984369   -1.390845    0.585263
     21          6           0       -1.832630    1.097277    0.967276
     22          1           0       -1.019970   -1.541378    1.074379
     23          1           0       -2.768309   -1.505499    1.338006
     24          1           0       -2.108993   -2.166982   -0.171509
     25          1           0       -2.627125    1.090752    1.717387
     26          1           0       -0.880246    0.961998    1.484743
     27          1           0       -1.820379    2.071666    0.476458
     28          8           0       -1.110103    0.093796   -1.114179
 ---------------------------------------------------------------------

 SCF Done:  E(UHF) =  -641.842826453     A.U. after    2 cycles

 The electronic state is 2-A.
 Alpha  occ. eigenvalues --  -76.18262 -21.07362 -11.43997 -11.39620 -11.39344
 Alpha  occ. eigenvalues --  -11.35180 -11.34332 -11.33975 -11.33879  -5.52273
 Alpha  occ. eigenvalues --   -2.16142  -2.16112  -2.16096  -1.71089  -1.19472
 Alpha  occ. eigenvalues --   -1.07421  -1.01446  -1.01243  -1.00614  -1.00384
 Alpha  occ. eigenvalues --   -0.78056  -0.68998  -0.62281  -0.61926  -0.61561
 Alpha  occ. eigenvalues --   -0.57016  -0.56178  -0.55810  -0.55763  -0.54882
 Alpha  occ. eigenvalues --   -0.54174  -0.54035  -0.52904  -0.51388  -0.50358
 Alpha  occ. eigenvalues --   -0.46195  -0.44683  -0.41127  -0.39038  -0.38885
 Alpha  occ. eigenvalues --   -0.31759  -0.26850
 Alpha virt. eigenvalues --    0.03481   0.04793   0.05119   0.05218   0.05371
 Alpha virt. eigenvalues --    0.05444   0.05884   0.06155   0.06385   0.07041
 Alpha virt. eigenvalues --    0.07355   0.07701   0.07839   0.08608   0.08829

  Beta  occ. eigenvalues --  -76.18077 -21.03827 -11.44174 -11.39476 -11.39316
  Beta  occ. eigenvalues --  -11.35127 -11.34306 -11.33954 -11.33855  -5.51982
  Beta  occ. eigenvalues --   -2.15934  -2.15910  -2.14860  -1.61370  -1.17709
  Beta  occ. eigenvalues --   -1.07053  -1.01205  -1.00873  -1.00521  -1.00290
  Beta  occ. eigenvalues --   -0.77226  -0.66260  -0.61758  -0.61237  -0.60725
  Beta  occ. eigenvalues --   -0.56686  -0.56118  -0.55769  -0.54841  -0.54422
  Beta  occ. eigenvalues --   -0.54035  -0.53888  -0.52883  -0.51358  -0.46399
  Beta  occ. eigenvalues --   -0.45879  -0.43649  -0.38821  -0.38674  -0.38026
  Beta  occ. eigenvalues --   -0.29212
  Beta virt. eigenvalues --    0.03344   0.04797   0.05122   0.05208   0.05375
  Beta virt. eigenvalues --    0.05447   0.05708   0.06166   0.06396   0.07042
  Beta virt. eigenvalues --    0.07358   0.07707   0.07840   0.08606   0.08833

 Mulliken charges and spin densities:
               1          2
     1  C   -6.152772   0.012408
     2  H    1.165691  -0.005674
     3  H    1.187399  -0.003336
     4  H    1.292517  -0.002346
     5  C   -6.105724  -0.007269
     6  H    1.039267  -0.002668
     7  H    1.107948  -0.000412
     8  H    1.154118  -0.006590
     9  C   -5.959535  -0.000543
    10  H    1.220802  -0.005942
    11  H    1.130377  -0.003157
    12  H    1.192537  -0.003295
    13  Si   9.920018   0.175989
    14  H   -1.466183  -0.061762
    15  C   -4.679089   0.105551
    16  C    4.299533  -0.558843
    17  H    1.270471   0.022098
    18  H    1.268704   0.026537
    19  H    1.253186   0.009106
    20  C   -4.435179   0.084363
    21  C   -4.319852   0.071428
    22  H    1.777024  -0.001412
    23  H    1.163940  -0.000417
    24  H    1.265271  -0.003368
    25  H    1.179856  -0.005585
    26  H    1.579030   0.007919
    27  H    1.310597  -0.003147
    28  O   -3.659953   1.160367
 Sum of Mulliken charges =   0.00000   1.00000

 Dipole moment (field-independent basis, Debye):
    X=              0.3498    Y=              0.0106    Z=              0.4293  Tot=              0.5538
                          Isotropic Fermi Contact Couplings
        Atom                 a.u.       MegaHertz       Gauss      10(-4) cm-1
     1  C(13)              0.00856       9.62734       3.43527       3.21134
     2  H(1)               0.00193       8.64502       3.08476       2.88367
     3  H(1)              -0.00006      -0.24906      -0.08887      -0.08308
     4  H(1)              -0.00004      -0.20041      -0.07151      -0.06685
     5  C(13)              0.00825       9.27976       3.31125       3.09539
     6  H(1)              -0.00002      -0.09278      -0.03311      -0.03095
     7  H(1)              -0.00001      -0.03650      -0.01302      -0.01217
     8  H(1)               0.00201       8.99307       3.20895       2.99977

 Normal termination of Gaussian 16 at Wed Apr  9 01:12:56 2025.
