 Gaussian 16, Revision C.01,

 ----------------------------------------------------------------------
 #t hf aug-cc-pvdz symm=none int=(grid=ultrafine) guess=(read,tcheck) s
 table=(opt,rrhf)
 ----------------------------------------------------------------------
 -----
 title
 -----
 Symbolic Z-matrix:
 Charge =  0 Multiplicity = 1

 SCF Done:  E(RHF) =  -842.589272331     A.U. after   16 cycles
 Normal termination of Gaussian 16 at Wed Apr  9 00:56:37 2025.
 Gaussian 16:  ES64L-G16RevC.01  3-Jul-2019

 ----------------------------------------------------------------------
 #t hf aug-cc-pvdz iop(5/13=1,5/36=2,99/5=2) pseudo=read geom=check gue
 ss=(read,tcheck) scf=(maxcycle=1)
 ----------------------------------------------------------------------
 -----
 title
 -----
 Structure from the checkpoint file:  "BH10-RE_117_mol3.chk"
 Charge =  0 Multiplicity = 1

                         Standard orientation:
 ---------------------------------------------------------------------
 Center     Atomic      Atomic             Coordinates (Angstroms)
 Number     Number       Type             X           Y           Z
 ---------------------------------------------------------------------
      1          6           0       -2.414060   -0.066162    0.803693
      2          6           0       -0.954872    0.052425    0.523914
      3          6           0       -0.145172   -1.072174    0.480287
      4          6           0       -0.371240    1.299392    0.292479
      5          1           0       -0.579262   -2.050844    0.652400
      6          6           0        1.215739   -0.975597    0.214845
      7          6           0        0.976768    1.414784    0.027967
      8          6           0        1.779867    0.274597   -0.013579
      9          1           0       -0.987872    2.190968    0.316417
     10          1           0        1.816472   -1.873371    0.190562
     11          1           0        1.437454    2.377787   -0.150528
     12          8           0        3.092792    0.485170   -0.279737
     13          6           0        3.953599   -0.633752   -0.345960
     14          1           0        4.941057   -0.239906   -0.574642
     15          1           0        3.647197   -1.324643   -1.137062
     16          1           0        3.988654   -1.165854    0.609488
     17          1           0       -2.802056    0.807264    1.321088
     18          1           0       -2.645999   -0.958768    1.378308
     19         17           0       -3.400103   -0.200298   -0.721766
 ---------------------------------------------------------------------

 SCF Done:  E(RHF) =  -844.642027087     A.U. after    2 cycles

 The electronic state is 1-A.
 Alpha  occ. eigenvalues --  -99.86932 -21.07959 -11.53497 -11.46566 -11.45127
 Alpha  occ. eigenvalues --  -11.44109 -11.42954 -11.41715 -11.40873 -11.37058
 Alpha  occ. eigenvalues --  -10.44176  -9.64141  -9.63423  -9.63339  -1.79941
 Alpha  occ. eigenvalues --   -1.37084  -1.28635  -1.12483  -1.10759  -1.02262
 Alpha  occ. eigenvalues --   -0.95557  -0.88455  -0.82632  -0.70728  -0.66660
 Alpha  occ. eigenvalues --   -0.66093  -0.63169  -0.62517  -0.60659  -0.59380
 Alpha  occ. eigenvalues --   -0.58275  -0.53954  -0.52380  -0.50324  -0.47468
 Alpha  occ. eigenvalues --   -0.45515  -0.44244  -0.41130  -0.39709  -0.34190
 Alpha  occ. eigenvalues --   -0.26759
 Alpha virt. eigenvalues --    0.03162   0.04619   0.04777   0.05424   0.06082
 Alpha virt. eigenvalues --    0.06515   0.07024   0.07480   0.07818   0.08401
 Alpha virt. eigenvalues --    0.09613   0.10671   0.10992   0.11353   0.12650

 Mulliken charges:
               1
     1  C   -5.164357
     2  C    3.910232
     3  C   -0.485699
     4  C   -0.811437
     5  H    1.780899
     6  C   -3.326891
     7  C   -4.438884
     8  C    4.575505
     9  H    1.785350
    10  H    1.870408
    11  H    1.879915
    12  O   -4.783531
    13  C   -3.782564
    14  H    1.416312
    15  H    1.380381
    16  H    1.382163
    17  H    1.304620
    18  H    1.348931
    19  Cl   0.158648
 Sum of Mulliken charges =   0.00000

 Dipole moment (field-independent basis, Debye):
    X=              3.1058    Y=             -0.2209    Z=              1.5636  Tot=              3.4842

 Test job not archived.
 1\1\GINC-SE123\SP\RHF\Aug-CC-pVDZ\C8H9Cl1O1\OHZDE\09-Apr-2025\0\\#t hf
  aug-cc-pvdz iop(5/13=1,5/36=2,99/5=2) pseudo=read geom=check guess=(r
 ead,tcheck) scf=(maxcycle=1)\\title\\0,1\C,0,-2.41406,-0.066162,0.8036
 93\C,0,-0.954872,0.052425,0.523914\C,0,-0.145172,-1.072174,0.480287\C,
 0,-0.37124,1.299392,0.292479\H,0,-0.579262,-2.050844,0.6524\C,0,1.2157
 39,-0.975597,0.214845\C,0,0.976768,1.414784,0.027967\C,0,1.779867,0.27
 4597,-0.013579\H,0,-0.987872,2.190968,0.316417\H,0,1.816472,-1.873371,
 0.190562\H,0,1.437454,2.377787,-0.150528\O,0,3.092792,0.48517,-0.27973

 Normal termination of Gaussian 16 at Wed Apr  9 00:56:48 2025.
