 Gaussian 16, Revision C.01,

 ----------------------------------------------------------------------
 #t hf aug-cc-pvdz symm=none int=(grid=ultrafine) guess=(read,tcheck) s
 table=(opt,rrhf)
 ----------------------------------------------------------------------
 -----
 title
 -----
 Symbolic Z-matrix:
 Charge =  0 Multiplicity = 1

 SCF Done:  E(RHF) =  -679.002145294     A.U. after   14 cycles
 Normal termination of Gaussian 16 at Wed Apr  9 01:30:55 2025.
 Gaussian 16:  ES64L-G16RevC.01  3-Jul-2019

 ----------------------------------------------------------------------
 #t hf aug-cc-pvdz iop(5/13=1,5/36=2,99/5=2) pseudo=read geom=check gue
 ss=(read,tcheck) scf=(maxcycle=1)
 ----------------------------------------------------------------------
 -----
 title
 -----
 Structure from the checkpoint file:  "BH10_283_reverse_mol2.chk"
 Charge =  0 Multiplicity = 1

                         Standard orientation:
 ---------------------------------------------------------------------
 Center     Atomic      Atomic             Coordinates (Angstroms)
 Number     Number       Type             X           Y           Z
 ---------------------------------------------------------------------
      1          6           0       -1.423375    0.176396   -1.235980
      2          6           0       -0.607186   -0.363417    1.172000
      3          6           0       -2.770900    0.660153   -0.665494
      4          1           0       -2.731945    1.754266   -0.626435
      5          1           0       -3.582184    0.409750   -1.358598
      6          1           0        0.160111   -0.204320    1.934458
      7          1           0       -1.231404    0.721039   -2.166082
      8          6           0       -1.949988    0.154924    1.725615
      9          1           0       -1.790510    1.186292    2.059114
     10          1           0       -2.226187   -0.412352    2.621550
     11          5           0       -0.275578    0.325582   -0.189059
     12          6           0        0.858447    2.347761    0.077894
     13          6           0        1.119960    0.997687   -0.535100
     14          6           0        0.166461    3.315266   -0.512536
     15          1           0       -0.221773    3.209130   -1.519883
     16          1           0       -0.020690    4.255413   -0.009088
     17          6           0        2.263197    0.282439    0.106291
     18          8           0        2.706517    0.487201    1.206798
     19          8           0        2.723417   -0.698098   -0.693271
     20          6           0        3.777221   -1.498329   -0.151690
     21          1           0        3.445883   -1.999938    0.757750
     22          1           0        4.019985   -2.225055   -0.922468
     23          1           0        4.644907   -0.881150    0.080166
     24          6           0       -0.595783   -1.879485    0.820837
     25          1           0        0.438499   -2.165868    0.597624
     26          1           0       -0.883186   -2.457473    1.705582
     27          6           0       -1.370605   -1.341078   -1.578345
     28          1           0       -0.422362   -1.539746   -2.091745
     29          1           0       -2.159653   -1.576262   -2.300549
     30          6           0       -3.121122    0.134973    0.734182
     31          1           0       -3.523428   -0.875045    0.660359
     32          1           0       -3.936046    0.740833    1.141264
     33          6           0       -1.481325   -2.281818   -0.369026
     34          1           0       -1.206715   -3.292504   -0.685210
     35          1           0       -2.520459   -2.349149   -0.050346
     36          1           0        1.226591    2.472015    1.090902
     37          1           0        1.268969    1.056571   -1.613180
 ---------------------------------------------------------------------

 SCF Done:  E(RHF) =  -682.258981435     A.U. after    2 cycles

 The electronic state is 1-A.
 Alpha  occ. eigenvalues --  -21.08868 -21.04105 -11.54663 -11.46661 -11.44580
 Alpha  occ. eigenvalues --  -11.43427 -11.42926 -11.41613 -11.41310 -11.40211
 Alpha  occ. eigenvalues --  -11.39175 -11.38881 -11.36893 -11.35207 -11.34725
 Alpha  occ. eigenvalues --   -7.60442  -1.84523  -1.65925  -1.35347  -1.24510
 Alpha  occ. eigenvalues --   -1.17238  -1.15662  -1.07616  -1.03232  -0.98670
 Alpha  occ. eigenvalues --   -0.97835  -0.83480  -0.82524  -0.81484  -0.81233
 Alpha  occ. eigenvalues --   -0.74697  -0.69540  -0.68585  -0.67303  -0.63842
 Alpha  occ. eigenvalues --   -0.62011  -0.60989  -0.60565  -0.59049  -0.58647
 Alpha  occ. eigenvalues --   -0.58432  -0.55938  -0.54856  -0.53778  -0.52308
 Alpha  occ. eigenvalues --   -0.50491  -0.49324  -0.48505  -0.45188  -0.44117
 Alpha  occ. eigenvalues --   -0.43745  -0.43270  -0.42125  -0.41695  -0.39185
 Alpha  occ. eigenvalues --   -0.37036  -0.33702  -0.32424  -0.31701  -0.28140
 Alpha virt. eigenvalues --    0.03831   0.04634   0.04749   0.05143   0.05362
 Alpha virt. eigenvalues --    0.05479   0.05775   0.06006   0.06164   0.06384
 Alpha virt. eigenvalues --    0.06618   0.06808   0.07135   0.07332   0.07626

 Mulliken charges:
               1
     1  C   -3.515805
     2  C   -3.671528
     3  C   -4.563906
     4  H    1.095807
     5  H    1.326191
     6  H    0.603092
     7  H    0.745954
     8  C   -4.120039
     9  H    1.164447
    10  H    1.233667
    11  B   20.550182
    12  C    0.010493
    13  C   -8.040340
    14  C   -5.181547
    15  H    1.263507
    16  H    1.315188
    17  C    9.602126
    18  O   -3.955999
    19  O   -4.040837
    20  C   -3.800861
    21  H    1.433707
    22  H    1.417314
    23  H    1.431349
    24  C   -5.101827
    25  H    1.304000
    26  H    1.318936
    27  C   -4.594695
    28  H    0.941273
    29  H    1.336125
    30  C   -3.026404
    31  H    1.511279
    32  H    1.253055
    33  C   -2.631082
    34  H    1.332168
    35  H    1.465588
    36  H    1.632828
    37  H    0.956595
 Sum of Mulliken charges =   0.00000

 Dipole moment (field-independent basis, Debye):
    X=             -0.3035    Y=             -0.8238    Z=             -0.9061  Tot=              1.2616

 Test job not archived.
 1\1\GINC-SE212\SP\RHF\Aug-CC-pVDZ\C13H21B1O2\OHZDE\09-Apr-2025\0\\#t h
 f aug-cc-pvdz iop(5/13=1,5/36=2,99/5=2) pseudo=read geom=check guess=(
 read,tcheck) scf=(maxcycle=1)\\title\\0,1\C,0,-1.423375,0.176396,-1.23
 598\C,0,-0.607186,-0.363417,1.172\C,0,-2.7709,0.660153,-0.665494\H,0,-
 2.731945,1.754266,-0.626435\H,0,-3.582184,0.40975,-1.358598\H,0,0.1601
 11,-0.20432,1.934458\H,0,-1.231404,0.721039,-2.166082\C,0,-1.949988,0.
 154924,1.725615\H,0,-1.79051,1.186292,2.059114\H,0,-2.226187,-0.412352
 ,2.62155\B,0,-0.275578,0.325582,-0.189059\C,0,0.858447,2.347761,0.0778

 Normal termination of Gaussian 16 at Wed Apr  9 01:31:59 2025.
