 Gaussian 16, Revision C.01,

 ----------------------------------------------------------------------
 #t hf aug-cc-pvdz symm=none int=(grid=ultrafine) guess=(read,tcheck) s
 table=(opt,rrhf)
 ----------------------------------------------------------------------
 -----
 title
 -----
 Symbolic Z-matrix:
 Charge =  0 Multiplicity = 1

 SCF Done:  E(RHF) =  -893.871195412     A.U. after   16 cycles
 Normal termination of Gaussian 16 at Wed Apr  9 02:13:57 2025.
 Gaussian 16:  ES64L-G16RevC.01  3-Jul-2019

 ----------------------------------------------------------------------
 #t hf aug-cc-pvdz iop(5/13=1,5/36=2,99/5=2) pseudo=read geom=check gue
 ss=(read,tcheck) scf=(maxcycle=1)
 ----------------------------------------------------------------------
 -----
 title
 -----
 Structure from the checkpoint file:  "BH10_90_reverse_mol2.chk"
 Charge =  0 Multiplicity = 1

                         Standard orientation:
 ---------------------------------------------------------------------
 Center     Atomic      Atomic             Coordinates (Angstroms)
 Number     Number       Type             X           Y           Z
 ---------------------------------------------------------------------
      1          6           0        0.501536   -1.147049    0.407105
      2          6           0        0.222844   -0.517003    1.737293
      3          6           0        0.921261    1.198871    0.322218
      4          6           0        0.451546    0.798490    1.686007
      5         16           0        2.098734   -0.238463    0.024082
      6          8           0        2.408845   -0.347273   -1.434732
      7          6           0       -2.465033    0.672417    0.017792
      8          6           0       -0.437570   -0.576487   -0.680684
      9          6           0       -0.135614    0.934899   -0.769005
     10          1           0       -2.510155    0.758161    1.107418
     11          1           0       -3.486644    0.754818   -0.353407
     12          6           0       -1.482085    1.676613   -0.593884
     13          1           0       -1.374942    2.576135    0.014195
     14          1           0       -1.841777    1.999224   -1.572308
     15          6           0       -1.901954   -0.704330   -0.281833
     16          8           0       -2.501687   -1.742751   -0.196691
     17          1           0        0.342015    1.490932    2.509647
     18          1           0       -0.110705   -1.072761    2.602777
     19          1           0       -0.261358   -1.096845   -1.622349
     20          1           0        0.614136   -2.226790    0.391420
     21          1           0        0.321158    1.172953   -1.728368
     22          1           0        1.421692    2.161239    0.246993
 ---------------------------------------------------------------------

 SCF Done:  E(RHF) =  -896.421837872     A.U. after    2 cycles

 The electronic state is 1-A.
 Alpha  occ. eigenvalues --  -75.78974 -21.05924 -21.00936 -13.35565 -13.25939
 Alpha  occ. eigenvalues --  -13.21878 -11.55333 -11.51801 -11.50106 -11.46649
 Alpha  occ. eigenvalues --  -11.45806 -11.44391 -11.41785 -11.40334 -11.38107
 Alpha  occ. eigenvalues --   -8.13115  -1.72144  -1.69242  -1.44065  -1.25731
 Alpha  occ. eigenvalues --   -1.13111  -1.09905  -1.04022  -0.98543  -0.87162
 Alpha  occ. eigenvalues --   -0.85649  -0.79368  -0.75614  -0.73799  -0.67919
 Alpha  occ. eigenvalues --   -0.63148  -0.61660  -0.59309  -0.56948  -0.54257
 Alpha  occ. eigenvalues --   -0.53513  -0.53331  -0.49964  -0.46953  -0.46850
 Alpha  occ. eigenvalues --   -0.44815  -0.43847  -0.41336  -0.40056  -0.33989
 Alpha  occ. eigenvalues --   -0.32107  -0.28008  -0.25793
 Alpha virt. eigenvalues --    0.03146   0.04096   0.04264   0.04599   0.05199
 Alpha virt. eigenvalues --    0.05573   0.06014   0.06952   0.07385   0.08365
 Alpha virt. eigenvalues --    0.08925   0.10253   0.10610   0.11184   0.11571

 Mulliken charges:
               1
     1  C   -2.972348
     2  C   -1.103886
     3  C   -3.233594
     4  C   -0.619538
     5  S    3.478172
     6  O   -2.475582
     7  C   -3.820475
     8  C   -2.211825
     9  C   -0.281611
    10  H    1.562402
    11  H    1.294035
    12  C   -3.205943
    13  H    1.432015
    14  H    1.240099
    15  C    5.387853
    16  O   -3.857682
    17  H    1.519270
    18  H    1.498970
    19  H    1.586287
    20  H    1.528805
    21  H    1.653177
    22  H    1.601400
 Sum of Mulliken charges =  -0.00000

 Dipole moment (field-independent basis, Debye):
    X=              0.2619    Y=              1.6274    Z=              1.5787  Tot=              2.2824

 Test job not archived.
 1\1\GINC-SE070\SP\RHF\Aug-CC-pVDZ\C9H10O2S1\OHZDE\09-Apr-2025\0\\#t hf
  aug-cc-pvdz iop(5/13=1,5/36=2,99/5=2) pseudo=read geom=check guess=(r
 ead,tcheck) scf=(maxcycle=1)\\title\\0,1\C,0,0.501536,-1.147049,0.4071
 05\C,0,0.222844,-0.517003,1.737293\C,0,0.921261,1.198871,0.322218\C,0,
 0.451546,0.79849,1.686007\S,0,2.098734,-0.238463,0.024082\O,0,2.408845
 ,-0.347273,-1.434732\C,0,-2.465033,0.672417,0.017792\C,0,-0.43757,-0.5
 76487,-0.680684\C,0,-0.135614,0.934899,-0.769005\H,0,-2.510155,0.75816
 1,1.107418\H,0,-3.486644,0.754818,-0.353407\C,0,-1.482085,1.676613,-0.

 Normal termination of Gaussian 16 at Wed Apr  9 02:14:16 2025.
