 Gaussian 16, Revision C.01,

 ----------------------------------------------------------------------
 #t hf aug-cc-pvdz symm=none int=(grid=ultrafine) guess=(read,tcheck) s
 table=(opt,rrhf)
 ----------------------------------------------------------------------
 -----
 title
 -----
 Symbolic Z-matrix:
 Charge =  0 Multiplicity = 1

 SCF Done:  E(RHF) =  -404.463937047     A.U. after   15 cycles
 Normal termination of Gaussian 16 at Wed Apr  9 01:00:31 2025.
 Gaussian 16:  ES64L-G16RevC.01  3-Jul-2019

 ----------------------------------------------------------------------
 #t hf aug-cc-pvdz iop(5/13=1,5/36=2,99/5=2) pseudo=read geom=check gue
 ss=(read,tcheck) scf=(maxcycle=1)
 ----------------------------------------------------------------------
 -----
 title
 -----
 Structure from the checkpoint file:  "BH10_173_forward_mol2.chk"
 Charge =  0 Multiplicity = 1

                         Standard orientation:
 ---------------------------------------------------------------------
 Center     Atomic      Atomic             Coordinates (Angstroms)
 Number     Number       Type             X           Y           Z
 ---------------------------------------------------------------------
      1          1           0        3.116786   -0.788260    0.000560
      2          8           0        2.735639    0.093683    0.000440
      3          6           0        1.373199    0.017748    0.000224
      4          6           0        0.668712    1.215805    0.000100
      5          6           0       -0.716148    1.204908   -0.000127
      6          6           0       -1.376998   -0.007949   -0.000224
      7          6           0       -0.698956   -1.207093   -0.000104
      8          6           0        0.690067   -1.191393    0.000121
      9          1           0        1.238308   -2.127366    0.000215
     10          1           0       -1.285478    2.125134   -0.000227
     11          1           0        1.218927    2.147554    0.000183
     12          1           0       -1.250748   -2.137793   -0.000186
     13          9           0       -2.729130   -0.017877   -0.000445
 ---------------------------------------------------------------------

 SCF Done:  E(RHF) =  -406.195838914     A.U. after    2 cycles

 The electronic state is 1-A.
 Alpha  occ. eigenvalues --  -29.27796 -21.10849 -11.53743 -11.47382 -11.44747
 Alpha  occ. eigenvalues --  -11.43683 -11.41207 -11.38168  -1.76454  -1.36014
 Alpha  occ. eigenvalues --   -1.13073  -1.11828  -0.90874  -0.90032  -0.77036
 Alpha  occ. eigenvalues --   -0.69743  -0.64514  -0.61262  -0.60133  -0.56722
 Alpha  occ. eigenvalues --   -0.53516  -0.48822  -0.48665  -0.43141  -0.38101
 Alpha  occ. eigenvalues --   -0.35107  -0.34422  -0.26931  -0.20822
 Alpha virt. eigenvalues --    0.03307   0.04838   0.05944   0.06148   0.06841
 Alpha virt. eigenvalues --    0.10196   0.10269   0.11590   0.13164   0.13374
 Alpha virt. eigenvalues --    0.13442   0.13448   0.13847   0.13973   0.14777

 Mulliken charges:
               1
     1  H    1.018179
     2  O   -4.468791
     3  C    4.911662
     4  C   -1.358413
     5  C   -3.669106
     6  C    2.764209
     7  C   -3.850611
     8  C   -2.623929
     9  H    1.652555
    10  H    1.678515
    11  H    1.699349
    12  H    1.647394
    13  F    0.598988
 Sum of Mulliken charges =   0.00000

 Dipole moment (field-independent basis, Debye):
    X=             -1.2169    Y=             -0.5878    Z=             -0.0002  Tot=              1.3514

 Test job not archived.
 1\1\GINC-SE459\SP\RHF\Aug-CC-pVDZ\C6H5F1O1\OHZDE\09-Apr-2025\0\\#t hf
 aug-cc-pvdz iop(5/13=1,5/36=2,99/5=2) pseudo=read geom=check guess=(re
 ad,tcheck) scf=(maxcycle=1)\\title\\0,1\H,0,3.116786,-0.78826,0.00056\
 O,0,2.735639,0.093683,0.00044\C,0,1.373199,0.017748,0.000224\C,0,0.668
 712,1.215805,0.0001\C,0,-0.716148,1.204908,-0.000127\C,0,-1.376998,-0.
 007949,-0.000224\C,0,-0.698956,-1.207093,-0.000104\C,0,0.690067,-1.191
 393,0.000121\H,0,1.238308,-2.127366,0.000215\H,0,-1.285478,2.125134,-0
 .000227\H,0,1.218927,2.147554,0.000183\H,0,-1.250748,-2.137793,-0.0001

 Normal termination of Gaussian 16 at Wed Apr  9 01:00:36 2025.
