 Gaussian 16, Revision C.01,

 ----------------------------------------------------------------------
 #t hf aug-cc-pvdz symm=none int=(grid=ultrafine) guess=(read,tcheck) s
 table=(opt,rrhf)
 ----------------------------------------------------------------------
 -----
 title
 -----
 Symbolic Z-matrix:
 Charge =  0 Multiplicity = 1

 SCF Done:  E(RHF) =  -592.718502051     A.U. after   12 cycles

 1\1\GINC-SE338\Stability\RHF\Aug-CC-pVDZ\C5H10S1\OHZDE\09-Apr-2025\0\\
 #t hf aug-cc-pvdz symm=none int=(grid=ultrafine) guess=(read,tcheck) s
 table=(opt,rrhf)\\title\\0,1\C,0,0.436791,-1.197103,0.150177\C,0,-0.34
 8044,-0.000099,-0.384956\S,0,-2.134554,-0.00002,-0.030783\C,0,1.907046
 ,-0.777126,-0.01391\C,0,1.907143,0.777079,-0.013306\C,0,0.436734,1.197
 209,0.149634\H,0,0.188551,-2.126623,-0.362561\H,0,0.194297,-1.333514,1
 .208641\H,0,-0.306557,-0.000384,-1.478477\H,0,2.305839,-1.154779,-0.95
 7468\H,0,2.532984,-1.189156,0.778542\H,0,2.307176,1.155476,-0.956029\H

 Normal termination of Gaussian 16 at Wed Apr  9 01:02:00 2025.
 Gaussian 16:  ES64L-G16RevC.01  3-Jul-2019

 ----------------------------------------------------------------------
 #t hf aug-cc-pvdz iop(5/13=1,5/36=2,99/5=2) pseudo=read geom=check gue
 ss=(read,tcheck) scf=(maxcycle=1)
 ----------------------------------------------------------------------
 -----
 title
 -----
 Structure from the checkpoint file:  "BH10_186_reverse_mol3.chk"
 Charge =  0 Multiplicity = 1

                         Standard orientation:
 ---------------------------------------------------------------------
 Center     Atomic      Atomic             Coordinates (Angstroms)
 Number     Number       Type             X           Y           Z
 ---------------------------------------------------------------------
      1          6           0        0.436791   -1.197103    0.150177
      2          6           0       -0.348044   -0.000099   -0.384956
      3         16           0       -2.134554   -0.000020   -0.030783
      4          6           0        1.907046   -0.777126   -0.013910
      5          6           0        1.907143    0.777079   -0.013306
      6          6           0        0.436734    1.197209    0.149634
      7          1           0        0.188551   -2.126623   -0.362561
      8          1           0        0.194297   -1.333514    1.208641
      9          1           0       -0.306557   -0.000384   -1.478477
     10          1           0        2.305839   -1.154779   -0.957468
     11          1           0        2.532984   -1.189156    0.778542
     12          1           0        2.307176    1.155476   -0.956029
     13          1           0        2.532185    1.188313    0.780267
     14          1           0        0.188816    2.126351   -0.363944
     15          1           0        0.193691    1.334496    1.207849
     16          1           0       -2.022137    0.000381    1.309870
 ---------------------------------------------------------------------

 SCF Done:  E(RHF) =  -593.950991626     A.U. after    2 cycles

 The electronic state is 1-A.
 Alpha  occ. eigenvalues --  -75.67803 -13.12516 -13.10315 -13.03000 -11.46823
 Alpha  occ. eigenvalues --  -11.43900 -11.38287 -11.37935 -11.34379  -8.01723
 Alpha  occ. eigenvalues --   -1.34872  -1.13180  -1.04720  -0.98939  -0.82255
 Alpha  occ. eigenvalues --   -0.81515  -0.67798  -0.64035  -0.58527  -0.57902
 Alpha  occ. eigenvalues --   -0.49409  -0.47187  -0.45899  -0.45604  -0.44410
 Alpha  occ. eigenvalues --   -0.44346  -0.35929  -0.22708
 Alpha virt. eigenvalues --    0.03691   0.04890   0.05766   0.05829   0.05840
 Alpha virt. eigenvalues --    0.05912   0.05965   0.06298   0.06443   0.09154
 Alpha virt. eigenvalues --    0.11127   0.12366   0.13862   0.13892   0.14163

 Mulliken charges:
               1
     1  C   -2.957073
     2  C   -2.038708
     3  S   -0.439409
     4  C   -2.542198
     5  C   -2.541902
     6  C   -2.957745
     7  H    1.383416
     8  H    1.458740
     9  H    1.517379
    10  H    1.311640
    11  H    1.352682
    12  H    1.311744
    13  H    1.352856
    14  H    1.383390
    15  H    1.458529
    16  H    0.946659
 Sum of Mulliken charges =  -0.00000

 Dipole moment (field-independent basis, Debye):
    X=              0.4384    Y=             -0.0004    Z=             -1.0238  Tot=              1.1137

 Test job not archived.
 1\1\GINC-SE338\SP\RHF\Aug-CC-pVDZ\C5H10S1\OHZDE\09-Apr-2025\0\\#t hf a
 ug-cc-pvdz iop(5/13=1,5/36=2,99/5=2) pseudo=read geom=check guess=(rea
 d,tcheck) scf=(maxcycle=1)\\title\\0,1\C,0,0.436791,-1.197103,0.150177
 \C,0,-0.348044,-0.000099,-0.384956\S,0,-2.134554,-0.00002,-0.030783\C,
 0,1.907046,-0.777126,-0.01391\C,0,1.907143,0.777079,-0.013306\C,0,0.43
 6734,1.197209,0.149634\H,0,0.188551,-2.126623,-0.362561\H,0,0.194297,-
 1.333514,1.208641\H,0,-0.306557,-0.000384,-1.478477\H,0,2.305839,-1.15
 4779,-0.957468\H,0,2.532984,-1.189156,0.778542\H,0,2.307176,1.155476,-

 Normal termination of Gaussian 16 at Wed Apr  9 01:02:05 2025.
