 Gaussian 16, Revision C.01,

 ----------------------------------------------------------------------
 #t hf aug-cc-pvdz symm=none int=(grid=ultrafine) guess=(read,tcheck) s
 table=opt
 ----------------------------------------------------------------------
 -----
 title
 -----
 Symbolic Z-matrix:
 Charge =  0 Multiplicity = 2

 SCF Done:  E(UHF) =  -950.905814830     A.U. after   21 cycles
 Normal termination of Gaussian 16 at Wed Apr  9 01:10:17 2025.
 Gaussian 16:  ES64L-G16RevC.01  3-Jul-2019

 ----------------------------------------------------------------------
 #t hf aug-cc-pvdz iop(5/13=1,5/36=2,99/5=2) pseudo=read geom=check gue
 ss=(read,tcheck) scf=(maxcycle=1)
 ----------------------------------------------------------------------
 -----
 title
 -----
 Structure from the checkpoint file:  "BH10_181_forward_mol2.chk"
 Charge =  0 Multiplicity = 2

                         Standard orientation:
 ---------------------------------------------------------------------
 Center     Atomic      Atomic             Coordinates (Angstroms)
 Number     Number       Type             X           Y           Z
 ---------------------------------------------------------------------
      1          7           0        0.669444    0.496811   -0.242991
      2         16           0       -0.017765   -0.967308    0.154953
      3          8           0       -1.530369   -0.513976    0.334609
      4          6           0       -2.268509   -0.078879   -0.839908
      5          6           0       -3.629202    0.370049   -0.362093
      6          1           0       -2.328340   -0.918625   -1.532380
      7          1           0       -1.713106    0.739806   -1.303297
      8          6           0       -3.571278    1.573769    0.570655
      9          1           0       -4.123993   -0.471708    0.129256
     10          1           0       -4.219264    0.606688   -1.252877
     11          6           0        2.114415    0.667640   -0.102592
     12          6           0        2.940791   -0.584454   -0.416959
     13          6           0        2.349762    1.114906    1.356118
     14          6           0        2.481132    1.802789   -1.059929
     15          1           0        2.301949    1.504965   -2.094214
     16          1           0        3.537434    2.055701   -0.951097
     17          1           0        1.883798    2.690093   -0.847561
     18          1           0        2.749365   -1.387190    0.294728
     19          1           0        3.999722   -0.327136   -0.360689
     20          1           0        2.727060   -0.952236   -1.420767
     21          1           0        2.089561    0.320789    2.054074
     22          1           0        1.756640    2.000301    1.588098
     23          1           0        3.406486    1.363449    1.472175
     24          8           0        0.395762   -1.437119    1.452051
     25          8           0        0.096591   -1.807334   -1.018124
     26          1           0       -3.097423    2.427769    0.079636
     27          1           0       -2.997033    1.341704    1.468284
     28          1           0       -4.573247    1.877398    0.878273
 ---------------------------------------------------------------------

 SCF Done:  E(UHF) =  -953.748068689     A.U. after    2 cycles

 The electronic state is 2-A.
 Alpha  occ. eigenvalues --  -75.92666 -21.09730 -21.06034 -21.06004 -15.79459
 Alpha  occ. eigenvalues --  -13.55684 -13.48995 -13.43763 -11.46794 -11.46639
 Alpha  occ. eigenvalues --  -11.40792 -11.40737 -11.40306 -11.36516 -11.36473
 Alpha  occ. eigenvalues --   -8.28073  -1.92107  -1.74559  -1.67239  -1.44912
 Alpha  occ. eigenvalues --   -1.21741  -1.19701  -1.02862  -1.02678  -1.01552
 Alpha  occ. eigenvalues --   -0.92034  -0.85820  -0.77869  -0.68879  -0.67708
 Alpha  occ. eigenvalues --   -0.66283  -0.65212  -0.63497  -0.60108  -0.59469
 Alpha  occ. eigenvalues --   -0.58210  -0.56435  -0.55165  -0.54319  -0.52651
 Alpha  occ. eigenvalues --   -0.52060  -0.49781  -0.49207  -0.47888  -0.46678
 Alpha  occ. eigenvalues --   -0.45403  -0.44879  -0.41138  -0.39797  -0.38518
 Alpha  occ. eigenvalues --   -0.37058  -0.35896  -0.35504
 Alpha virt. eigenvalues --    0.03632   0.04257   0.05059   0.05295   0.05477
 Alpha virt. eigenvalues --    0.05895   0.05922   0.06126   0.06360   0.06756
 Alpha virt. eigenvalues --    0.06893   0.07535   0.08207   0.08559   0.09426

  Beta  occ. eigenvalues --  -75.92738 -21.09742 -21.05921 -21.05788 -15.76369
  Beta  occ. eigenvalues --  -13.55790 -13.49068 -13.44015 -11.46946 -11.46692
  Beta  occ. eigenvalues --  -11.40787 -11.40647 -11.40187 -11.36473 -11.36442
  Beta  occ. eigenvalues --   -8.28169  -1.91950  -1.74415  -1.66832  -1.38768
  Beta  occ. eigenvalues --   -1.21211  -1.16555  -1.02595  -1.02104  -1.01289
  Beta  occ. eigenvalues --   -0.91297  -0.85719  -0.76688  -0.68195  -0.67529
  Beta  occ. eigenvalues --   -0.64925  -0.63354  -0.62175  -0.59583  -0.58782
  Beta  occ. eigenvalues --   -0.56907  -0.55777  -0.54531  -0.53842  -0.52502
  Beta  occ. eigenvalues --   -0.49840  -0.49164  -0.47503  -0.46871  -0.45979
  Beta  occ. eigenvalues --   -0.44418  -0.43652  -0.40480  -0.39339  -0.37189
  Beta  occ. eigenvalues --   -0.36037  -0.34167
  Beta virt. eigenvalues --    0.03649   0.04095   0.04282   0.05103   0.05339
  Beta virt. eigenvalues --    0.05866   0.05913   0.05957   0.06273   0.06445
  Beta virt. eigenvalues --    0.06782   0.07058   0.07617   0.08266   0.08573

 Mulliken charges and spin densities:
               1          2
     1  N   -4.042300   1.205647
     2  S    9.309203  -0.103102
     3  O   -3.695689  -0.001746
     4  C   -1.894984  -0.005901
     5  C   -3.435516   0.002207
     6  H    1.658058  -0.002489
     7  H    1.919863  -0.002016
     8  C   -3.723412  -0.000724
     9  H    1.442787  -0.000198
    10  H    1.293367  -0.000161
    11  C    4.174581  -0.393377
    12  C   -4.299933   0.057900
    13  C   -4.339061   0.131114
    14  C   -4.251592   0.032970
    15  H    1.301589   0.008421
    16  H    1.153591  -0.003448
    17  H    1.304031  -0.004912
    18  H    1.217483   0.002240
    19  H    1.135489  -0.004158
    20  H    1.333323   0.000125
    21  H    1.439906   0.003034
    22  H    1.379627   0.000917
    23  H    1.142880   0.000161
    24  O   -2.666110   0.025801
    25  O   -2.760241   0.051436
    26  H    1.306198  -0.000052
    27  H    1.438971   0.000368
    28  H    1.157892  -0.000058
 Sum of Mulliken charges =  -0.00000   1.00000

 Dipole moment (field-independent basis, Debye):
    X=             -0.4096    Y=              1.6597    Z=             -0.3998  Tot=              1.7556
                          Isotropic Fermi Contact Couplings
        Atom                 a.u.       MegaHertz       Gauss      10(-4) cm-1
     1  N(14)              0.22128      71.49761      25.51212      23.84903
     2  S(33)             -0.10422     -35.79812     -12.77366     -11.94097
     3  O(17)             -0.00125       0.75677       0.27003       0.25243
     4  C(13)             -0.00093      -1.04518      -0.37294      -0.34863
     5  C(13)             -0.00005      -0.05536      -0.01975      -0.01847
     6  H(1)               0.00012       0.54190       0.19336       0.18076
     7  H(1)               0.00028       1.24493       0.44422       0.41526
     8  C(13)             -0.00001      -0.01655      -0.00591      -0.00552

 1\1\GINC-SE247\SP\UHF\Aug-CC-pVDZ\C7H16N1O3S1(2)\OHZDE\09-Apr-2025\0\\
 #t hf aug-cc-pvdz iop(5/13=1,5/36=2,99/5=2) pseudo=read geom=check gue
 ss=(read,tcheck) scf=(maxcycle=1)\\title\\0,2\N,0,0.669444,0.496811,-0
 .242991\S,0,-0.017765,-0.967308,0.154953\O,0,-1.530369,-0.513976,0.334
 609\C,0,-2.268509,-0.078879,-0.839908\C,0,-3.629202,0.370049,-0.362093
 \H,0,-2.32834,-0.918625,-1.53238\H,0,-1.713106,0.739806,-1.303297\C,0,
 -3.571278,1.573769,0.570655\H,0,-4.123993,-0.471708,0.129256\H,0,-4.21
 9264,0.606688,-1.252877\C,0,2.114415,0.66764,-0.102592\C,0,2.940791,-0

 Normal termination of Gaussian 16 at Wed Apr  9 01:10:46 2025.
