 Gaussian 16, Revision C.01,

 ----------------------------------------------------------------------
 #t hf aug-cc-pvdz symm=none int=(grid=ultrafine) guess=(read,tcheck) s
 table=opt
 ----------------------------------------------------------------------
 -----
 title
 -----
 Symbolic Z-matrix:
 Charge =  0 Multiplicity = 2

 SCF Done:  E(UHF) =  -2063.98463033     A.U. after   19 cycles
 Normal termination of Gaussian 16 at Wed Apr  9 02:12:35 2025.
 Gaussian 16:  ES64L-G16RevC.01  3-Jul-2019

 ----------------------------------------------------------------------
 #t hf aug-cc-pvdz iop(5/13=1,5/36=2,99/5=2) pseudo=read geom=check gue
 ss=(read,tcheck) scf=(maxcycle=1)
 ----------------------------------------------------------------------
 -----
 title
 -----
 Structure from the checkpoint file:  "BH10_293_forward_mol1.chk"
 Charge =  0 Multiplicity = 2

                         Standard orientation:
 ---------------------------------------------------------------------
 Center     Atomic      Atomic             Coordinates (Angstroms)
 Number     Number       Type             X           Y           Z
 ---------------------------------------------------------------------
      1         14           0        0.376275   -0.005322    0.001268
      2         14           0        0.540870    2.200276    0.787319
      3         14           0        2.291278   -0.654261   -1.190106
      4         14           0       -0.302155   -1.579894    1.605056
      5          6           0       -0.866181   -3.149605    0.738734
      6          1           0       -0.061651   -3.599702    0.154216
      7          1           0       -1.205470   -3.888752    1.469932
      8          1           0       -1.696048   -2.947215    0.058545
      9          6           0        1.181581   -1.963821    2.703540
     10          1           0        1.545784   -1.070083    3.215371
     11          1           0        0.912163   -2.698699    3.467613
     12          1           0        2.011024   -2.377027    2.124744
     13          6           0       -1.706570   -0.920517    2.667480
     14          1           0       -2.621731   -0.791997    2.085327
     15          1           0       -1.927158   -1.627942    3.472212
     16          1           0       -1.455744    0.036559    3.130755
     17          6           0        2.262780   -2.510575   -1.496352
     18          1           0        3.124676   -2.811004   -2.098949
     19          1           0        2.300221   -3.073458   -0.561017
     20          1           0        1.360220   -2.812079   -2.032705
     21          6           0        2.324227    0.248203   -2.838712
     22          1           0        2.375605    1.330290   -2.701938
     23          1           0        3.193054   -0.056870   -3.428939
     24          1           0        1.426596    0.031474   -3.422208
     25          6           0        3.830929   -0.217378   -0.194395
     26          1           0        3.828167   -0.705365    0.783072
     27          1           0        4.733170   -0.537103   -0.723706
     28          1           0        3.909523    0.859562   -0.028812
     29          6           0       -1.133084    2.944175    1.218225
     30          1           0       -0.994601    3.934926    1.660740
     31          1           0       -1.762453    3.063670    0.334156
     32          1           0       -1.679889    2.331900    1.937979
     33          6           0        1.602212    2.164982    2.344692
     34          1           0        2.580438    1.717288    2.156056
     35          1           0        1.765601    3.179101    2.720692
     36          1           0        1.121082    1.590697    3.139975
     37          6           0        1.371237    3.284119   -0.507839
     38          1           0        1.434566    4.318358   -0.157783
     39          1           0        2.386716    2.945060   -0.723673
     40          1           0        0.814012    3.283096   -1.447455
     41          1           0       -0.791938   -0.115112   -1.231653
     42         16           0       -1.927288   -0.378026   -2.403495
     43          6           0       -3.025778    0.924859   -1.757745
     44          6           0       -3.535016    0.619432   -0.357476
     45          8           0       -4.167456   -0.638129   -0.268416
     46          1           0       -2.513501    1.887875   -1.778502
     47          1           0       -3.860728    0.973699   -2.459885
     48          1           0       -2.701932    0.682194    0.351032
     49          1           0       -4.275263    1.366811   -0.062839
     50          1           0       -3.624023   -1.261132   -0.769539
 ---------------------------------------------------------------------

 SCF Done:  E(UHF) =  -2067.47169067     A.U. after    2 cycles

 The electronic state is 2-A.
 Alpha  occ. eigenvalues --  -76.19437 -76.18935 -76.18919 -76.18664 -75.68290
 Alpha  occ. eigenvalues --  -21.05858 -13.12972 -13.10685 -13.06020 -11.44643
 Alpha  occ. eigenvalues --  -11.39642 -11.35954 -11.35739 -11.35390 -11.35310
 Alpha  occ. eigenvalues --  -11.35176 -11.35036 -11.34976 -11.34652 -11.34538
 Alpha  occ. eigenvalues --   -8.01964  -5.53464  -5.52984  -5.52967  -5.52553
 Alpha  occ. eigenvalues --   -2.17432  -2.17358  -2.17056  -2.16933  -2.16861
 Alpha  occ. eigenvalues --   -2.16810  -2.16781  -2.16653  -2.16567  -2.15008
 Alpha  occ. eigenvalues --   -2.14424  -2.14260  -1.70715  -1.20386  -1.08404
 Alpha  occ. eigenvalues --   -1.07704  -1.07301  -1.01856  -1.01529  -1.01345
 Alpha  occ. eigenvalues --   -1.01227  -1.00941  -1.00586  -1.00467  -0.85645
 Alpha  occ. eigenvalues --   -0.78052  -0.66359  -0.65308  -0.64937  -0.62935
 Alpha  occ. eigenvalues --   -0.60544  -0.58336  -0.57778  -0.57669  -0.57214
 Alpha  occ. eigenvalues --   -0.56836  -0.56574  -0.56507  -0.56268  -0.56149
 Alpha  occ. eigenvalues --   -0.55531  -0.55360  -0.54942  -0.54756  -0.54416
 Alpha  occ. eigenvalues --   -0.54249  -0.53855  -0.53664  -0.53380  -0.53247
 Alpha  occ. eigenvalues --   -0.52696  -0.46525  -0.40999  -0.40200  -0.40046
 Alpha  occ. eigenvalues --   -0.39831  -0.39478  -0.39270  -0.38938  -0.38446
 Alpha  occ. eigenvalues --   -0.31866  -0.29773  -0.29571  -0.24302  -0.18832
 Alpha virt. eigenvalues --    0.03149   0.04098   0.04484   0.04576   0.04899
 Alpha virt. eigenvalues --    0.04967   0.05394   0.05602   0.05647   0.05853
 Alpha virt. eigenvalues --    0.05956   0.06259   0.06358   0.06483   0.06565

  Beta  occ. eigenvalues --  -76.19442 -76.18946 -76.18929 -76.18343 -75.67540
  Beta  occ. eigenvalues --  -21.05857 -13.11752 -13.07072 -13.05524 -11.44664
  Beta  occ. eigenvalues --  -11.39687 -11.35933 -11.35741 -11.35373 -11.35293
  Beta  occ. eigenvalues --  -11.35157 -11.35030 -11.34958 -11.34655 -11.34542
  Beta  occ. eigenvalues --   -8.01112  -5.53471  -5.53000  -5.52982  -5.52077
  Beta  occ. eigenvalues --   -2.17423  -2.17328  -2.16928  -2.16882  -2.16837
  Beta  occ. eigenvalues --   -2.16779  -2.16760  -2.16562  -2.15453  -2.14292
  Beta  occ. eigenvalues --   -2.14106  -2.13968  -1.70707  -1.18328  -1.08336
  Beta  occ. eigenvalues --   -1.07676  -1.07276  -1.01466  -1.01436  -1.01190
  Beta  occ. eigenvalues --   -1.00904  -1.00590  -1.00529  -0.98775  -0.84587
  Beta  occ. eigenvalues --   -0.75275  -0.66038  -0.65263  -0.64927  -0.62746
  Beta  occ. eigenvalues --   -0.59612  -0.57893  -0.57687  -0.57632  -0.57152
  Beta  occ. eigenvalues --   -0.56799  -0.56543  -0.56374  -0.56216  -0.56021
  Beta  occ. eigenvalues --   -0.55339  -0.55120  -0.54866  -0.54689  -0.54375
  Beta  occ. eigenvalues --   -0.54209  -0.53855  -0.53637  -0.53259  -0.53163
  Beta  occ. eigenvalues --   -0.52419  -0.45466  -0.40877  -0.40184  -0.39816
  Beta  occ. eigenvalues --   -0.39776  -0.39291  -0.39134  -0.38954  -0.37946
  Beta  occ. eigenvalues --   -0.31719  -0.29363  -0.29189  -0.23432
  Beta virt. eigenvalues --    0.03034   0.03875   0.04118   0.04518   0.04626
  Beta virt. eigenvalues --    0.04948   0.05241   0.05547   0.05624   0.05660
  Beta virt. eigenvalues --    0.05900   0.05991   0.06362   0.06487   0.06570

 Mulliken charges and spin densities:
               1          2
     1  Si   1.285099   0.880601
     2  Si   9.405412  -0.045744
     3  Si   9.347651  -0.077791
     4  Si  10.556750  -0.054341
     5  C   -6.952231  -0.012226
     6  H    1.352041   0.002245
     7  H    0.921344  -0.001255
     8  H    1.189913  -0.003937
     9  C   -6.899907  -0.008372
    10  H    1.398139  -0.009653
    11  H    1.023005  -0.012591
    12  H    1.176084   0.001938
    13  C   -7.124483  -0.015868
    14  H    1.398948  -0.001621
    15  H    0.887147  -0.001485
    16  H    1.255491   0.008989
    17  C   -7.052548   0.002132
    18  H    1.036658  -0.002015
    19  H    1.209637   0.007562
    20  H    1.254097   0.000471
    21  C   -6.929043  -0.001424
    22  H    1.378719   0.004229
    23  H    1.031998  -0.003653
    24  H    1.029474   0.000418
    25  C   -6.838855   0.003262
    26  H    1.338873  -0.005714
    27  H    1.041772  -0.004229
    28  H    1.262282  -0.000765
    29  C   -6.963058  -0.021759
    30  H    0.849206  -0.005057
    31  H    1.348364   0.008610
    32  H    1.421360   0.000694
    33  C   -6.814060  -0.011952
    34  H    1.395843  -0.010404
    35  H    1.019089  -0.002226
    36  H    1.241963  -0.014853
    37  C   -6.967825  -0.001538
    38  H    1.000111  -0.003653
    39  H    1.170036   0.005724
    40  H    1.299380   0.001159
    41  H    1.342566  -0.261749
    42  S   -1.122350   0.719554
    43  C   -4.995013  -0.105370
    44  C   -1.277574   0.020688
    45  O   -3.010755   0.004478
    46  H    1.782292   0.003213
    47  H    1.520026   0.008296
    48  H    3.305112   0.042376
    49  H    1.453255  -0.004754
    50  H    1.018562  -0.020637
 Sum of Mulliken charges =   0.00000   1.00000

 Dipole moment (field-independent basis, Debye):
    X=              1.6946    Y=              0.1618    Z=             -0.0208  Tot=              1.7024
                          Isotropic Fermi Contact Couplings
        Atom                 a.u.       MegaHertz       Gauss      10(-4) cm-1
     1  Si(29)             0.16083    -142.93148     -51.00151     -47.67681
     2  Si(29)            -0.00304       2.70026       0.96352       0.90071
     3  Si(29)            -0.00918       8.15686       2.91057       2.72083
     4  Si(29)            -0.00781       6.93859       2.47586       2.31446
     5  C(13)             -0.00122      -1.37611      -0.49103      -0.45902
     6  H(1)               0.00002       0.10959       0.03911       0.03656
     7  H(1)              -0.00022      -0.98360      -0.35097      -0.32809
     8  H(1)              -0.00002      -0.09698      -0.03461      -0.03235

 Normal termination of Gaussian 16 at Wed Apr  9 02:15:17 2025.
