 Gaussian 16, Revision C.01,

 ----------------------------------------------------------------------
 #t hf aug-cc-pvdz symm=none int=(grid=ultrafine) guess=(read,tcheck) s
 table=(opt,rrhf)
 ----------------------------------------------------------------------
 -----
 title
 -----
 Symbolic Z-matrix:
 Charge =  0 Multiplicity = 1

 SCF Done:  E(RHF) =  -1155.50155955     A.U. after   17 cycles
 Normal termination of Gaussian 16 at Wed Apr  9 02:55:52 2025.
 Gaussian 16:  ES64L-G16RevC.01  3-Jul-2019

 ----------------------------------------------------------------------
 #t hf aug-cc-pvdz iop(5/13=1,5/36=2,99/5=2) pseudo=read geom=check gue
 ss=(read,tcheck) scf=(maxcycle=1)
 ----------------------------------------------------------------------
 -----
 title
 -----
 Structure from the checkpoint file:  "BH10_401_forward_mol1.chk"
 Charge =  0 Multiplicity = 1

                         Standard orientation:
 ---------------------------------------------------------------------
 Center     Atomic      Atomic             Coordinates (Angstroms)
 Number     Number       Type             X           Y           Z
 ---------------------------------------------------------------------
      1          6           0        0.042101   -2.587548    0.080725
      2          1           0       -0.342214   -3.365581   -0.604927
      3          6           0        1.209212   -1.865766   -0.567011
      4          6           0       -0.252545    0.130975   -0.872163
      5          1           0       -0.433107    0.962437   -0.194101
      6          1           0       -0.298884    0.538236   -1.886670
      7          6           0       -1.389281   -0.874823   -0.672618
      8          1           0       -1.466923   -1.516964   -1.571687
      9          7           0       -1.029808   -1.698491    0.474422
     10          6           0        2.168392    0.374131   -0.212731
     11          6           0        2.344053   -2.627079   -0.819169
     12          1           0        2.803882   -2.593054   -1.788499
     13          1           0        2.390339   -3.615829   -0.360766
     14          6           0        3.430399   -0.138298    0.115077
     15          6           0        4.043953   -1.206936   -0.513844
     16          6           0        1.122059   -0.461696   -0.657160
     17          1           0        3.991809   -1.196159   -1.590511
     18          1           0        3.924453    0.265913    0.996970
     19          6           0        5.274645   -1.860390    0.050219
     20          1           0        5.355032   -2.899025   -0.275958
     21          1           0        6.180007   -1.345683   -0.288317
     22          1           0        5.264757   -1.850936    1.141284
     23          6           0       -2.150903   -2.416299    1.047555
     24          1           0       -2.652134   -3.052360    0.294600
     25          1           0       -1.770881   -3.078249    1.828873
     26          6           0       -2.716980   -0.166065   -0.504762
     27          6           0       -3.540590   -0.406332    0.593714
     28          6           0       -3.138104   -1.422685    1.629167
     29          1           0       -2.670966   -0.920356    2.481815
     30          1           0       -4.024323   -1.942146    2.002371
     31          1           0        0.421964   -3.106687    0.967859
     32          6           0       -4.744233    0.287209    0.708812
     33          1           0       -5.382166    0.093197    1.564738
     34          6           0       -3.129291    0.746401   -1.475976
     35          1           0       -2.503531    0.922632   -2.343352
     36          6           0       -5.138059    1.204520   -0.249319
     37          1           0       -6.077576    1.733337   -0.143208
     38          6           0       -4.326001    1.430623   -1.354078
     39          1           0       -4.626987    2.136036   -2.119177
     40         14           0        1.855281    2.160866    0.358359
     41          6           0        0.744917    2.231245    1.877027
     42          1           0        1.187514    1.649126    2.689333
     43          1           0        0.646193    3.263884    2.223817
     44          1           0       -0.258577    1.839919    1.705567
     45          6           0        3.501642    2.931500    0.842634
     46          1           0        4.229459    2.874396    0.030261
     47          1           0        3.352601    3.987388    1.084873
     48          1           0        3.943426    2.456626    1.721360
     49          6           0        1.147778    3.209809   -1.034737
     50          1           0        0.114282    2.960100   -1.276460
     51          1           0        1.175539    4.265742   -0.751651
     52          1           0        1.742745    3.096400   -1.944585
 ---------------------------------------------------------------------

 SCF Done:  E(RHF) =  -1160.00908042     A.U. after    2 cycles

 The electronic state is 1-A.
 Alpha  occ. eigenvalues --  -76.17599 -15.69945 -11.52160 -11.51665 -11.50819
 Alpha  occ. eigenvalues --  -11.46854 -11.45971 -11.45463 -11.44839 -11.43421
 Alpha  occ. eigenvalues --  -11.42213 -11.41346 -11.40943 -11.40720 -11.40383
 Alpha  occ. eigenvalues --  -11.38928 -11.38492 -11.38358 -11.36124 -11.35636
 Alpha  occ. eigenvalues --  -11.34397 -11.34105 -11.33571  -5.51790  -2.16979
 Alpha  occ. eigenvalues --   -2.16064  -2.15578  -1.49422  -1.33912  -1.29628
 Alpha  occ. eigenvalues --   -1.20182  -1.16939  -1.14672  -1.09846  -1.07097
 Alpha  occ. eigenvalues --   -1.05902  -1.03647  -1.00150  -0.99660  -0.98732
 Alpha  occ. eigenvalues --   -0.94111  -0.90422  -0.87139  -0.85473  -0.84596
 Alpha  occ. eigenvalues --   -0.79672  -0.76877  -0.70270  -0.68780  -0.67388
 Alpha  occ. eigenvalues --   -0.65331  -0.64967  -0.63791  -0.61628  -0.61433
 Alpha  occ. eigenvalues --   -0.59155  -0.58762  -0.58191  -0.56889  -0.56208
 Alpha  occ. eigenvalues --   -0.55866  -0.55630  -0.54974  -0.53979  -0.53733
 Alpha  occ. eigenvalues --   -0.53316  -0.53083  -0.52705  -0.52133  -0.51290
 Alpha  occ. eigenvalues --   -0.50633  -0.49527  -0.49098  -0.47319  -0.46491
 Alpha  occ. eigenvalues --   -0.45739  -0.44016  -0.42316  -0.39955  -0.38343
 Alpha  occ. eigenvalues --   -0.38113  -0.37675  -0.35933  -0.32566  -0.31534
 Alpha  occ. eigenvalues --   -0.30412  -0.28640  -0.26229
 Alpha virt. eigenvalues --    0.03751   0.04092   0.04272   0.04620   0.05141
 Alpha virt. eigenvalues --    0.05206   0.05320   0.05445   0.05529   0.05887
 Alpha virt. eigenvalues --    0.06073   0.06209   0.06712   0.06880   0.07164

 Mulliken charges:
               1
     1  C   -6.691340
     2  H    1.073303
     3  C    6.211171
     4  C   -4.714142
     5  H    1.498969
     6  H    1.482107
     7  C   -4.001379
     8  H    1.478771
     9  N   -1.684073
    10  C   -0.545493
    11  C   -6.482045
    12  H    1.167543
    13  H    1.596257
    14  C   -1.238727
    15  C   -2.273622
    16  C    4.263001
    17  H    1.765966
    18  H    1.929763
    19  C   -5.728538
    20  H    1.342598
    21  H    1.150122
    22  H    1.338906
    23  C   -5.281735
    24  H    1.742221
    25  H    1.663611
    26  C    9.831586
    27  C    4.652869
    28  C   -5.959323
    29  H    0.931205
    30  H    0.995565
    31  H    1.299700
    32  C   -3.809634
    33  H    1.856083
    34  C   -2.875195
    35  H    2.028577
    36  C   -2.695079
    37  H    1.611183
    38  C   -3.659130
    39  H    1.668751
    40  Si  13.272815
    41  C   -6.546804
    42  H    0.861637
    43  H    0.982961
    44  H    1.277576
    45  C   -6.807559
    46  H    0.994361
    47  H    0.900478
    48  H    1.308101
    49  C   -6.432492
    50  H    1.258382
    51  H    1.139100
    52  H    0.851070
 Sum of Mulliken charges =  -0.00000

 Dipole moment (field-independent basis, Debye):
    X=              0.1907    Y=             -1.1796    Z=              0.2282  Tot=              1.2165

 Test job not archived.
 1\1\GINC-SE331\SP\RHF\Aug-CC-pVDZ\C21H29N1Si1\OHZDE\09-Apr-2025\0\\#t
 hf aug-cc-pvdz iop(5/13=1,5/36=2,99/5=2) pseudo=read geom=check guess=
 (read,tcheck) scf=(maxcycle=1)\\title\\0,1\C,0,0.042101,-2.587548,0.08
 0725\H,0,-0.342214,-3.365581,-0.604927\C,0,1.209212,-1.865766,-0.56701
 1\C,0,-0.252545,0.130975,-0.872163\H,0,-0.433107,0.962437,-0.194101\H,
 0,-0.298884,0.538236,-1.88667\C,0,-1.389281,-0.874823,-0.672618\H,0,-1
 .466923,-1.516964,-1.571687\N,0,-1.029808,-1.698491,0.474422\C,0,2.168
 392,0.374131,-0.212731\C,0,2.344053,-2.627079,-0.819169\H,0,2.803882,-

 Normal termination of Gaussian 16 at Wed Apr  9 02:58:33 2025.
