 Gaussian 16, Revision C.01,

 ----------------------------------------------------------------------
 #t hf aug-cc-pvdz symm=none int=(grid=ultrafine) guess=(read,tcheck) s
 table=opt
 ----------------------------------------------------------------------
 -----
 title
 -----
 Symbolic Z-matrix:
 Charge =  0 Multiplicity = 2

 SCF Done:  E(UHF) =  -1512.37309633     A.U. after   15 cycles
 Normal termination of Gaussian 16 at Wed Apr  9 01:36:24 2025.
 Gaussian 16:  ES64L-G16RevC.01  3-Jul-2019

 ----------------------------------------------------------------------
 #t hf aug-cc-pvdz iop(5/13=1,5/36=2,99/5=2) pseudo=read geom=check gue
 ss=(read,tcheck) scf=(maxcycle=1)
 ----------------------------------------------------------------------
 -----
 title
 -----
 Structure from the checkpoint file:  "BH10_291_forward_mol3.chk"
 Charge =  0 Multiplicity = 2

                         Standard orientation:
 ---------------------------------------------------------------------
 Center     Atomic      Atomic             Coordinates (Angstroms)
 Number     Number       Type             X           Y           Z
 ---------------------------------------------------------------------
      1         14           0       -0.000493    0.000060   -0.628883
      2         14           0       -2.264306    0.037055   -0.050547
      3         14           0        1.164004    1.941542   -0.050597
      4         14           0        1.100158   -1.978573   -0.050564
      5          6           0       -3.244162   -1.163276   -1.119075
      6          1           0       -4.299339   -1.164543   -0.830696
      7          1           0       -3.184839   -0.891370   -2.175272
      8          1           0       -2.868582   -2.183762   -1.017772
      9          6           0       -2.457279   -0.465634    1.758204
     10          1           0       -3.509379   -0.438659    2.057478
     11          1           0       -2.088587   -1.479434    1.931069
     12          1           0       -1.903188    0.205656    2.418231
     13          6           0       -2.961803    1.772967   -0.271452
     14          1           0       -4.026128    1.793821   -0.020189
     15          1           0       -2.455291    2.493324    0.375131
     16          1           0       -2.855281    2.117652   -1.302481
     17          6           0        0.831491    2.355408    1.760527
     18          1           0        1.139080    1.538516    2.417405
     19          1           0        1.381467    3.252663    2.059964
     20          1           0       -0.230270    2.541936    1.938221
     21          6           0        3.015400    1.678885   -0.278180
     22          1           0        3.257389    1.416991   -1.310654
     23          1           0        3.566141    2.589714   -0.026310
     24          1           0        3.388186    0.878491    0.365166
     25          6           0        0.610117    3.392273   -1.114077
     26          1           0        0.811532    3.206910   -2.171462
     27          1           0       -0.460986    3.576902   -1.007897
     28          1           0        1.137781    4.306180   -0.826122
     29          6           0        2.629102   -2.226185   -1.119942
     30          1           0        3.324567   -1.390153   -1.018818
     31          1           0        3.158466   -3.139182   -0.832220
     32          1           0        2.363271   -2.310582   -2.175985
     33          6           0        1.632445   -1.893923    1.758041
     34          1           0        2.135886   -2.818214    2.057095
     35          1           0        2.325382   -1.067123    1.930953
     36          1           0        0.774062   -1.750575    2.418321
     37          6           0       -0.054382   -3.450656   -0.270700
     38          1           0        0.459209   -4.382677   -0.017862
     39          1           0       -0.932077   -3.371077    0.374904
     40          1           0       -0.405130   -3.531730   -1.302001
 ---------------------------------------------------------------------

 SCF Done:  E(UHF) =  -1514.89456310     A.U. after    2 cycles

 The electronic state is 2-A.
 Alpha  occ. eigenvalues --  -76.18457 -76.18456 -76.18430 -76.17554 -11.34670
 Alpha  occ. eigenvalues --  -11.34532 -11.34531 -11.34300 -11.34300 -11.34240
 Alpha  occ. eigenvalues --  -11.34090 -11.34089 -11.33939  -5.52463  -5.52463
 Alpha  occ. eigenvalues --   -5.52460  -5.51473  -2.16280  -2.16279  -2.16256
 Alpha  occ. eigenvalues --   -2.16131  -2.16129  -2.16103  -2.15743  -2.15743
 Alpha  occ. eigenvalues --   -2.14256  -2.13373  -2.13358  -2.13357  -1.07563
 Alpha  occ. eigenvalues --   -1.06906  -1.06903  -1.00649  -1.00644  -1.00538
 Alpha  occ. eigenvalues --   -1.00302  -1.00172  -1.00168  -0.75878  -0.64409
 Alpha  occ. eigenvalues --   -0.64406  -0.58696  -0.57030  -0.57027  -0.56404
 Alpha  occ. eigenvalues --   -0.56234  -0.56232  -0.55727  -0.55725  -0.55584
 Alpha  occ. eigenvalues --   -0.54500  -0.54218  -0.54215  -0.53837  -0.53834
 Alpha  occ. eigenvalues --   -0.53484  -0.53005  -0.52841  -0.52778  -0.52771
 Alpha  occ. eigenvalues --   -0.39699  -0.39364  -0.39363  -0.38746  -0.38745
 Alpha  occ. eigenvalues --   -0.38448  -0.28840  -0.28837  -0.24720
 Alpha virt. eigenvalues --    0.03160   0.04644   0.04645   0.05477   0.05478
 Alpha virt. eigenvalues --    0.05728   0.05873   0.05875   0.05879   0.06166
 Alpha virt. eigenvalues --    0.06644   0.06668   0.06669   0.06731   0.06732

  Beta  occ. eigenvalues --  -76.18482 -76.18481 -76.18455 -76.17062 -11.34650
  Beta  occ. eigenvalues --  -11.34529 -11.34529 -11.34243 -11.34242 -11.34201
  Beta  occ. eigenvalues --  -11.34086 -11.34086 -11.33934  -5.52502  -5.52501
  Beta  occ. eigenvalues --   -5.52499  -5.50746  -2.16293  -2.16292  -2.16280
  Beta  occ. eigenvalues --   -2.16153  -2.16150  -2.16122  -2.15717  -2.15717
  Beta  occ. eigenvalues --   -2.14089  -2.12949  -2.12948  -2.10178  -1.07455
  Beta  occ. eigenvalues --   -1.06862  -1.06859  -1.00580  -1.00575  -1.00412
  Beta  occ. eigenvalues --   -1.00312  -1.00133  -1.00128  -0.72440  -0.64399
  Beta  occ. eigenvalues --   -0.64397  -0.58229  -0.56971  -0.56968  -0.56293
  Beta  occ. eigenvalues --   -0.56208  -0.56206  -0.55713  -0.55711  -0.55506
  Beta  occ. eigenvalues --   -0.54262  -0.54182  -0.54180  -0.53762  -0.53758
  Beta  occ. eigenvalues --   -0.53475  -0.52859  -0.52754  -0.52748  -0.50237
  Beta  occ. eigenvalues --   -0.39297  -0.39297  -0.38916  -0.38468  -0.38467
  Beta  occ. eigenvalues --   -0.38461  -0.28038  -0.28034
  Beta virt. eigenvalues --    0.02642   0.03236   0.04652   0.04652   0.05513
  Beta virt. eigenvalues --    0.05515   0.05892   0.05893   0.05896   0.06147
  Beta virt. eigenvalues --    0.06297   0.06679   0.06680   0.06697   0.06736

 Mulliken charges and spin densities:
               1          2
     1  Si  -1.752510   1.779792
     2  Si   9.565165  -0.047488
     3  Si   9.558332  -0.048469
     4  Si   9.562589  -0.048334
     5  C   -6.447850  -0.083316
     6  H    1.050929  -0.011582
     7  H    1.175135  -0.053353
     8  H    1.165109   0.022015
     9  C   -6.616611   0.002275
    10  H    0.992636  -0.015784
    11  H    1.303674  -0.008218
    12  H    1.361353  -0.001266
    13  C   -6.644714  -0.030517
    14  H    1.057005  -0.004401
    15  H    1.279400   0.005484
    16  H    1.344637  -0.033023
    17  C   -6.615512   0.002130
    18  H    1.363205  -0.001134
    19  H    0.992450  -0.015746
    20  H    1.302460  -0.008392
    21  C   -6.642320  -0.030884
    22  H    1.343812  -0.033379
    23  H    1.056701  -0.004428
    24  H    1.279684   0.005451
    25  C   -6.448406  -0.082737
    26  H    1.174361  -0.053121
    27  H    1.167311   0.021979
    28  H    1.050730  -0.011543
    29  C   -6.448299  -0.083247
    30  H    1.167606   0.022041
    31  H    1.050524  -0.011584
    32  H    1.174519  -0.053446
    33  C   -6.615714   0.002024
    34  H    0.992879  -0.015765
    35  H    1.304556  -0.008419
    36  H    1.360580  -0.001270
    37  C   -6.645540  -0.030366
    38  H    1.055880  -0.004379
    39  H    1.280689   0.005476
    40  H    1.343565  -0.033075
 Sum of Mulliken charges =   0.00000   1.00000

 Dipole moment (field-independent basis, Debye):
    X=             -0.0002    Y=             -0.0011    Z=             -0.0345  Tot=              0.0345
                          Isotropic Fermi Contact Couplings
        Atom                 a.u.       MegaHertz       Gauss      10(-4) cm-1
     1  Si(29)             0.20360    -180.94478     -64.56560     -60.35668
     2  Si(29)            -0.02108      18.73740       6.68597       6.25013
     3  Si(29)            -0.02110      18.75287       6.69149       6.25529
     4  Si(29)            -0.02110      18.74800       6.68975       6.25366
     5  C(13)              0.00089       0.99552       0.35523       0.33207
     6  H(1)              -0.00020      -0.89958      -0.32099      -0.30007
     7  H(1)               0.00004       0.16501       0.05888       0.05504
     8  H(1)              -0.00002      -0.08656      -0.03089      -0.02887

 Normal termination of Gaussian 16 at Wed Apr  9 01:37:39 2025.
