 Gaussian 16, Revision C.01,

 ----------------------------------------------------------------------
 #t hf aug-cc-pvdz symm=none int=(grid=ultrafine) guess=(read,tcheck) s
 table=(opt,rrhf)
 ----------------------------------------------------------------------
 -----
 title
 -----
 Symbolic Z-matrix:
 Charge =  0 Multiplicity = 1

 SCF Done:  E(RHF) =  -1437.75244194     A.U. after   14 cycles
 Normal termination of Gaussian 16 at Wed Apr  9 01:50:36 2025.
 Gaussian 16:  ES64L-G16RevC.01  3-Jul-2019

 ----------------------------------------------------------------------
 #t hf aug-cc-pvdz iop(5/13=1,5/36=2,99/5=2) pseudo=read geom=check gue
 ss=(read,tcheck) scf=(maxcycle=1)
 ----------------------------------------------------------------------
 -----
 title
 -----
 Structure from the checkpoint file:  "BH10_327_reverse_mol2.chk"
 Charge =  0 Multiplicity = 1

                         Standard orientation:
 ---------------------------------------------------------------------
 Center     Atomic      Atomic             Coordinates (Angstroms)
 Number     Number       Type             X           Y           Z
 ---------------------------------------------------------------------
      1         16           0       -1.400889    1.532448    0.529859
      2          6           0       -2.370379    0.591278   -0.719603
      3         16           0        0.152158    2.361155   -0.562498
      4          6           0        1.270748    0.951326   -0.865209
      5          6           0        1.707345    0.189036    0.383061
      6          1           0        2.135228    1.402396   -1.361765
      7          1           0        0.800109    0.267697   -1.566571
      8          6           0       -2.634837   -0.849945   -0.264806
      9          1           0       -1.817608    0.610871   -1.656024
     10          1           0       -3.327703    1.092637   -0.847077
     11          7           0        2.530224    1.007061    1.271008
     12          6           0        2.510123   -1.032630   -0.077480
     13          1           0        0.820114   -0.196950    0.890032
     14          8           0        2.018490   -1.940779   -0.706650
     15          8           0        3.786575   -0.999353    0.244619
     16          7           0       -3.482180   -0.869623    0.909424
     17          6           0       -1.312000   -1.584935   -0.067021
     18          1           0       -3.162564   -1.337539   -1.089328
     19          8           0       -0.915519   -1.971669    1.002315
     20          8           0       -0.624288   -1.696033   -1.200289
     21          1           0        0.295753   -2.008977   -1.009481
     22          1           0        3.899585   -0.159732    0.750706
     23          1           0       -3.920923   -1.775274    1.020289
     24          1           0       -2.921036   -0.722801    1.742806
     25          1           0        2.294545    0.850139    2.243633
     26          1           0        2.399814    1.995711    1.088355
 ---------------------------------------------------------------------

 SCF Done:  E(RHF) =  -1441.03946358     A.U. after    2 cycles

 The electronic state is 1-A.
 Alpha  occ. eigenvalues --  -75.72253 -75.71478 -21.12506 -21.10401 -21.06059
 Alpha  occ. eigenvalues --  -21.05063 -15.77562 -15.74137 -13.19814 -13.16727
 Alpha  occ. eigenvalues --  -13.13908 -13.13242 -13.10138 -13.09182 -11.55173
 Alpha  occ. eigenvalues --  -11.54369 -11.48816 -11.47212 -11.43233 -11.41587
 Alpha  occ. eigenvalues --   -8.06163  -8.05445  -1.84817  -1.82744  -1.67850
 Alpha  occ. eigenvalues --   -1.65411  -1.40343  -1.37543  -1.26114  -1.16808
 Alpha  occ. eigenvalues --   -1.08869  -1.01855  -0.94282  -0.87897  -0.80304
 Alpha  occ. eigenvalues --   -0.77835  -0.73745  -0.72240  -0.71105  -0.66736
 Alpha  occ. eigenvalues --   -0.65866  -0.61971  -0.60689  -0.59582  -0.58270
 Alpha  occ. eigenvalues --   -0.57005  -0.54601  -0.52687  -0.51914  -0.50618
 Alpha  occ. eigenvalues --   -0.49880  -0.46897  -0.43847  -0.42515  -0.40942
 Alpha  occ. eigenvalues --   -0.37192  -0.35442  -0.34701  -0.33907  -0.30651
 Alpha  occ. eigenvalues --   -0.29122  -0.27796  -0.24107
 Alpha virt. eigenvalues --    0.03089   0.03546   0.03901   0.04562   0.05533
 Alpha virt. eigenvalues --    0.05685   0.06522   0.07058   0.07517   0.08346
 Alpha virt. eigenvalues --    0.08556   0.09000   0.09597   0.09935   0.11096

 Mulliken charges:
               1
     1  S   -0.373635
     2  C   -3.962233
     3  S   -0.038699
     4  C   -3.866656
     5  C   -0.491605
     6  H    1.327082
     7  H    1.841980
     8  C   -0.096422
     9  H    1.800105
    10  H    1.378147
    11  N   -3.575597
    12  C    6.784166
    13  H    2.454116
    14  O   -3.525373
    15  O   -3.422447
    16  N   -3.148136
    17  C    7.283347
    18  H    1.829493
    19  O   -3.635174
    20  O   -3.689395
    21  H    1.556191
    22  H    1.002060
    23  H    0.544334
    24  H    0.669106
    25  H    0.585709
    26  H    0.769536
 Sum of Mulliken charges =   0.00000

 Dipole moment (field-independent basis, Debye):
    X=              0.0760    Y=              3.1139    Z=              1.3077  Tot=              3.3782

 Test job not archived.
 1\1\GINC-SE095\SP\RHF\Aug-CC-pVDZ\C6H12N2O4S2\OHZDE\09-Apr-2025\0\\#t
 hf aug-cc-pvdz iop(5/13=1,5/36=2,99/5=2) pseudo=read geom=check guess=
 (read,tcheck) scf=(maxcycle=1)\\title\\0,1\S,0,-1.400889,1.532448,0.52
 9859\C,0,-2.370379,0.591278,-0.719603\S,0,0.152158,2.361155,-0.562498\
 C,0,1.270748,0.951326,-0.865209\C,0,1.707345,0.189036,0.383061\H,0,2.1
 35228,1.402396,-1.361765\H,0,0.800109,0.267697,-1.566571\C,0,-2.634837
 ,-0.849945,-0.264806\H,0,-1.817608,0.610871,-1.656024\H,0,-3.327703,1.
 092637,-0.847077\N,0,2.530224,1.007061,1.271008\C,0,2.510123,-1.03263,

 Normal termination of Gaussian 16 at Wed Apr  9 01:51:04 2025.
