 Gaussian 16, Revision C.01,

 ----------------------------------------------------------------------
 #t hf aug-cc-pvdz symm=none int=(grid=ultrafine) guess=(read,tcheck) s
 table=(opt,rrhf)
 ----------------------------------------------------------------------
 -----
 title
 -----
 Symbolic Z-matrix:
 Charge =  0 Multiplicity = 1

 SCF Done:  E(RHF) =  -1125.23397727     A.U. after   16 cycles
 Normal termination of Gaussian 16 at Wed Apr  9 02:18:46 2025.
 Gaussian 16:  ES64L-G16RevC.01  3-Jul-2019

 ----------------------------------------------------------------------
 #t hf aug-cc-pvdz iop(5/13=1,5/36=2,99/5=2) pseudo=read geom=check gue
 ss=(read,tcheck) scf=(maxcycle=1)
 ----------------------------------------------------------------------
 -----
 title
 -----
 Structure from the checkpoint file:  "BH10_299_forward_mol1.chk"
 Charge =  0 Multiplicity = 1

                         Standard orientation:
 ---------------------------------------------------------------------
 Center     Atomic      Atomic             Coordinates (Angstroms)
 Number     Number       Type             X           Y           Z
 ---------------------------------------------------------------------
      1          6           0        0.876355    2.583375   -0.894967
      2          6           0        0.850033    1.769986    0.428352
      3          6           0       -1.937579    0.984020   -0.609883
      4          1           0        1.895869    2.566938   -1.293271
      5          6           0        0.040803    2.498762    1.514073
      6          1           0        0.036064    1.899293    2.428328
      7          1           0        0.565928    3.427295    1.767318
      8          1           0       -2.888446    0.554342   -0.937317
      9          1           0        1.881497    1.768785    0.796280
     10          6           0       -1.394207    2.856118    1.150968
     11          1           0       -1.859222    3.336154    2.018027
     12          1           0       -1.393600    3.617195    0.365757
     13          6           0       -2.278117    1.688262    0.721701
     14          1           0       -2.301590    0.941883    1.522203
     15          1           0       -3.301400    2.069710    0.638760
     16          6           0       -1.539830    1.965297   -1.741344
     17          1           0       -1.996768    1.606821   -2.669286
     18          6           0       -0.044460    2.131755   -2.033180
     19          1           0        0.338509    1.187549   -2.431097
     20          1           0        0.056109    2.849737   -2.853807
     21          1           0       -1.993360    2.943289   -1.553490
     22          1           0        0.674471    3.635050   -0.662728
     23          6           0       -0.923342   -0.179800   -0.474080
     24          1           0       -0.584558   -0.410069   -1.497137
     25         14           0       -1.771917   -1.835873   -0.127310
     26          6           0       -3.067110   -2.113838   -1.469154
     27          1           0       -3.481120   -3.122816   -1.390462
     28          1           0       -3.902278   -1.413977   -1.397599
     29          1           0       -2.633907   -2.012753   -2.467957
     30          6           0       -2.660433   -1.943647    1.528310
     31          1           0       -3.179908   -2.903266    1.602847
     32          1           0       -1.985840   -1.867923    2.381902
     33          1           0       -3.413328   -1.157794    1.623989
     34          6           0       -0.544562   -3.258715   -0.290722
     35          1           0        0.211852   -3.299436    0.494564
     36          1           0       -1.081658   -4.211158   -0.271984
     37          1           0       -0.017452   -3.195414   -1.246200
     38          5           0        0.453856    0.236993    0.203144
     39          6           0        2.952305   -0.693785    1.524411
     40          1           0        3.977545   -0.648801    1.858558
     41          6           0        2.717761   -0.777105    0.175422
     42          8           0        1.563984   -0.577535   -0.392595
     43          8           0        3.730690   -1.021942   -0.647527
     44          6           0        3.508220   -0.857972   -2.050847
     45          1           0        2.723933   -1.529580   -2.397672
     46          1           0        4.456479   -1.106148   -2.519761
     47          1           0        3.231502    0.171542   -2.279586
     48          6           0        1.870837   -0.400814    2.385328
     49          1           0        2.104352    0.171850    3.281524
     50          6           0        0.558592   -0.687251    2.110194
     51          1           0       -0.213346   -0.373610    2.799189
     52          1           0        0.342227   -1.569500    1.530206
 ---------------------------------------------------------------------

 SCF Done:  E(RHF) =  -1129.53530172     A.U. after    2 cycles

 The electronic state is 1-A.
 Alpha  occ. eigenvalues --  -76.17013 -21.09898 -21.05890 -11.55944 -11.48711
 Alpha  occ. eigenvalues --  -11.47381 -11.45300 -11.44389 -11.43102 -11.41680
 Alpha  occ. eigenvalues --  -11.41301 -11.39961 -11.38683 -11.37353 -11.36516
 Alpha  occ. eigenvalues --  -11.35276 -11.34985 -11.34437 -11.33794 -11.33601
 Alpha  occ. eigenvalues --   -7.63556  -5.51220  -2.16280  -2.15299  -2.15151
 Alpha  occ. eigenvalues --   -1.88945  -1.73953  -1.32035  -1.23910  -1.18482
 Alpha  occ. eigenvalues --   -1.16425  -1.10687  -1.06610  -1.04551  -1.00129
 Alpha  occ. eigenvalues --   -0.99860  -0.99182  -0.97219  -0.93662  -0.86870
 Alpha  occ. eigenvalues --   -0.85010  -0.82659  -0.76966  -0.73958  -0.69842
 Alpha  occ. eigenvalues --   -0.67933  -0.66647  -0.64680  -0.64282  -0.63265
 Alpha  occ. eigenvalues --   -0.62703  -0.60998  -0.59804  -0.58425  -0.57704
 Alpha  occ. eigenvalues --   -0.57531  -0.56259  -0.56048  -0.55458  -0.55123
 Alpha  occ. eigenvalues --   -0.54011  -0.53661  -0.52897  -0.52353  -0.52033
 Alpha  occ. eigenvalues --   -0.50964  -0.49603  -0.48013  -0.46341  -0.45619
 Alpha  occ. eigenvalues --   -0.44046  -0.43832  -0.43207  -0.42255  -0.40556
 Alpha  occ. eigenvalues --   -0.38861  -0.38558  -0.37866  -0.37001  -0.36699
 Alpha  occ. eigenvalues --   -0.35595  -0.34546  -0.31185  -0.24297
 Alpha virt. eigenvalues --    0.03800   0.04184   0.04479   0.04765   0.05096
 Alpha virt. eigenvalues --    0.05391   0.05489   0.05588   0.05787   0.05937
 Alpha virt. eigenvalues --    0.06031   0.06167   0.06276   0.06628   0.06733

 Mulliken charges:
               1
     1  C   -2.918683
     2  C   -6.501281
     3  C    0.390786
     4  H    1.019567
     5  C   -4.881601
     6  H    1.065172
     7  H    1.405761
     8  H    1.683470
     9  H    1.684292
    10  C   -3.642981
    11  H    1.461045
    12  H    1.429062
    13  C   -5.353753
    14  H    1.371752
    15  H    1.564760
    16  C   -3.962000
    17  H    1.161744
    18  C   -4.853929
    19  H    1.260460
    20  H    1.581723
    21  H    1.374548
    22  H    1.553793
    23  C   -9.912793
    24  H    1.147753
    25  Si  15.496325
    26  C   -6.885117
    27  H    0.962839
    28  H    1.077726
    29  H    0.610778
    30  C   -6.956508
    31  H    0.823895
    32  H    0.920304
    33  H    1.147526
    34  C   -7.026165
    35  H    0.976930
    36  H    0.921923
    37  H    0.882544
    38  B   29.811534
    39  C   -3.322023
    40  H    1.702076
    41  C    6.271887
    42  O   -9.807676
    43  O   -4.313388
    44  C   -4.256231
    45  H    1.730651
    46  H    1.342250
    47  H    1.673410
    48  C   -1.658588
    49  H    1.484885
    50  C   -5.593104
    51  H    1.352368
    52  H    1.500281
 Sum of Mulliken charges =  -0.00000

 Dipole moment (field-independent basis, Debye):
    X=              1.6952    Y=              0.0342    Z=             -1.3353  Tot=              2.1582

 Test job not archived.
 1\1\GINC-SE339\SP\RHF\Aug-CC-pVDZ\C17H31B1O2Si1\OHZDE\09-Apr-2025\0\\#
 t hf aug-cc-pvdz iop(5/13=1,5/36=2,99/5=2) pseudo=read geom=check gues
 s=(read,tcheck) scf=(maxcycle=1)\\title\\0,1\C,0,0.876355,2.583375,-0.
 894967\C,0,0.850033,1.769986,0.428352\C,0,-1.937579,0.98402,-0.609883\
 H,0,1.895869,2.566938,-1.293271\C,0,0.040803,2.498762,1.514073\H,0,0.0
 36064,1.899293,2.428328\H,0,0.565928,3.427295,1.767318\H,0,-2.888446,0
 .554342,-0.937317\H,0,1.881497,1.768785,0.79628\C,0,-1.394207,2.856118
 ,1.150968\H,0,-1.859222,3.336154,2.018027\H,0,-1.3936,3.617195,0.36575

 Normal termination of Gaussian 16 at Wed Apr  9 02:21:53 2025.
