 Gaussian 16, Revision C.01,

 ----------------------------------------------------------------------
 #t hf aug-cc-pvdz symm=none int=(grid=ultrafine) guess=(read,tcheck) s
 table=opt
 ----------------------------------------------------------------------
 -----
 title
 -----
 Symbolic Z-matrix:
 Charge =  0 Multiplicity = 2

 SCF Done:  E(UHF) =  -550.947678049     A.U. after   19 cycles
 Normal termination of Gaussian 16 at Wed Apr  9 01:00:39 2025.
 Gaussian 16:  ES64L-G16RevC.01  3-Jul-2019

 ----------------------------------------------------------------------
 #t hf aug-cc-pvdz iop(5/13=1,5/36=2,99/5=2) pseudo=read geom=check gue
 ss=(read,tcheck) scf=(maxcycle=1)
 ----------------------------------------------------------------------
 -----
 title
 -----
 Structure from the checkpoint file:  "BH10_175_forward_mol3.chk"
 Charge =  0 Multiplicity = 2

                         Standard orientation:
 ---------------------------------------------------------------------
 Center     Atomic      Atomic             Coordinates (Angstroms)
 Number     Number       Type             X           Y           Z
 ---------------------------------------------------------------------
      1         16           0        0.115430   -0.144779   -0.402711
      2          6           0       -1.545496    0.299314    0.199779
      3          1           0       -1.527512    0.309213    1.288057
      4          1           0       -1.827820    1.271562   -0.203271
      5          1           0       -2.222837   -0.471212   -0.163993
      6          6           0        0.992373    1.219507    0.219766
      7          8           0        0.544831   -1.391318    0.312431
      8          1           0        0.721205    2.208081   -0.128743
      9          1           0        1.970177    1.016434    0.634603
 ---------------------------------------------------------------------

 SCF Done:  E(UHF) =  -551.886356559     A.U. after    2 cycles

 The electronic state is 2-A.
 Alpha  occ. eigenvalues --  -75.78900 -21.00053 -13.33914 -13.22379 -13.16612
 Alpha  occ. eigenvalues --  -11.42164 -11.41178  -8.13373  -1.68509  -1.21127
 Alpha  occ. eigenvalues --   -1.05530  -0.88026  -0.64748  -0.62721  -0.61374
 Alpha  occ. eigenvalues --   -0.53257  -0.50673  -0.41230  -0.37168  -0.33978
 Alpha  occ. eigenvalues --   -0.24679
 Alpha virt. eigenvalues --    0.02819   0.04222   0.05261   0.06250   0.07170
 Alpha virt. eigenvalues --    0.08366   0.11851   0.12992   0.13118   0.13520
 Alpha virt. eigenvalues --    0.14426   0.15695   0.17260   0.18262   0.18748

  Beta  occ. eigenvalues --  -75.78956 -21.00100 -13.34040 -13.22688 -13.16594
  Beta  occ. eigenvalues --  -11.41066 -11.39778  -8.13425  -1.68475  -1.19028
  Beta  occ. eigenvalues --   -1.01390  -0.84999  -0.63535  -0.62108  -0.60943
  Beta  occ. eigenvalues --   -0.51207  -0.47839  -0.38370  -0.33379  -0.26443
  Beta virt. eigenvalues --    0.01672   0.03890   0.04916   0.06168   0.06960
  Beta virt. eigenvalues --    0.07236   0.08494   0.11880   0.13215   0.13459
  Beta virt. eigenvalues --    0.14065   0.15079   0.17103   0.17525   0.18562

 Mulliken charges and spin densities:
               1          2
     1  S    3.308572  -0.154444
     2  C   -4.484084   0.074400
     3  H    1.407254  -0.011348
     4  H    1.383513  -0.006641
     5  H    1.382527  -0.002583
     6  C   -3.551583   1.279092
     7  O   -2.345764  -0.019293
     8  H    1.477568  -0.088160
     9  H    1.421996  -0.071023
 Sum of Mulliken charges =  -0.00000   1.00000

 Dipole moment (field-independent basis, Debye):
    X=             -0.6588    Y=              1.4909    Z=             -0.8536  Tot=              1.8400
                          Isotropic Fermi Contact Couplings
        Atom                 a.u.       MegaHertz       Gauss      10(-4) cm-1
     1  S(33)              0.08598      29.53320      10.53818       9.85122
     2  C(13)              0.05991      67.35280      24.03315      22.46648
     3  H(1)              -0.00121      -5.41626      -1.93266      -1.80667
     4  H(1)              -0.00107      -4.76388      -1.69987      -1.58906
     5  H(1)              -0.00052      -2.31020      -0.82434      -0.77060
     6  C(13)              0.11828     132.97038      47.44714      44.35414
     7  O(17)              0.00076      -0.46236      -0.16498      -0.15423
     8  H(1)              -0.01598     -71.42159     -25.48500     -23.82368

 Normal termination of Gaussian 16 at Wed Apr  9 01:00:42 2025.
