 Gaussian 16, Revision C.01,

 ----------------------------------------------------------------------
 #t hf aug-cc-pvdz symm=none int=(grid=ultrafine) guess=(read,tcheck) s
 table=(opt,rrhf)
 ----------------------------------------------------------------------
 -----
 title
 -----
 Symbolic Z-matrix:
 Charge =  0 Multiplicity = 1

 SCF Done:  E(RHF) =  -965.965940527     A.U. after   15 cycles
 Normal termination of Gaussian 16 at Wed Apr  9 01:55:50 2025.
 Gaussian 16:  ES64L-G16RevC.01  3-Jul-2019

 ----------------------------------------------------------------------
 #t hf aug-cc-pvdz iop(5/13=1,5/36=2,99/5=2) pseudo=read geom=check gue
 ss=(read,tcheck) scf=(maxcycle=1)
 ----------------------------------------------------------------------
 -----
 title
 -----
 Structure from the checkpoint file:  "BH10_344_reverse_mol2.chk"
 Charge =  0 Multiplicity = 1

                         Standard orientation:
 ---------------------------------------------------------------------
 Center     Atomic      Atomic             Coordinates (Angstroms)
 Number     Number       Type             X           Y           Z
 ---------------------------------------------------------------------
      1          6           0       -0.130998   -1.832230   -0.336168
      2          6           0        0.990238   -1.085813   -0.845927
      3          1           0        0.009853   -2.167562    0.689975
      4          1           0        1.060735   -0.828566   -1.894854
      5          1           0       -0.431079   -2.659142   -0.979103
      6         16           0        1.690127    0.048209    0.193063
      7          8           0        1.427588    1.446350   -0.238849
      8          8           0        1.311694   -0.290458    1.579958
      9          6           0        3.454961   -0.154658    0.082005
     10          6           0        4.239444    0.798143   -0.385226
     11          1           0        3.787887   -1.124638    0.429091
     12          1           0        5.312022    0.658156   -0.448716
     13          1           0        3.815687    1.741064   -0.709680
     14          6           0       -2.741483   -1.441233    0.078435
     15          6           0       -1.514732    0.331877   -0.286613
     16          6           0       -3.554357   -0.359449    0.183055
     17          1           0       -2.956623   -2.489885    0.192405
     18          1           0       -4.606221   -0.277714    0.397124
     19          7           0       -1.481151   -0.985919   -0.218873
     20          7           0       -2.764284    0.747189   -0.048330
     21          6           0       -3.193082    2.137824   -0.013339
     22          1           0       -3.618849    2.369559    0.962117
     23          1           0       -2.324803    2.771245   -0.180061
     24          1           0       -3.931072    2.323653   -0.793116
     25          1           0       -0.655739    0.969678   -0.469975
 ---------------------------------------------------------------------

 SCF Done:  E(RHF) =  -968.878552999     A.U. after    2 cycles

 The electronic state is 1-A.
 Alpha  occ. eigenvalues --  -75.82501 -20.98149 -20.98010 -15.83303 -15.80143
 Alpha  occ. eigenvalues --  -13.42213 -13.34862 -13.30690 -11.50889 -11.48252
 Alpha  occ. eigenvalues --  -11.45424 -11.45127 -11.43012 -11.41120 -11.37301
 Alpha  occ. eigenvalues --  -11.31937  -8.17342  -1.76037  -1.64808  -1.58740
 Alpha  occ. eigenvalues --   -1.39837  -1.19296  -1.16015  -1.11799  -1.06932
 Alpha  occ. eigenvalues --   -0.98656  -0.87567  -0.86593  -0.83046  -0.76986
 Alpha  occ. eigenvalues --   -0.73758  -0.70014  -0.65988  -0.64551  -0.62881
 Alpha  occ. eigenvalues --   -0.61993  -0.60264  -0.59125  -0.58288  -0.56754
 Alpha  occ. eigenvalues --   -0.53723  -0.53073  -0.49675  -0.47278  -0.40253
 Alpha  occ. eigenvalues --   -0.39811  -0.37693  -0.35915  -0.33742  -0.32852
 Alpha  occ. eigenvalues --   -0.31019  -0.29036  -0.24384
 Alpha virt. eigenvalues --    0.02072   0.03945   0.04276   0.04728   0.05313
 Alpha virt. eigenvalues --    0.05763   0.06537   0.06835   0.07137   0.07993
 Alpha virt. eigenvalues --    0.08165   0.08711   0.10338   0.10537   0.11088

 Mulliken charges:
               1
     1  C   -2.230090
     2  C   -3.686469
     3  H    1.671358
     4  H    1.457140
     5  H    1.630291
     6  S    7.981339
     7  O   -2.846599
     8  O   -2.688453
     9  C   -3.165265
    10  C   -2.897821
    11  H    1.335088
    12  H    1.406156
    13  H    1.565021
    14  C    0.322540
    15  C    1.591638
    16  C   -0.362339
    17  H    1.402731
    18  H    1.341947
    19  N   -3.191848
    20  N   -4.234253
    21  C   -3.735353
    22  H    1.463298
    23  H    1.512222
    24  H    1.500202
    25  H    2.857518
 Sum of Mulliken charges =  -0.00000

 Dipole moment (field-independent basis, Debye):
    X=             -9.3440    Y=              1.3049    Z=             -0.5548  Tot=              9.4510

 Test job not archived.
 1\1\GINC-SE363\SP\RHF\Aug-CC-pVDZ\C8H12N2O2S1\OHZDE\09-Apr-2025\0\\#t
 hf aug-cc-pvdz iop(5/13=1,5/36=2,99/5=2) pseudo=read geom=check guess=
 (read,tcheck) scf=(maxcycle=1)\\title\\0,1\C,0,-0.130998,-1.83223,-0.3
 36168\C,0,0.990238,-1.085813,-0.845927\H,0,0.009853,-2.167562,0.689975
 \H,0,1.060735,-0.828566,-1.894854\H,0,-0.431079,-2.659142,-0.979103\S,
 0,1.690127,0.048209,0.193063\O,0,1.427588,1.44635,-0.238849\O,0,1.3116
 94,-0.290458,1.579958\C,0,3.454961,-0.154658,0.082005\C,0,4.239444,0.7
 98143,-0.385226\H,0,3.787887,-1.124638,0.429091\H,0,5.312022,0.658156,

 Normal termination of Gaussian 16 at Wed Apr  9 01:56:11 2025.
