 Gaussian 16, Revision C.01,

 ----------------------------------------------------------------------
 #t hf aug-cc-pvdz symm=none int=(grid=ultrafine) guess=(read,tcheck) s
 table=(opt,rrhf)
 ----------------------------------------------------------------------
 -----
 title
 -----
 Symbolic Z-matrix:
 Charge =  0 Multiplicity = 1

 SCF Done:  E(RHF) =  -911.409865024     A.U. after   13 cycles
 Normal termination of Gaussian 16 at Wed Apr  9 01:49:14 2025.
 Gaussian 16:  ES64L-G16RevC.01  3-Jul-2019

 ----------------------------------------------------------------------
 #t hf aug-cc-pvdz iop(5/13=1,5/36=2,99/5=2) pseudo=read geom=check gue
 ss=(read,tcheck) scf=(maxcycle=1)
 ----------------------------------------------------------------------
 -----
 title
 -----
 Structure from the checkpoint file:  "BH10_329_reverse_mol3.chk"
 Charge =  0 Multiplicity = 1

                         Standard orientation:
 ---------------------------------------------------------------------
 Center     Atomic      Atomic             Coordinates (Angstroms)
 Number     Number       Type             X           Y           Z
 ---------------------------------------------------------------------
      1         16           0        2.821847   -0.565397   -0.380131
      2          6           0        3.703227    0.472403    0.817254
      3          1           0        3.975928    1.430055    0.373009
      4          1           0        4.614440   -0.059670    1.088038
      5          1           0        3.119057    0.638669    1.721986
      6          6           0        1.399951    0.503726   -0.742326
      7          6           0        0.319240    0.438930    0.317705
      8          1           0        0.995440    0.172709   -1.696818
      9          1           0        1.740743    1.534020   -0.852132
     10          6           0       -0.484159   -0.851755    0.359974
     11          6           0       -1.808919   -0.361590    0.948916
     12          6           0       -1.966400    1.028638    0.294900
     13          8           0       -0.637515    1.482740    0.068902
     14          7           0       -2.758953    0.922457   -0.902246
     15          1           0       -2.460521    1.737326    0.961677
     16          8           0       -2.881752   -1.221927    0.668889
     17          1           0       -1.706974   -0.250915    2.032053
     18          8           0       -0.695272   -1.330471   -0.955910
     19          1           0        0.003538   -1.612618    0.973488
     20          1           0       -1.401458   -1.985123   -0.898092
     21          1           0       -3.427126   -0.753882    0.014065
     22          1           0        0.758522    0.604328    1.308252
     23          1           0       -3.089827    1.824239   -1.217892
     24          1           0       -2.219968    0.485175   -1.643417
 ---------------------------------------------------------------------

 SCF Done:  E(RHF) =  -913.967401007     A.U. after    2 cycles

 The electronic state is 1-A.
 Alpha  occ. eigenvalues --  -75.67129 -21.07097 -21.06762 -21.04435 -15.74575
 Alpha  occ. eigenvalues --  -13.12868 -13.08897 -13.03258 -11.51055 -11.50335
 Alpha  occ. eigenvalues --  -11.46220 -11.43975 -11.39314 -11.38608  -8.01192
 Alpha  occ. eigenvalues --   -1.80547  -1.72252  -1.69985  -1.33185  -1.24213
 Alpha  occ. eigenvalues --   -1.13637  -1.08382  -0.98759  -0.89205  -0.84037
 Alpha  occ. eigenvalues --   -0.81006  -0.76018  -0.68751  -0.64770  -0.63608
 Alpha  occ. eigenvalues --   -0.61433  -0.59743  -0.58638  -0.57629  -0.55254
 Alpha  occ. eigenvalues --   -0.54180  -0.52502  -0.49423  -0.44415  -0.43729
 Alpha  occ. eigenvalues --   -0.40553  -0.39622  -0.35467  -0.35129  -0.33384
 Alpha  occ. eigenvalues --   -0.31668  -0.29591  -0.21738
 Alpha virt. eigenvalues --    0.03217   0.04151   0.04260   0.04438   0.05285
 Alpha virt. eigenvalues --    0.05703   0.06423   0.06546   0.07037   0.08217
 Alpha virt. eigenvalues --    0.08480   0.09007   0.09687   0.10724   0.12197

 Mulliken charges:
               1
     1  S    0.874234
     2  C   -4.822460
     3  H    1.452063
     4  H    1.342365
     5  H    1.491079
     6  C   -4.300530
     7  C    2.493404
     8  H    1.431998
     9  H    1.436177
    10  C    0.159663
    11  C    0.967376
    12  C    1.497056
    13  O   -4.149037
    14  N   -2.817905
    15  H    1.879735
    16  O   -3.173776
    17  H    1.437595
    18  O   -3.460425
    19  H    1.689188
    20  H    0.795492
    21  H    0.625156
    22  H    1.964624
    23  H    0.612401
    24  H    0.574526
 Sum of Mulliken charges =   0.00000

 Dipole moment (field-independent basis, Debye):
    X=              0.0863    Y=              0.3048    Z=             -0.5684  Tot=              0.6507

 Test job not archived.
 1\1\GINC-SE132\SP\RHF\Aug-CC-pVDZ\C6H13N1O3S1\OHZDE\09-Apr-2025\0\\#t
 hf aug-cc-pvdz iop(5/13=1,5/36=2,99/5=2) pseudo=read geom=check guess=
 (read,tcheck) scf=(maxcycle=1)\\title\\0,1\S,0,2.821847,-0.565397,-0.3
 80131\C,0,3.703227,0.472403,0.817254\H,0,3.975928,1.430055,0.373009\H,
 0,4.61444,-0.05967,1.088038\H,0,3.119057,0.638669,1.721986\C,0,1.39995
 1,0.503726,-0.742326\C,0,0.31924,0.43893,0.317705\H,0,0.99544,0.172709
 ,-1.696818\H,0,1.740743,1.53402,-0.852132\C,0,-0.484159,-0.851755,0.35
 9974\C,0,-1.808919,-0.36159,0.948916\C,0,-1.9664,1.028638,0.2949\O,0,-

 Normal termination of Gaussian 16 at Wed Apr  9 01:49:32 2025.
