 Gaussian 16, Revision C.01,

 ----------------------------------------------------------------------
 #t hf aug-cc-pvdz symm=none int=(grid=ultrafine) guess=(read,tcheck) s
 table=(opt,rrhf)
 ----------------------------------------------------------------------
 -----
 title
 -----
 Symbolic Z-matrix:
 Charge =  0 Multiplicity = 1

 SCF Done:  E(RHF) =  -678.977170926     A.U. after   15 cycles
 Normal termination of Gaussian 16 at Wed Apr  9 01:27:09 2025.
 Gaussian 16:  ES64L-G16RevC.01  3-Jul-2019

 ----------------------------------------------------------------------
 #t hf aug-cc-pvdz iop(5/13=1,5/36=2,99/5=2) pseudo=read geom=check gue
 ss=(read,tcheck) scf=(maxcycle=1)
 ----------------------------------------------------------------------
 -----
 title
 -----
 Structure from the checkpoint file:  "BH10_285_forward_mol1.chk"
 Charge =  0 Multiplicity = 1

                         Standard orientation:
 ---------------------------------------------------------------------
 Center     Atomic      Atomic             Coordinates (Angstroms)
 Number     Number       Type             X           Y           Z
 ---------------------------------------------------------------------
      1          6           0       -0.660181    0.075909    1.200444
      2          1           0        0.063964    0.401587    1.954411
      3          5           0       -0.123083    0.241195   -0.274226
      4          6           0       -1.944047    0.903890    1.383682
      5          1           0       -1.664588    1.962581    1.368792
      6          1           0       -2.370367    0.721053    2.376597
      7          6           0       -0.855888   -1.449134    1.395598
      8          1           0        0.137972   -1.909181    1.421986
      9          6           0        0.279684    2.284530   -0.812443
     10          1           0        0.546136    1.817213   -1.750663
     11          1           0       -0.593877    2.921056   -0.824003
     12          6           0        1.198542    2.420273    0.184960
     13          6           0        2.351497    1.602187    0.362716
     14          1           0        1.005259    3.159984    0.960243
     15          1           0       -1.303599   -1.643322    2.376700
     16          1           0        3.186252    1.919642    0.968514
     17          6           0        2.301485    0.305263   -0.050734
     18          8           0        1.229945   -0.254274   -0.559970
     19          8           0        3.359522   -0.488075    0.086219
     20          6           0        3.174352   -1.892836   -0.101846
     21          1           0        2.470061   -2.291311    0.629230
     22          1           0        2.812126   -2.104529   -1.106996
     23          1           0        4.156987   -2.332117    0.047798
     24          6           0       -1.689067   -2.150568    0.310480
     25          1           0       -1.540791   -3.231509    0.396368
     26          1           0       -2.749833   -1.989456    0.500098
     27          6           0       -1.213128   -0.186125   -1.329697
     28          1           0       -0.879016   -0.032360   -2.361269
     29          6           0       -1.351896   -1.717768   -1.124345
     30          1           0       -0.404928   -2.180345   -1.421019
     31          1           0       -2.113034   -2.110941   -1.807554
     32          6           0       -2.527111    0.588245   -1.125605
     33          1           0       -3.315075    0.154806   -1.752088
     34          1           0       -2.379170    1.605820   -1.498986
     35          6           0       -3.033232    0.662888    0.326037
     36          1           0       -3.775344    1.463944    0.397021
     37          1           0       -3.575507   -0.250329    0.570476
 ---------------------------------------------------------------------

 SCF Done:  E(RHF) =  -682.254298419     A.U. after    2 cycles

 The electronic state is 1-A.
 Alpha  occ. eigenvalues --  -21.09401 -21.05494 -11.54352 -11.47753 -11.46492
 Alpha  occ. eigenvalues --  -11.42563 -11.42329 -11.42063 -11.40442 -11.39301
 Alpha  occ. eigenvalues --  -11.38283 -11.37754 -11.36173 -11.35101 -11.34053
 Alpha  occ. eigenvalues --   -7.61600  -1.88589  -1.73956  -1.32601  -1.23498
 Alpha  occ. eigenvalues --   -1.16162  -1.15076  -1.08664  -1.01864  -0.99020
 Alpha  occ. eigenvalues --   -0.97052  -0.85330  -0.83412  -0.82042  -0.81680
 Alpha  occ. eigenvalues --   -0.74963  -0.69693  -0.67575  -0.66093  -0.64528
 Alpha  occ. eigenvalues --   -0.64009  -0.62020  -0.59536  -0.59376  -0.57826
 Alpha  occ. eigenvalues --   -0.57218  -0.55738  -0.54155  -0.53445  -0.52862
 Alpha  occ. eigenvalues --   -0.50024  -0.49922  -0.48791  -0.45735  -0.44044
 Alpha  occ. eigenvalues --   -0.42902  -0.42584  -0.41436  -0.41203  -0.40768
 Alpha  occ. eigenvalues --   -0.37713  -0.36067  -0.34370  -0.30094  -0.24583
 Alpha virt. eigenvalues --    0.03718   0.04703   0.04946   0.05171   0.05449
 Alpha virt. eigenvalues --    0.05537   0.05808   0.06082   0.06221   0.06362
 Alpha virt. eigenvalues --    0.06507   0.06973   0.07116   0.07397   0.07613

 Mulliken charges:
               1
     1  C   -6.185836
     2  H    0.918539
     3  B   25.181826
     4  C   -3.921625
     5  H    1.197385
     6  H    1.341331
     7  C   -3.643974
     8  H    0.743900
     9  C   -5.157378
    10  H    0.744314
    11  H    1.223459
    12  C   -1.041985
    13  C   -3.150474
    14  H    1.398285
    15  H    1.449051
    16  H    1.635504
    17  C    6.920495
    18  O   -7.195062
    19  O   -4.213315
    20  C   -3.978933
    21  H    1.686841
    22  H    1.646105
    23  H    1.284070
    24  C   -2.943356
    25  H    1.360488
    26  H    1.295394
    27  C   -5.718267
    28  H    0.745931
    29  C   -3.930451
    30  H    0.582893
    31  H    1.448607
    32  C   -3.410350
    33  H    1.315187
    34  H    1.170935
    35  C   -3.610200
    36  H    1.247878
    37  H    1.562789
 Sum of Mulliken charges =  -0.00000

 Dipole moment (field-independent basis, Debye):
    X=              1.2166    Y=             -1.1607    Z=              0.1610  Tot=              1.6891

 Test job not archived.
 1\1\GINC-SE128\SP\RHF\Aug-CC-pVDZ\C13H21B1O2\OHZDE\09-Apr-2025\0\\#t h
 f aug-cc-pvdz iop(5/13=1,5/36=2,99/5=2) pseudo=read geom=check guess=(
 read,tcheck) scf=(maxcycle=1)\\title\\0,1\C,0,-0.660181,0.075909,1.200
 444\H,0,0.063964,0.401587,1.954411\B,0,-0.123083,0.241195,-0.274226\C,
 0,-1.944047,0.90389,1.383682\H,0,-1.664588,1.962581,1.368792\H,0,-2.37
 0367,0.721053,2.376597\C,0,-0.855888,-1.449134,1.395598\H,0,0.137972,-
 1.909181,1.421986\C,0,0.279684,2.28453,-0.812443\H,0,0.546136,1.817213
 ,-1.750663\H,0,-0.593877,2.921056,-0.824003\C,0,1.198542,2.420273,0.18

 Normal termination of Gaussian 16 at Wed Apr  9 01:28:15 2025.
