 Gaussian 16, Revision C.01,

 ----------------------------------------------------------------------
 #t hf aug-cc-pvdz symm=none int=(grid=ultrafine) guess=(read,tcheck) s
 table=(opt,rrhf)
 ----------------------------------------------------------------------
 -----
 title
 -----
 Symbolic Z-matrix:
 Charge =  0 Multiplicity = 1

 SCF Done:  E(RHF) =  -678.970159051     A.U. after   14 cycles
 Normal termination of Gaussian 16 at Wed Apr  9 01:23:45 2025.
 Gaussian 16:  ES64L-G16RevC.01  3-Jul-2019

 ----------------------------------------------------------------------
 #t hf aug-cc-pvdz iop(5/13=1,5/36=2,99/5=2) pseudo=read geom=check gue
 ss=(read,tcheck) scf=(maxcycle=1)
 ----------------------------------------------------------------------
 -----
 title
 -----
 Structure from the checkpoint file:  "BH10_286_forward_mol1.chk"
 Charge =  0 Multiplicity = 1

                         Standard orientation:
 ---------------------------------------------------------------------
 Center     Atomic      Atomic             Coordinates (Angstroms)
 Number     Number       Type             X           Y           Z
 ---------------------------------------------------------------------
      1          6           0       -0.601337   -0.408195    1.119966
      2          1           0        0.209042   -0.720382    1.791008
      3          5           0       -0.131037   -0.235199   -0.375342
      4          6           0       -1.128162    0.947143    1.630747
      5          1           0       -0.267893    1.615715    1.737611
      6          1           0       -1.555106    0.833701    2.633984
      7          6           0       -1.651061   -1.543940    1.105724
      8          1           0       -1.126483   -2.477343    0.869793
      9          6           0        2.258439    3.112454   -0.000806
     10          1           0        1.722333    3.548001   -0.837319
     11          1           0        2.779067    3.794123    0.659072
     12          6           0        2.271249    1.799177    0.210649
     13          6           0        1.558383    0.823208   -0.607274
     14          1           0        2.821751    1.403274    1.058840
     15          1           0       -2.077176   -1.678097    2.106649
     16          1           0        1.115871    1.167836   -1.533407
     17          6           0        1.814776   -0.540760   -0.544766
     18          8           0        0.823100   -1.300680   -0.915320
     19          8           0        2.846830   -1.060403    0.081688
     20          6           0        2.794005   -2.459950    0.408188
     21          1           0        1.893666   -2.680365    0.979406
     22          1           0        2.809286   -3.059614   -0.500273
     23          1           0        3.683498   -2.647334    1.002570
     24          6           0       -2.792342   -1.359790    0.092072
     25          1           0       -3.324374   -2.310223   -0.013416
     26          1           0       -3.526814   -0.660349    0.490177
     27          6           0       -1.300269    0.253953   -1.304165
     28          1           0       -0.978940    0.396375   -2.342621
     29          6           0       -2.336101   -0.895090   -1.300793
     30          1           0       -1.884105   -1.746608   -1.821921
     31          1           0       -3.214972   -0.610397   -1.890385
     32          6           0       -1.824554    1.602285   -0.775295
     33          1           0       -2.704143    1.918721   -1.347354
     34          1           0       -1.053408    2.357510   -0.967068
     35          6           0       -2.164867    1.630294    0.723732
     36          1           0       -2.269010    2.673153    1.038376
     37          1           0       -3.145295    1.182224    0.884170
 ---------------------------------------------------------------------

 SCF Done:  E(RHF) =  -682.235623454     A.U. after    2 cycles

 The electronic state is 1-A.
 Alpha  occ. eigenvalues --  -21.11923 -21.07031 -11.57459 -11.45974 -11.44274
 Alpha  occ. eigenvalues --  -11.43967 -11.42359 -11.42090 -11.40376 -11.39997
 Alpha  occ. eigenvalues --  -11.38112 -11.37757 -11.35875 -11.34535 -11.33573
 Alpha  occ. eigenvalues --   -7.61481  -1.90810  -1.76117  -1.32369  -1.22626
 Alpha  occ. eigenvalues --   -1.15980  -1.14831  -1.08093  -1.02994  -1.00232
 Alpha  occ. eigenvalues --   -0.96806  -0.83507  -0.82258  -0.82041  -0.81376
 Alpha  occ. eigenvalues --   -0.76324  -0.70781  -0.67629  -0.66998  -0.64620
 Alpha  occ. eigenvalues --   -0.64163  -0.60999  -0.60642  -0.59470  -0.58055
 Alpha  occ. eigenvalues --   -0.57408  -0.56424  -0.55138  -0.53618  -0.52536
 Alpha  occ. eigenvalues --   -0.50401  -0.49192  -0.47220  -0.45209  -0.43551
 Alpha  occ. eigenvalues --   -0.42922  -0.42578  -0.41300  -0.41150  -0.40185
 Alpha  occ. eigenvalues --   -0.38305  -0.37971  -0.34121  -0.28702  -0.26699
 Alpha virt. eigenvalues --    0.03592   0.04535   0.04893   0.05199   0.05362
 Alpha virt. eigenvalues --    0.05704   0.05870   0.06202   0.06258   0.06410
 Alpha virt. eigenvalues --    0.06654   0.06699   0.07147   0.07404   0.07562

 Mulliken charges:
               1
     1  C   -4.861526
     2  H    0.816183
     3  B   21.537121
     4  C   -4.111198
     5  H    1.068157
     6  H    1.450164
     7  C   -3.846887
     8  H    1.003609
     9  C   -4.433087
    10  H    1.560399
    11  H    1.392865
    12  C   -1.696479
    13  C   -4.797097
    14  H    1.511642
    15  H    1.373376
    16  H    0.315022
    17  C    9.153744
    18  O   -4.648799
    19  O   -4.443161
    20  C   -4.018811
    21  H    1.519986
    22  H    1.389573
    23  H    1.399834
    24  C   -2.632323
    25  H    1.256565
    26  H    1.485732
    27  C   -4.968940
    28  H    0.399443
    29  C   -4.006083
    30  H    1.013922
    31  H    1.282771
    32  C   -4.440299
    33  H    1.333068
    34  H    1.200561
    35  C   -3.217790
    36  H    1.231062
    37  H    1.427680
 Sum of Mulliken charges =  -0.00000

 Dipole moment (field-independent basis, Debye):
    X=              1.9705    Y=             -2.1989    Z=              0.3055  Tot=              2.9684

 Test job not archived.
 1\1\GINC-SE368\SP\RHF\Aug-CC-pVDZ\C13H21B1O2\OHZDE\09-Apr-2025\0\\#t h
 f aug-cc-pvdz iop(5/13=1,5/36=2,99/5=2) pseudo=read geom=check guess=(
 read,tcheck) scf=(maxcycle=1)\\title\\0,1\C,0,-0.601337,-0.408195,1.11
 9966\H,0,0.209042,-0.720382,1.791008\B,0,-0.131037,-0.235199,-0.375342
 \C,0,-1.128162,0.947143,1.630747\H,0,-0.267893,1.615715,1.737611\H,0,-
 1.555106,0.833701,2.633984\C,0,-1.651061,-1.54394,1.105724\H,0,-1.1264
 83,-2.477343,0.869793\C,0,2.258439,3.112454,-0.000806\H,0,1.722333,3.5
 48001,-0.837319\H,0,2.779067,3.794123,0.659072\C,0,2.271249,1.799177,0

 Normal termination of Gaussian 16 at Wed Apr  9 01:24:36 2025.
