 Gaussian 16, Revision C.01,

 ----------------------------------------------------------------------
 #t hf aug-cc-pvdz symm=none int=(grid=ultrafine) guess=(read,tcheck) s
 table=(opt,rrhf)
 ----------------------------------------------------------------------
 -----
 title
 -----
 Symbolic Z-matrix:
 Charge =  0 Multiplicity = 1

 SCF Done:  E(RHF) =  -1125.28392216     A.U. after   15 cycles
 Normal termination of Gaussian 16 at Wed Apr  9 02:13:31 2025.
 Gaussian 16:  ES64L-G16RevC.01  3-Jul-2019

 ----------------------------------------------------------------------
 #t hf aug-cc-pvdz iop(5/13=1,5/36=2,99/5=2) pseudo=read geom=check gue
 ss=(read,tcheck) scf=(maxcycle=1)
 ----------------------------------------------------------------------
 -----
 title
 -----
 Structure from the checkpoint file:  "BH10_296_reverse_mol2.chk"
 Charge =  0 Multiplicity = 1

                         Standard orientation:
 ---------------------------------------------------------------------
 Center     Atomic      Atomic             Coordinates (Angstroms)
 Number     Number       Type             X           Y           Z
 ---------------------------------------------------------------------
      1          6           0        0.648503    2.595494    0.372259
      2          6           0        0.454733    1.219434    1.068882
      3          6           0       -2.159439    1.240975   -0.618622
      4          1           0        1.718701    2.748165    0.211483
      5          6           0       -0.587409    1.260166    2.206605
      6          1           0       -0.789021    0.241115    2.553838
      7          1           0       -0.132702    1.779793    3.057222
      8          1           0       -3.019171    1.061360   -1.270914
      9          1           0        1.406093    0.968573    1.545340
     10          6           0       -1.905059    1.960333    1.892452
     11          1           0       -2.501449    1.990172    2.809796
     12          1           0       -1.706463    3.006318    1.643693
     13          6           0       -2.762627    1.337710    0.795255
     14          1           0       -3.086020    0.343839    1.117836
     15          1           0       -3.678092    1.934329    0.719343
     16          6           0       -1.551373    2.587076   -1.090924
     17          1           0       -1.809469    2.725046   -2.145416
     18          6           0       -0.029933    2.759765   -0.994549
     19          1           0        0.442034    2.064304   -1.698277
     20          1           0        0.214930    3.755587   -1.376642
     21          1           0       -2.046966    3.406626   -0.559943
     22          1           0        0.328952    3.397086    1.045540
     23          6           0       -1.195458    0.052635   -0.817483
     24          1           0       -0.918235    0.003996   -1.881313
     25         14           0       -1.954151   -1.683260   -0.572623
     26          6           0       -1.750477   -2.306053    1.191797
     27          1           0       -2.286367   -1.692933    1.919081
     28          1           0       -2.132988   -3.326995    1.276746
     29          1           0       -0.695357   -2.326139    1.477893
     30          6           0       -1.069646   -2.875920   -1.719973
     31          1           0       -1.458064   -3.891326   -1.604095
     32          1           0       -1.198578   -2.587678   -2.766603
     33          1           0        0.000584   -2.892467   -1.507731
     34          6           0       -3.779705   -1.656215   -1.026194
     35          1           0       -3.924955   -1.310631   -2.053090
     36          1           0       -4.197178   -2.664499   -0.957059
     37          1           0       -4.367167   -1.009628   -0.371503
     38          5           0        0.144835    0.147452   -0.038852
     39          6           0        3.509659    0.442686   -1.452258
     40          6           0        3.442753   -0.385547   -0.262025
     41          6           0        4.615921    1.032366   -1.903808
     42          6           0        2.298321   -0.910673    0.191837
     43          8           0        1.116196   -0.760062   -0.439259
     44          8           0        2.130331   -1.678153    1.283489
     45          6           0        3.274624   -1.979682    2.063038
     46          1           0        3.728165   -1.066364    2.457193
     47          1           0        2.923190   -2.599521    2.883905
     48          1           0        4.011743   -2.530668    1.473435
     49          1           0        2.582180    0.573212   -2.000302
     50          1           0        5.566339    0.927961   -1.391300
     51          1           0        4.604629    1.636458   -2.801607
     52          1           0        4.362124   -0.578293    0.272859
 ---------------------------------------------------------------------

 SCF Done:  E(RHF) =  -1129.55576278     A.U. after    2 cycles

 The electronic state is 1-A.
 Alpha  occ. eigenvalues --  -76.17407 -21.08939 -21.05001 -11.54198 -11.47190
 Alpha  occ. eigenvalues --  -11.45912 -11.45233 -11.43869 -11.42557 -11.42346
 Alpha  occ. eigenvalues --  -11.41876 -11.38758 -11.38083 -11.37112 -11.36721
 Alpha  occ. eigenvalues --  -11.35475 -11.34824 -11.34683 -11.34305 -11.33456
 Alpha  occ. eigenvalues --   -7.63311  -5.51595  -2.16297  -2.15640  -2.15540
 Alpha  occ. eigenvalues --   -1.88178  -1.74139  -1.32838  -1.21044  -1.19317
 Alpha  occ. eigenvalues --   -1.17184  -1.10015  -1.06046  -1.04151  -1.00744
 Alpha  occ. eigenvalues --   -1.00196  -0.99523  -0.97962  -0.94229  -0.86656
 Alpha  occ. eigenvalues --   -0.83366  -0.82054  -0.77134  -0.74735  -0.69101
 Alpha  occ. eigenvalues --   -0.67779  -0.66957  -0.65341  -0.64866  -0.63461
 Alpha  occ. eigenvalues --   -0.61792  -0.61083  -0.59366  -0.58805  -0.58278
 Alpha  occ. eigenvalues --   -0.57341  -0.56721  -0.56131  -0.55423  -0.54737
 Alpha  occ. eigenvalues --   -0.54356  -0.54157  -0.53340  -0.52822  -0.52186
 Alpha  occ. eigenvalues --   -0.51817  -0.48067  -0.47638  -0.46040  -0.45400
 Alpha  occ. eigenvalues --   -0.44782  -0.43486  -0.43044  -0.41798  -0.41066
 Alpha  occ. eigenvalues --   -0.39360  -0.39138  -0.38428  -0.37958  -0.37139
 Alpha  occ. eigenvalues --   -0.36460  -0.35487  -0.30719  -0.25341
 Alpha virt. eigenvalues --    0.03771   0.04229   0.04581   0.04795   0.04828
 Alpha virt. eigenvalues --    0.05428   0.05497   0.05539   0.05594   0.05826
 Alpha virt. eigenvalues --    0.05922   0.06200   0.06321   0.06633   0.06848

 Mulliken charges:
               1
     1  C   -3.505328
     2  C   -7.344636
     3  C   -0.209685
     4  H    1.542208
     5  C   -3.790093
     6  H    1.413568
     7  H    1.279830
     8  H    1.865354
     9  H    1.845915
    10  C   -3.108566
    11  H    1.402773
    12  H    1.492046
    13  C   -4.748463
    14  H    1.451187
    15  H    1.332045
    16  C   -3.862176
    17  H    1.117166
    18  C   -4.728461
    19  H    0.994304
    20  H    1.583222
    21  H    1.345460
    22  H    1.451844
    23  C   -8.049274
    24  H    1.375142
    25  Si  15.059938
    26  C   -6.980472
    27  H    0.938539
    28  H    1.062916
    29  H    1.728506
    30  C   -6.714012
    31  H    1.022820
    32  H    0.808724
    33  H    1.075813
    34  C   -7.084493
    35  H    1.028183
    36  H    0.934034
    37  H    1.018913
    38  B   19.067520
    39  C    1.113501
    40  C   -3.281610
    41  C   -5.603918
    42  C    7.059409
    43  O   -8.155847
    44  O   -4.009413
    45  C   -3.929987
    46  H    1.697060
    47  H    1.521879
    48  H    1.480691
    49  H    2.294232
    50  H    1.594076
    51  H    1.401787
    52  H    1.705826
 Sum of Mulliken charges =  -0.00000

 Dipole moment (field-independent basis, Debye):
    X=             -0.3439    Y=             -0.3842    Z=              1.6968  Tot=              1.7734

 Test job not archived.
 1\1\GINC-SE054\SP\RHF\Aug-CC-pVDZ\C17H31B1O2Si1\OHZDE\09-Apr-2025\0\\#
 t hf aug-cc-pvdz iop(5/13=1,5/36=2,99/5=2) pseudo=read geom=check gues
 s=(read,tcheck) scf=(maxcycle=1)\\title\\0,1\C,0,0.648503,2.595494,0.3
 72259\C,0,0.454733,1.219434,1.068882\C,0,-2.159439,1.240975,-0.618622\
 H,0,1.718701,2.748165,0.211483\C,0,-0.587409,1.260166,2.206605\H,0,-0.
 789021,0.241115,2.553838\H,0,-0.132702,1.779793,3.057222\H,0,-3.019171
 ,1.06136,-1.270914\H,0,1.406093,0.968573,1.54534\C,0,-1.905059,1.96033
 3,1.892452\H,0,-2.501449,1.990172,2.809796\H,0,-1.706463,3.006318,1.64

 Normal termination of Gaussian 16 at Wed Apr  9 02:16:29 2025.
