 Gaussian 16, Revision C.01,

 ----------------------------------------------------------------------
 #t hf aug-cc-pvdz symm=none int=(grid=ultrafine) guess=(read,tcheck) s
 table=opt
 ----------------------------------------------------------------------
 -----
 title
 -----
 Symbolic Z-matrix:
 Charge =  0 Multiplicity = 2

 SCF Done:  E(UHF) =  -1016.40433985     A.U. after   29 cycles
 Normal termination of Gaussian 16 at Wed Apr  9 01:03:40 2025.
 Gaussian 16:  ES64L-G16RevC.01  3-Jul-2019

 ----------------------------------------------------------------------
 #t hf aug-cc-pvdz iop(5/13=1,5/36=2,99/5=2) pseudo=read geom=check gue
 ss=(read,tcheck) scf=(maxcycle=1)
 ----------------------------------------------------------------------
 -----
 title
 -----
 Structure from the checkpoint file:  "BH10_155_forward_mol1.chk"
 Charge =  0 Multiplicity = 2

                         Standard orientation:
 ---------------------------------------------------------------------
 Center     Atomic      Atomic             Coordinates (Angstroms)
 Number     Number       Type             X           Y           Z
 ---------------------------------------------------------------------
      1          7           0       -0.512079    1.351952    0.480703
      2          1           0       -0.842680    1.304462    1.436307
      3          6           0       -1.204918    0.528197   -0.474555
      4          1           0       -1.557168    1.157674   -1.300311
      5          6           0       -0.296792   -0.540545   -1.104033
      6          6           0       -2.418197   -0.071994    0.239091
      7          1           0       -0.833554   -1.109764   -1.862520
      8          1           0        0.533565   -0.037869   -1.598290
      9         16           0        0.382110   -1.741374    0.073779
     10          8           0       -2.589711    0.076350    1.430573
     11          1           0        1.243912   -0.764897    0.902612
     12          7           0       -3.262227   -0.781752   -0.544954
     13          1           0       -3.160965   -0.831838   -1.543832
     14          1           0       -4.081471   -1.184370   -0.118422
     15          6           0        0.449618    2.223623    0.107445
     16          1           0        0.856598    2.806072    0.947799
     17          8           0        0.841091    2.352307   -1.034451
     18          8           0        2.312850   -0.056571    1.215131
     19          7           0        3.131419   -0.235870    0.282969
     20          8           0        2.817011   -0.953772   -0.634069
 ---------------------------------------------------------------------

 SCF Done:  E(UHF) =  -1019.29014002     A.U. after    2 cycles

 The electronic state is 2-A.
 Alpha  occ. eigenvalues --  -75.77190 -21.07564 -21.07244 -21.06645 -21.04039
 Alpha  occ. eigenvalues --  -15.88399 -15.81788 -15.77959 -13.23896 -13.19469
 Alpha  occ. eigenvalues --  -13.16111 -11.55933 -11.50916 -11.49692 -11.44963
 Alpha  occ. eigenvalues --   -8.11044  -1.95685  -1.75799  -1.71507  -1.66172
 Alpha  occ. eigenvalues --   -1.44133  -1.38291  -1.26714  -1.11814  -0.97515
 Alpha  occ. eigenvalues --   -0.89537  -0.88017  -0.81370  -0.78302  -0.72925
 Alpha  occ. eigenvalues --   -0.70200  -0.66933  -0.64934  -0.63536  -0.60822
 Alpha  occ. eigenvalues --   -0.58921  -0.57641  -0.55564  -0.52780  -0.52155
 Alpha  occ. eigenvalues --   -0.50019  -0.48373  -0.43815  -0.37008  -0.35977
 Alpha  occ. eigenvalues --   -0.33950  -0.32459  -0.31251  -0.30374  -0.28084
 Alpha  occ. eigenvalues --   -0.22200
 Alpha virt. eigenvalues --    0.01916   0.03840   0.04535   0.05080   0.05604
 Alpha virt. eigenvalues --    0.06180   0.07321   0.08515   0.09865   0.10695
 Alpha virt. eigenvalues --    0.10895   0.11167   0.11647   0.12386   0.12700

  Beta  occ. eigenvalues --  -75.76155 -21.07225 -21.06905 -21.06639 -21.04032
  Beta  occ. eigenvalues --  -15.88438 -15.81790 -15.77966 -13.21607 -13.18545
  Beta  occ. eigenvalues --  -13.11905 -11.55924 -11.50929 -11.49691 -11.45039
  Beta  occ. eigenvalues --   -8.09873  -1.95355  -1.75781  -1.71497  -1.65492
  Beta  occ. eigenvalues --   -1.43990  -1.38293  -1.23298  -1.08653  -0.95840
  Beta  occ. eigenvalues --   -0.88389  -0.88011  -0.81099  -0.78273  -0.72864
  Beta  occ. eigenvalues --   -0.69935  -0.66231  -0.64471  -0.63196  -0.60020
  Beta  occ. eigenvalues --   -0.59074  -0.57514  -0.55446  -0.52665  -0.51960
  Beta  occ. eigenvalues --   -0.49939  -0.47829  -0.42555  -0.36884  -0.33930
  Beta  occ. eigenvalues --   -0.33000  -0.30842  -0.30360  -0.28606  -0.23631
  Beta virt. eigenvalues --    0.01351   0.02839   0.03927   0.04662   0.05428
  Beta virt. eigenvalues --    0.06127   0.06338   0.07384   0.08555   0.09920
  Beta virt. eigenvalues --    0.10742   0.11052   0.11608   0.11712   0.12663

 Mulliken charges and spin densities:
               1          2
     1  N   -3.148901   0.063375
     2  H    0.823028  -0.002451
     3  C   -0.349279  -0.285858
     4  H    1.770778  -0.015343
     5  C   -4.275968  -0.225195
     6  C    6.027694   0.072313
     7  H    1.422592  -0.007732
     8  H    1.800173   0.032712
     9  S   -0.661188   1.348826
    10  O   -3.425497   0.007456
    11  H    1.933989  -0.127548
    12  N   -3.446960   0.038431
    13  H    0.773877   0.005768
    14  H    0.823798  -0.001140
    15  C    1.865355  -0.007662
    16  H    1.748486   0.000268
    17  O   -2.716536   0.005266
    18  O   -2.034473   0.037343
    19  N    2.700866  -0.047790
    20  O   -1.631834   0.108962
 Sum of Mulliken charges =   0.00000   1.00000

 Dipole moment (field-independent basis, Debye):
    X=             -5.0564    Y=             -2.5405    Z=             -0.7776  Tot=              5.7120
                          Isotropic Fermi Contact Couplings
        Atom                 a.u.       MegaHertz       Gauss      10(-4) cm-1
     1  N(14)             -0.00139      -0.45068      -0.16081      -0.15033
     2  H(1)               0.00010       0.45521       0.16243       0.15184
     3  C(13)              0.01558      17.51339       6.24921       5.84184
     4  H(1)              -0.00006      -0.26824      -0.09571      -0.08947
     5  C(13)             -0.01789     -20.10675      -7.17459      -6.70689
     6  C(13)             -0.00041      -0.46554      -0.16612      -0.15529
     7  H(1)               0.00080       3.59552       1.28297       1.19934
     8  H(1)               0.00951      42.50399      15.16648      14.17781

 Normal termination of Gaussian 16 at Wed Apr  9 01:03:56 2025.
