 Gaussian 16, Revision C.01,

 ----------------------------------------------------------------------
 #t hf aug-cc-pvdz symm=none int=(grid=ultrafine) guess=(read,tcheck) s
 table=(opt,rrhf)
 ----------------------------------------------------------------------
 -----
 title
 -----
 Symbolic Z-matrix:
 Charge =  0 Multiplicity = 1

 SCF Done:  E(RHF) =  -817.519728220     A.U. after   13 cycles
 Normal termination of Gaussian 16 at Wed Apr  9 00:56:20 2025.
 Gaussian 16:  ES64L-G16RevC.01  3-Jul-2019

 ----------------------------------------------------------------------
 #t hf aug-cc-pvdz iop(5/13=1,5/36=2,99/5=2) pseudo=read geom=check gue
 ss=(read,tcheck) scf=(maxcycle=1)
 ----------------------------------------------------------------------
 -----
 title
 -----
 Structure from the checkpoint file:  "BH10_100_forward_mol2.chk"
 Charge =  0 Multiplicity = 1

                         Standard orientation:
 ---------------------------------------------------------------------
 Center     Atomic      Atomic             Coordinates (Angstroms)
 Number     Number       Type             X           Y           Z
 ---------------------------------------------------------------------
      1          6           0        1.878492    0.765805   -0.000012
      2          6           0        1.878492   -0.765805    0.000113
      3          6           0        0.422671    1.184171   -0.000014
      4          7           0       -0.324447    0.000000   -0.000014
      5          6           0        0.422671   -1.184171    0.000039
      6          8           0       -0.033861   -2.287920    0.000037
      7          8           0       -0.033861    2.287920   -0.000030
      8         17           0       -2.013484   -0.000000   -0.000057
      9          1           0        2.357014    1.199291   -0.878288
     10          1           0        2.357081    1.199455    0.878145
     11          1           0        2.356969   -1.199293    0.878413
     12          1           0        2.357125   -1.199454   -0.878020
 ---------------------------------------------------------------------

 SCF Done:  E(RHF) =  -819.322496392     A.U. after    2 cycles

 The electronic state is 1-A.
 Alpha  occ. eigenvalues --  -99.94428 -21.07187 -21.07173 -15.82411 -11.55562
 Alpha  occ. eigenvalues --  -11.53807 -11.47715 -11.41630 -10.51632  -9.71808
 Alpha  occ. eigenvalues --   -9.70702  -9.70328  -1.76670  -1.73902  -1.52525
 Alpha  occ. eigenvalues --   -1.32291  -1.16768  -1.03334  -0.88424  -0.82466
 Alpha  occ. eigenvalues --   -0.72049  -0.65112  -0.64308  -0.63664  -0.60341
 Alpha  occ. eigenvalues --   -0.58369  -0.53141  -0.52558  -0.51758  -0.51417
 Alpha  occ. eigenvalues --   -0.44753  -0.34794  -0.34619  -0.30032
 Alpha virt. eigenvalues --    0.02408   0.04743   0.05051   0.05463   0.05994
 Alpha virt. eigenvalues --    0.07724   0.09673   0.09858   0.10002   0.10748
 Alpha virt. eigenvalues --    0.12932   0.13507   0.14618   0.14878   0.15167

 Mulliken charges:
               1
     1  C   -3.157135
     2  C   -3.157134
     3  C    4.490911
     4  N   -1.999948
     5  C    4.490912
     6  O   -3.396754
     7  O   -3.396754
     8  Cl   0.642628
     9  H    1.370838
    10  H    1.370800
    11  H    1.370836
    12  H    1.370801
 Sum of Mulliken charges =  -0.00000

 Dipole moment (field-independent basis, Debye):
    X=              2.9470    Y=              0.0000    Z=              0.0001  Tot=              2.9470

 Test job not archived.
 1\1\GINC-SE126\SP\RHF\Aug-CC-pVDZ\C4H4Cl1N1O2\OHZDE\09-Apr-2025\0\\#t
 hf aug-cc-pvdz iop(5/13=1,5/36=2,99/5=2) pseudo=read geom=check guess=
 (read,tcheck) scf=(maxcycle=1)\\title\\0,1\C,0,1.878492,0.765805,-0.00
 0012\C,0,1.878492,-0.765805,0.000113\C,0,0.422671,1.184171,-0.000014\N
 ,0,-0.324447,0.,-0.000014\C,0,0.422671,-1.184171,0.000039\O,0,-0.03386
 1,-2.28792,0.000037\O,0,-0.033861,2.28792,-0.00003\Cl,0,-2.013484,0.,-
 0.000057\H,0,2.357014,1.199291,-0.878288\H,0,2.357081,1.199455,0.87814
 5\H,0,2.356969,-1.199293,0.878413\H,0,2.357125,-1.199454,-0.87802\\Ver

 Normal termination of Gaussian 16 at Wed Apr  9 00:56:26 2025.
