 Gaussian 16, Revision C.01,

 ----------------------------------------------------------------------
 #t hf aug-cc-pvdz symm=none int=(grid=ultrafine) guess=(read,tcheck) s
 table=opt
 ----------------------------------------------------------------------
 -----
 title
 -----
 Symbolic Z-matrix:
 Charge =  0 Multiplicity = 2

 SCF Done:  E(UHF) =  -1001.56823640     A.U. after   27 cycles
 Normal termination of Gaussian 16 at Wed Apr  9 01:06:45 2025.
 Gaussian 16:  ES64L-G16RevC.01  3-Jul-2019

 ----------------------------------------------------------------------
 #t hf aug-cc-pvdz iop(5/13=1,5/36=2,99/5=2) pseudo=read geom=check gue
 ss=(read,tcheck) scf=(maxcycle=1)
 ----------------------------------------------------------------------
 -----
 title
 -----
 Structure from the checkpoint file:  "BH10_165_forward_mol1.chk"
 Charge =  0 Multiplicity = 2

                         Standard orientation:
 ---------------------------------------------------------------------
 Center     Atomic      Atomic             Coordinates (Angstroms)
 Number     Number       Type             X           Y           Z
 ---------------------------------------------------------------------
      1          7           0       -0.461848    1.011770   -0.267501
      2          1           0        0.522059    0.949599   -0.034495
      3          6           0       -1.165155   -0.193404   -0.681548
      4          1           0       -1.845775    0.100144   -1.488238
      5          6           0       -0.197727   -1.229519   -1.227240
      6          6           0       -2.044007   -0.803540    0.428985
      7          1           0       -0.757935   -2.097743   -1.567518
      8          1           0        0.344136   -0.820079   -2.080522
      9         16           0        1.022884   -1.844711   -0.026759
     10          8           0       -1.924639   -1.966815    0.760190
     11          1           0        2.151526   -0.922688   -0.445558
     12          7           0       -2.954186    0.041197    0.953222
     13          1           0       -3.074828    0.974304    0.575066
     14          1           0       -3.583079   -0.316582    1.654015
     15          6           0       -1.034243    2.226629   -0.254776
     16          1           0       -0.325350    3.035149   -0.020333
     17          8           0       -2.215917    2.440849   -0.469682
     18          8           0        2.896485    0.043736   -0.758317
     19          8           0        2.568129    1.066540    0.074630
     20          6           0        3.297289    0.955797    1.300109
     21          1           0        3.053760    1.857242    1.860034
     22          1           0        2.967893    0.067253    1.842033
     23          1           0        4.364286    0.907732    1.085872
 ---------------------------------------------------------------------

 SCF Done:  E(UHF) =  -1004.43239425     A.U. after    2 cycles

 The electronic state is 2-A.
 Alpha  occ. eigenvalues --  -75.69976 -21.17220 -21.14479 -21.04173 -21.02361
 Alpha  occ. eigenvalues --  -15.77824 -15.76524 -13.16589 -13.12011 -13.06174
 Alpha  occ. eigenvalues --  -11.52149 -11.49808 -11.47197 -11.43894 -11.41860
 Alpha  occ. eigenvalues --   -8.03686  -2.05324  -1.72708  -1.70405  -1.44521
 Alpha  occ. eigenvalues --   -1.43103  -1.33483  -1.21847  -1.07865  -1.00108
 Alpha  occ. eigenvalues --   -0.92666  -0.86929  -0.78678  -0.74389  -0.72806
 Alpha  occ. eigenvalues --   -0.70956  -0.67037  -0.66041  -0.64939  -0.62720
 Alpha  occ. eigenvalues --   -0.59063  -0.57031  -0.55074  -0.52361  -0.51956
 Alpha  occ. eigenvalues --   -0.50114  -0.48554  -0.48161  -0.43258  -0.38491
 Alpha  occ. eigenvalues --   -0.37202  -0.34405  -0.32600  -0.31232  -0.28903
 Alpha  occ. eigenvalues --   -0.26743  -0.23845
 Alpha virt. eigenvalues --    0.03009   0.04235   0.04878   0.05297   0.05683
 Alpha virt. eigenvalues --    0.06031   0.06544   0.06670   0.07685   0.08703
 Alpha virt. eigenvalues --    0.09658   0.09818   0.10830   0.11270   0.12559

  Beta  occ. eigenvalues --  -75.69433 -21.14458 -21.13914 -21.04173 -21.02323
  Beta  occ. eigenvalues --  -15.77819 -15.76523 -13.14940 -13.09932 -13.05850
  Beta  occ. eigenvalues --  -11.52152 -11.49809 -11.47213 -11.43919 -11.41889
  Beta  occ. eigenvalues --   -8.03097  -2.01530  -1.72692  -1.70358  -1.43069
  Beta  occ. eigenvalues --   -1.39114  -1.33474  -1.20393  -1.05951  -0.99695
  Beta  occ. eigenvalues --   -0.91288  -0.86920  -0.78583  -0.74195  -0.72527
  Beta  occ. eigenvalues --   -0.68487  -0.66394  -0.65582  -0.64686  -0.61161
  Beta  occ. eigenvalues --   -0.57551  -0.55950  -0.53657  -0.52321  -0.51888
  Beta  occ. eigenvalues --   -0.49451  -0.48175  -0.46746  -0.42109  -0.36389
  Beta  occ. eigenvalues --   -0.35551  -0.34209  -0.32277  -0.31138  -0.28425
  Beta  occ. eigenvalues --   -0.23711
  Beta virt. eigenvalues --    0.03016   0.04239   0.04765   0.05252   0.05653
  Beta virt. eigenvalues --    0.05965   0.06542   0.06695   0.07554   0.08136
  Beta virt. eigenvalues --    0.08739   0.09732   0.10329   0.11132   0.11793

 Mulliken charges and spin densities:
               1          2
     1  N   -2.748236  -0.010698
     2  H    1.134827  -0.008436
     3  C   -1.059909  -0.048833
     4  H    2.070689   0.000822
     5  C   -3.666222  -0.074727
     6  C    4.858874   0.062906
     7  H    1.229338   0.002023
     8  H    1.175580   0.012664
     9  S   -0.674965   0.692884
    10  O   -3.057273  -0.004257
    11  H    2.140383  -0.377709
    12  N   -3.043723  -0.006082
    13  H    0.850570  -0.001504
    14  H    0.763247   0.002068
    15  C    2.255779  -0.000941
    16  H    1.814055  -0.000418
    17  O   -2.936781   0.000649
    18  O   -1.089401   0.695629
    19  O   -1.386040   0.059335
    20  C   -2.735643   0.007198
    21  H    1.369814  -0.002222
    22  H    1.431581   0.004774
    23  H    1.303457  -0.005124
 Sum of Mulliken charges =  -0.00000   1.00000

 Dipole moment (field-independent basis, Debye):
    X=              2.0125    Y=              0.4184    Z=              1.2408  Tot=              2.4010
                          Isotropic Fermi Contact Couplings
        Atom                 a.u.       MegaHertz       Gauss      10(-4) cm-1
     1  N(14)              0.00089       0.28718       0.10247       0.09579
     2  H(1)              -0.00011      -0.49398      -0.17626      -0.16477
     3  C(13)              0.00004       0.04522       0.01614       0.01508
     4  H(1)              -0.00011      -0.49009      -0.17488      -0.16348
     5  C(13)             -0.00564      -6.34331      -2.26345      -2.11590
     6  C(13)             -0.00046      -0.51909      -0.18522      -0.17315
     7  H(1)               0.00361      16.15759       5.76543       5.38959
     8  H(1)               0.00381      17.03849       6.07976       5.68343

 1\1\GINC-SE149\SP\UHF\Aug-CC-pVDZ\C5H11N2O4S1(2)\OHZDE\09-Apr-2025\0\\
 #t hf aug-cc-pvdz iop(5/13=1,5/36=2,99/5=2) pseudo=read geom=check gue
 ss=(read,tcheck) scf=(maxcycle=1)\\title\\0,2\N,0,-0.461848,1.01177,-0
 .267501\H,0,0.522059,0.949599,-0.034495\C,0,-1.165155,-0.193404,-0.681
 548\H,0,-1.845775,0.100144,-1.488238\C,0,-0.197727,-1.229519,-1.22724\
 C,0,-2.044007,-0.80354,0.428985\H,0,-0.757935,-2.097743,-1.567518\H,0,
 0.344136,-0.820079,-2.080522\S,0,1.022884,-1.844711,-0.026759\O,0,-1.9
 24639,-1.966815,0.76019\H,0,2.151526,-0.922688,-0.445558\N,0,-2.954186

 Normal termination of Gaussian 16 at Wed Apr  9 01:07:05 2025.
