 Gaussian 16, Revision C.01,

 ----------------------------------------------------------------------
 #t hf aug-cc-pvdz symm=none int=(grid=ultrafine) guess=(read,tcheck) s
 table=(opt,rrhf)
 ----------------------------------------------------------------------
 -----
 title
 -----
 Symbolic Z-matrix:
 Charge =  1 Multiplicity = 1

 SCF Done:  E(RHF) =  -1233.64341337     A.U. after   14 cycles
 Normal termination of Gaussian 16 at Wed Apr  9 02:00:46 2025.
 Gaussian 16:  ES64L-G16RevC.01  3-Jul-2019

 ----------------------------------------------------------------------
 #t hf aug-cc-pvdz iop(5/13=1,5/36=2,99/5=2) pseudo=read geom=check gue
 ss=(read,tcheck) scf=(maxcycle=1)
 ----------------------------------------------------------------------
 -----
 title
 -----
 Structure from the checkpoint file:  "BH10_325_forward_mol1.chk"
 Charge =  1 Multiplicity = 1

                         Standard orientation:
 ---------------------------------------------------------------------
 Center     Atomic      Atomic             Coordinates (Angstroms)
 Number     Number       Type             X           Y           Z
 ---------------------------------------------------------------------
      1          7           0       -2.226533   -0.667593   -1.574676
      2          6           0       -3.373811   -1.131618   -0.805416
      3          6           0       -3.041896   -1.195320    0.676761
      4          1           0       -3.710459   -2.126723   -1.121973
      5          1           0       -4.215356   -0.447020   -0.947861
      6          8           0       -1.972693   -0.895213    1.126261
      7          8           0       -4.024456   -1.614571    1.476205
      8          6           0       -1.308376    1.138508   -1.097637
      9         16           0        0.126429    2.826570   -0.401844
     10          1           0       -0.544748    0.852360   -1.794449
     11          1           0       -2.123797    1.772316   -1.412601
     12          1           0       -1.280163    0.755666   -0.094230
     13          1           0       -4.829792   -1.842497    0.995999
     14          6           0        1.098153    1.737722    0.690802
     15          6           0       -0.875267    3.661187    0.851085
     16          1           0       -1.569042    4.319330    0.330714
     17          1           0       -0.234610    4.260880    1.495302
     18          1           0       -1.428293    2.934417    1.446144
     19          6           0        2.095011    0.894796   -0.086896
     20          1           0        0.413951    1.099781    1.249422
     21          1           0        1.633518    2.373516    1.397671
     22          6           0        2.729703   -0.209701    0.759987
     23          8           0        1.448717    0.230869   -1.186716
     24          1           0        2.877014    1.533669   -0.506276
     25          6           0        1.662968   -1.169936   -1.168904
     26          6           0        2.903308   -1.333139   -0.268677
     27          8           0        2.930336   -2.603931    0.342782
     28          1           0        3.800950   -1.155821   -0.866254
     29          8           0        1.827951   -0.616489    1.766033
     30          1           0        3.678214    0.115881    1.197101
     31          7           0        0.459591   -1.851520   -0.727421
     32          1           0        1.872559   -1.490582   -2.190295
     33          1           0        2.104877   -1.487674    2.076758
     34          1           0        3.810659   -2.985439    0.299365
     35          1           0       -2.430171   -0.685895   -2.568877
     36          1           0       -1.384759   -1.238048   -1.395780
     37          1           0        0.600196   -2.854850   -0.806035
     38          1           0        0.287371   -1.654897    0.257178
 ---------------------------------------------------------------------

 SCF Done:  E(RHF) =  -1237.64854445     A.U. after    2 cycles

 The electronic state is 1-A.
 Alpha  occ. eigenvalues --  -75.82583 -21.24460 -21.19393 -21.17589 -21.17162
 Alpha  occ. eigenvalues --  -21.16128 -15.88641 -15.84311 -13.33471 -13.30457
 Alpha  occ. eigenvalues --  -13.25108 -11.66189 -11.64027 -11.61731 -11.60539
 Alpha  occ. eigenvalues --  -11.58512 -11.55854 -11.55531 -11.52204 -11.51181
 Alpha  occ. eigenvalues --   -8.16705  -1.95434  -1.92491  -1.84252  -1.81168
 Alpha  occ. eigenvalues --   -1.78344  -1.49815  -1.43560  -1.38157  -1.26266
 Alpha  occ. eigenvalues --   -1.20659  -1.19596  -1.14178  -1.10499  -1.02374
 Alpha  occ. eigenvalues --   -0.94465  -0.92953  -0.92296  -0.86073  -0.85595
 Alpha  occ. eigenvalues --   -0.80370  -0.79976  -0.79093  -0.76952  -0.76341
 Alpha  occ. eigenvalues --   -0.74994  -0.74388  -0.72146  -0.71824  -0.71029
 Alpha  occ. eigenvalues --   -0.70983  -0.68890  -0.67329  -0.66203  -0.64635
 Alpha  occ. eigenvalues --   -0.64028  -0.63395  -0.60374  -0.57568  -0.56812
 Alpha  occ. eigenvalues --   -0.55452  -0.53434  -0.52533  -0.50961  -0.49113
 Alpha  occ. eigenvalues --   -0.48216  -0.45986  -0.44344  -0.42867  -0.42122
 Alpha  occ. eigenvalues --   -0.41041  -0.37200
 Alpha virt. eigenvalues --   -0.06159  -0.05391  -0.04846  -0.04389  -0.03766
 Alpha virt. eigenvalues --   -0.03442  -0.02984  -0.02567  -0.02359  -0.02157
 Alpha virt. eigenvalues --   -0.02060  -0.00878  -0.00860  -0.00543   0.00118

 Mulliken charges:
               1
     1  N   -2.381443
     2  C   -2.624909
     3  C    5.634038
     4  H    1.466612
     5  H    1.545803
     6  O   -2.836107
     7  O   -3.402192
     8  C   -5.441166
     9  S   -0.126693
    10  H    2.342663
    11  H    1.487751
    12  H    2.832644
    13  H    1.028492
    14  C   -2.720883
    15  C   -5.090728
    16  H    1.451545
    17  H    1.435368
    18  H    1.501235
    19  C   -0.238915
    20  H    2.285834
    21  H    1.453967
    22  C    0.424717
    23  O   -3.787614
    24  H    1.885463
    25  C    1.256433
    26  C    1.531706
    27  O   -3.538529
    28  H    1.724845
    29  O   -3.546279
    30  H    1.795056
    31  N   -3.346658
    32  H    2.113135
    33  H    0.900391
    34  H    0.752121
    35  H    0.650271
    36  H    1.112053
    37  H    0.677946
    38  H    0.792028
 Sum of Mulliken charges =   1.00000

 Dipole moment (field-independent basis, Debye):
    X=             -2.3931    Y=              1.4976    Z=             -3.1835  Tot=              4.2549

 Test job not archived.
 1\1\GINC-SE367\SP\RHF\Aug-CC-pVDZ\C9H21N2O5S1(1+)\OHZDE\09-Apr-2025\0\
 \#t hf aug-cc-pvdz iop(5/13=1,5/36=2,99/5=2) pseudo=read geom=check gu
 ess=(read,tcheck) scf=(maxcycle=1)\\title\\1,1\N,0,-2.226533,-0.667593
 ,-1.574676\C,0,-3.373811,-1.131618,-0.805416\C,0,-3.041896,-1.19532,0.
 676761\H,0,-3.710459,-2.126723,-1.121973\H,0,-4.215356,-0.44702,-0.947
 861\O,0,-1.972693,-0.895213,1.126261\O,0,-4.024456,-1.614571,1.476205\
 C,0,-1.308376,1.138508,-1.097637\S,0,0.126429,2.82657,-0.401844\H,0,-0
 .544748,0.85236,-1.794449\H,0,-2.123797,1.772316,-1.412601\H,0,-1.2801

 Normal termination of Gaussian 16 at Wed Apr  9 02:01:41 2025.
