 Gaussian 16, Revision C.01,

 ----------------------------------------------------------------------
 #t hf aug-cc-pvdz symm=none int=(grid=ultrafine) guess=(read,tcheck) s
 table=(opt,rrhf)
 ----------------------------------------------------------------------
 -----
 title
 -----
 Symbolic Z-matrix:
 Charge =  0 Multiplicity = 1

 SCF Done:  E(RHF) =  -420.789369903     A.U. after   13 cycles
 Normal termination of Gaussian 16 at Wed Apr  9 02:12:20 2025.
 Gaussian 16:  ES64L-G16RevC.01  3-Jul-2019

 ----------------------------------------------------------------------
 #t hf aug-cc-pvdz iop(5/13=1,5/36=2,99/5=2) pseudo=read geom=check gue
 ss=(read,tcheck) scf=(maxcycle=1)
 ----------------------------------------------------------------------
 -----
 title
 -----
 Structure from the checkpoint file:  "BH10_99_forward_mol2.chk"
 Charge =  0 Multiplicity = 1

                         Standard orientation:
 ---------------------------------------------------------------------
 Center     Atomic      Atomic             Coordinates (Angstroms)
 Number     Number       Type             X           Y           Z
 ---------------------------------------------------------------------
      1          6           0       -0.285603    0.383929   -0.658697
      2          6           0        1.048336    0.027845   -0.005033
      3          8           0        1.491756   -1.181264   -0.397078
      4          8           0        1.660603    0.737222    0.741152
      5          6           0       -1.311899   -0.707010   -0.426580
      6          1           0       -0.096088    0.400766   -1.738681
      7          7           0       -0.816255    1.660898   -0.246853
      8          1           0        2.339468   -1.340862    0.041317
      9          1           0       -0.119546    2.389925   -0.339623
     10          1           0       -1.079345    1.627333    0.732084
     11          1           0       -2.250406   -0.438794   -0.910782
     12          9           0       -1.560957   -0.807101    0.944686
     13          1           0       -0.955563   -1.676988   -0.769256
 ---------------------------------------------------------------------

 SCF Done:  E(RHF) =  -422.535977124     A.U. after    2 cycles

 The electronic state is 1-A.
 Alpha  occ. eigenvalues --  -29.25922 -21.13350 -21.06374 -15.74167 -11.53650
 Alpha  occ. eigenvalues --  -11.48474 -11.42796  -1.84318  -1.66751  -1.38170
 Alpha  occ. eigenvalues --   -1.17705  -1.00022  -0.81493  -0.72975  -0.69046
 Alpha  occ. eigenvalues --   -0.66697  -0.61968  -0.60818  -0.58011  -0.54401
 Alpha  occ. eigenvalues --   -0.51300  -0.47295  -0.37562  -0.36977  -0.35173
 Alpha  occ. eigenvalues --   -0.30757  -0.26006  -0.25908
 Alpha virt. eigenvalues --    0.04029   0.05077   0.05834   0.05985   0.06279
 Alpha virt. eigenvalues --    0.07474   0.10240   0.11226   0.11862   0.13563
 Alpha virt. eigenvalues --    0.13736   0.14562   0.14961   0.15691   0.17640

 Mulliken charges:
               1
     1  C   -1.294141
     2  C    6.208765
     3  O   -3.118642
     4  O   -3.060109
     5  C   -2.755930
     6  H    1.758462
     7  N   -2.785628
     8  H    0.898323
     9  H    0.624204
    10  H    0.529767
    11  H    1.308746
    12  F    0.152369
    13  H    1.533816
 Sum of Mulliken charges =   0.00000

 Dipole moment (field-independent basis, Debye):
    X=             -0.0371    Y=             -1.0743    Z=              0.9129  Tot=              1.4103

 Test job not archived.
 1\1\GINC-SE051\SP\RHF\Aug-CC-pVDZ\C3H6F1N1O2\OHZDE\09-Apr-2025\0\\#t h
 f aug-cc-pvdz iop(5/13=1,5/36=2,99/5=2) pseudo=read geom=check guess=(
 read,tcheck) scf=(maxcycle=1)\\title\\0,1\C,0,-0.285603,0.383929,-0.65
 8697\C,0,1.048336,0.027845,-0.005033\O,0,1.491756,-1.181264,-0.397078\
 O,0,1.660603,0.737222,0.741152\C,0,-1.311899,-0.70701,-0.42658\H,0,-0.
 096088,0.400766,-1.738681\N,0,-0.816255,1.660898,-0.246853\H,0,2.33946
 8,-1.340862,0.041317\H,0,-0.119545,2.389925,-0.339623\H,0,-1.079345,1.
 627333,0.732084\H,0,-2.250406,-0.438793,-0.910782\F,0,-1.560957,-0.807

 Normal termination of Gaussian 16 at Wed Apr  9 02:12:25 2025.
