 Gaussian 16, Revision C.01,

 ----------------------------------------------------------------------
 #t hf aug-cc-pvdz symm=none int=(grid=ultrafine) guess=(read,tcheck) s
 table=(opt,rrhf)
 ----------------------------------------------------------------------
 -----
 title
 -----
 Symbolic Z-matrix:
 Charge =  0 Multiplicity = 1

 SCF Done:  E(RHF) =  -1024.98660953     A.U. after   15 cycles
 Normal termination of Gaussian 16 at Wed Apr  9 01:58:49 2025.
 Gaussian 16:  ES64L-G16RevC.01  3-Jul-2019

 ----------------------------------------------------------------------
 #t hf aug-cc-pvdz iop(5/13=1,5/36=2,99/5=2) pseudo=read geom=check gue
 ss=(read,tcheck) scf=(maxcycle=1)
 ----------------------------------------------------------------------
 -----
 title
 -----
 Structure from the checkpoint file:  "BH10_345_forward_mol1.chk"
 Charge =  0 Multiplicity = 1

                         Standard orientation:
 ---------------------------------------------------------------------
 Center     Atomic      Atomic             Coordinates (Angstroms)
 Number     Number       Type             X           Y           Z
 ---------------------------------------------------------------------
      1          7           0        0.625986    0.959617   -0.355103
      2          6           0        1.939896    0.603313    0.013679
      3          6           0        2.136271   -0.722653    0.055135
      4         16           0        0.669214   -1.590377   -0.369917
      5          6           0       -0.207574   -0.096923   -0.537302
      6          6           0        2.940257    1.668359    0.314627
      7          1           0        3.150095    2.289877   -0.559489
      8          1           0        3.878375    1.217193    0.628328
      9          1           0        2.600054    2.320559    1.122159
     10          6           0        3.364989   -1.500153    0.390460
     11          1           0        4.204409   -0.841101    0.606496
     12          1           0        3.657969   -2.149427   -0.438362
     13          1           0        3.203602   -2.134325    1.265545
     14          6           0        0.197205    2.348075   -0.495198
     15          1           0        1.064188    2.995000   -0.417997
     16          1           0       -0.510995    2.606440    0.289304
     17          1           0       -0.253291    2.502597   -1.473680
     18          6           0       -1.588809   -0.150829   -0.719245
     19          6           0       -2.463175    0.907138   -1.344408
     20          1           0       -2.314462    1.896005   -0.919017
     21          1           0       -3.504102    0.628587   -1.173890
     22          1           0       -2.315637    0.956949   -2.428284
     23          8           0       -2.011280   -1.447000   -1.010788
     24          6           0       -2.079057    0.052831    1.351918
     25          8           0       -1.675114    1.101187    1.728957
     26          8           0       -2.672884   -0.961703    1.527345
     27          1           0       -2.515339   -1.754455   -0.238841
 ---------------------------------------------------------------------

 SCF Done:  E(RHF) =  -1028.10903543     A.U. after    2 cycles

 The electronic state is 1-A.
 Alpha  occ. eigenvalues --  -75.71835 -21.07994 -21.07505 -21.05893 -15.79323
 Alpha  occ. eigenvalues --  -13.20775 -13.19354 -13.05447 -11.56475 -11.53341
 Alpha  occ. eigenvalues --  -11.49878 -11.44358 -11.43983 -11.43385 -11.42803
 Alpha  occ. eigenvalues --  -11.39615 -11.38406  -8.06328  -1.79170  -1.72227
 Alpha  occ. eigenvalues --   -1.67073  -1.54454  -1.26760  -1.20865  -1.11591
 Alpha  occ. eigenvalues --   -1.09373  -1.03525  -1.00933  -0.89859  -0.80048
 Alpha  occ. eigenvalues --   -0.74147  -0.71057  -0.68527  -0.66138  -0.64841
 Alpha  occ. eigenvalues --   -0.63624  -0.61185  -0.60423  -0.58734  -0.57989
 Alpha  occ. eigenvalues --   -0.57561  -0.56421  -0.55459  -0.54417  -0.53622
 Alpha  occ. eigenvalues --   -0.52067  -0.51391  -0.49809  -0.45657  -0.43660
 Alpha  occ. eigenvalues --   -0.40356  -0.36870  -0.33373  -0.32054  -0.30889
 Alpha  occ. eigenvalues --   -0.30571  -0.20277
 Alpha virt. eigenvalues --    0.02435   0.03858   0.04588   0.05020   0.05311
 Alpha virt. eigenvalues --    0.05833   0.05938   0.06636   0.07238   0.07507
 Alpha virt. eigenvalues --    0.07768   0.08283   0.09247   0.09972   0.10278

 Mulliken charges:
               1
     1  N   -5.132646
     2  C    2.668170
     3  C    1.616604
     4  S    1.010423
     5  C    2.602779
     6  C   -5.355476
     7  H    1.136309
     8  H    1.284665
     9  H    1.095383
    10  C   -6.153427
    11  H    1.241398
    12  H    1.257891
    13  H    1.240627
    14  C   -4.087737
    15  H    1.541336
    16  H    1.877178
    17  H    1.576459
    18  C    5.770652
    19  C   -5.772322
    20  H    1.353152
    21  H    1.177988
    22  H    1.156351
    23  O   -3.662194
    24  C    5.514397
    25  O   -2.804795
    26  O   -2.853974
    27  H    0.700806
 Sum of Mulliken charges =  -0.00000

 Dipole moment (field-independent basis, Debye):
    X=              4.6425    Y=              0.3206    Z=             -1.3730  Tot=              4.8519

 Test job not archived.
 1\1\GINC-SE095\SP\RHF\Aug-CC-pVDZ\C9H13N1O3S1\OHZDE\09-Apr-2025\0\\#t
 hf aug-cc-pvdz iop(5/13=1,5/36=2,99/5=2) pseudo=read geom=check guess=
 (read,tcheck) scf=(maxcycle=1)\\title\\0,1\N,0,0.625986,0.959617,-0.35
 5103\C,0,1.939896,0.603313,0.013679\C,0,2.136271,-0.722653,0.055135\S,
 0,0.669214,-1.590377,-0.369917\C,0,-0.207574,-0.096923,-0.537302\C,0,2
 .940257,1.668359,0.314627\H,0,3.150095,2.289877,-0.559489\H,0,3.878375
 ,1.217193,0.628328\H,0,2.600054,2.320559,1.122159\C,0,3.364989,-1.5001
 53,0.39046\H,0,4.204409,-0.841101,0.606496\H,0,3.657969,-2.149427,-0.4

 Normal termination of Gaussian 16 at Wed Apr  9 02:00:10 2025.
