 Gaussian 16, Revision C.01,

 ----------------------------------------------------------------------
 #t hf aug-cc-pvdz symm=none int=(grid=ultrafine) guess=(read,tcheck) s
 table=opt
 ----------------------------------------------------------------------
 -----
 title
 -----
 Symbolic Z-matrix:
 Charge =  0 Multiplicity = 2

 SCF Done:  E(UHF) =  -676.683755787     A.U. after   17 cycles
 Normal termination of Gaussian 16 at Wed Apr  9 01:54:13 2025.
 Gaussian 16:  ES64L-G16RevC.01  3-Jul-2019

 ----------------------------------------------------------------------
 #t hf aug-cc-pvdz iop(5/13=1,5/36=2,99/5=2) pseudo=read geom=check gue
 ss=(read,tcheck) scf=(maxcycle=1)
 ----------------------------------------------------------------------
 -----
 title
 -----
 Structure from the checkpoint file:  "BH10_32_reverse_mol2.chk"
 Charge =  0 Multiplicity = 2

                         Standard orientation:
 ---------------------------------------------------------------------
 Center     Atomic      Atomic             Coordinates (Angstroms)
 Number     Number       Type             X           Y           Z
 ---------------------------------------------------------------------
      1          6           0        1.074515    2.332030    0.062177
      2          6           0        1.053686    0.855613   -0.146432
      3          8           0        0.085687    0.169406    0.543720
      4          6           0        2.315555    0.124827   -0.336754
      5         14           0       -1.464649   -0.196978    0.014017
      6          6           0       -2.254307   -1.054331    1.466205
      7          1           0       -1.684603   -1.942023    1.749659
      8          1           0       -3.274309   -1.369857    1.231803
      9          1           0       -2.297266   -0.393048    2.334322
     10          6           0       -1.361990   -1.317456   -1.478519
     11          1           0       -0.750853   -0.864009   -2.262590
     12          1           0       -2.355389   -1.504861   -1.895046
     13          1           0       -0.919345   -2.283463   -1.225985
     14          6           0       -2.386472    1.366935   -0.436063
     15          1           0       -2.423160    2.065080    0.403291
     16          1           0       -3.416324    1.133171   -0.720104
     17          1           0       -1.920402    1.876990   -1.282325
     18          1           0        1.802271    2.806864   -0.598059
     19          1           0        0.096689    2.779667   -0.124695
     20          1           0        1.351698    2.577073    1.098852
     21          6           0        2.343647   -1.372481   -0.474570
     22          1           0        3.055247    0.671828   -0.909584
     23          6           0        2.868307   -0.750102    0.780957
     24          1           0        3.050022   -1.798775   -1.175309
     25          1           0        1.395840   -1.889057   -0.412254
     26          1           0        3.937105   -0.739523    0.951949
     27          1           0        2.254714   -0.833824    1.668064
 ---------------------------------------------------------------------

 SCF Done:  E(UHF) =  -678.749957467     A.U. after    2 cycles

 The electronic state is 2-A.
 Alpha  occ. eigenvalues --  -76.20157 -21.03363 -11.45430 -11.41546 -11.39913
 Alpha  occ. eigenvalues --  -11.37082 -11.35083 -11.34470 -11.34288 -11.34094
 Alpha  occ. eigenvalues --   -5.54524  -2.21254  -2.18058  -2.17872  -1.71606
 Alpha  occ. eigenvalues --   -1.29876  -1.11194  -1.06716  -1.00963  -1.00898
 Alpha  occ. eigenvalues --   -0.91424  -0.85537  -0.77338  -0.67400  -0.65189
 Alpha  occ. eigenvalues --   -0.62097  -0.59807  -0.56751  -0.56356  -0.56191
 Alpha  occ. eigenvalues --   -0.55183  -0.55027  -0.53891  -0.53219  -0.52755
 Alpha  occ. eigenvalues --   -0.50158  -0.47673  -0.45294  -0.41489  -0.40390
 Alpha  occ. eigenvalues --   -0.38935  -0.37177  -0.32783  -0.22641
 Alpha virt. eigenvalues --    0.03332   0.04949   0.05073   0.05341   0.05371
 Alpha virt. eigenvalues --    0.05696   0.05780   0.06325   0.06425   0.07161
 Alpha virt. eigenvalues --    0.07443   0.07956   0.08270   0.08685   0.08995

  Beta  occ. eigenvalues --  -76.20143 -21.03092 -11.43965 -11.41334 -11.39755
  Beta  occ. eigenvalues --  -11.36839 -11.34953 -11.34463 -11.34290 -11.34096
  Beta  occ. eigenvalues --   -5.54500  -2.21142  -2.18045  -2.17855  -1.70176
  Beta  occ. eigenvalues --   -1.29181  -1.09086  -1.06568  -1.00951  -1.00901
  Beta  occ. eigenvalues --   -0.89823  -0.84851  -0.75457  -0.66468  -0.64155
  Beta  occ. eigenvalues --   -0.60672  -0.57341  -0.56585  -0.56310  -0.55383
  Beta  occ. eigenvalues --   -0.54912  -0.54489  -0.53794  -0.53109  -0.51979
  Beta  occ. eigenvalues --   -0.49941  -0.45495  -0.42824  -0.41313  -0.39590
  Beta  occ. eigenvalues --   -0.38256  -0.35922  -0.32577
  Beta virt. eigenvalues --    0.03228   0.04953   0.05031   0.05307   0.05371
  Beta virt. eigenvalues --    0.05697   0.05782   0.06285   0.06407   0.07148
  Beta virt. eigenvalues --    0.07442   0.07935   0.08235   0.08641   0.09000

 Mulliken charges and spin densities:
               1          2
     1  C   -5.093172  -0.331981
     2  C    2.071791   1.914634
     3  O   -5.134219  -0.004156
     4  C   -0.497737  -0.873430
     5  Si  11.808933   0.041647
     6  C   -6.280887   0.002979
     7  H    1.113224   0.004910
     8  H    1.121779   0.003360
     9  H    1.047230   0.004996
    10  C   -6.496136  -0.035379
    11  H    0.896958   0.014433
    12  H    0.989877  -0.000485
    13  H    1.384433   0.000646
    14  C   -6.335121  -0.011917
    15  H    1.185699  -0.005598
    16  H    1.152857   0.000356
    17  H    1.128879  -0.001848
    18  H    1.248165  -0.005863
    19  H    1.492335   0.015623
    20  H    1.328553   0.035931
    21  C   -2.297209   0.108860
    22  H    1.397269  -0.019650
    23  C   -2.791948   0.159788
    24  H    1.166773  -0.002744
    25  H    1.738935  -0.003971
    26  H    1.261464  -0.003662
    27  H    1.391277  -0.007478
 Sum of Mulliken charges =   0.00000   1.00000

 Dipole moment (field-independent basis, Debye):
    X=             -0.1767    Y=             -0.1249    Z=              0.0988  Tot=              0.2379
                          Isotropic Fermi Contact Couplings
        Atom                 a.u.       MegaHertz       Gauss      10(-4) cm-1
     1  C(13)             -0.01714     -19.27378      -6.87736      -6.42904
     2  C(13)              0.17975     202.07009      72.10363      67.40333
     3  O(17)              0.01460      -8.85154      -3.15845      -2.95256
     4  C(13)             -0.03088     -34.71426     -12.38691     -11.57943
     5  Si(29)             0.04621     -41.07056     -14.65500     -13.69966
     6  C(13)             -0.00111      -1.25344      -0.44726      -0.41810
     7  H(1)               0.00002       0.09518       0.03396       0.03175
     8  H(1)              -0.00015      -0.67887      -0.24224      -0.22645

 Normal termination of Gaussian 16 at Wed Apr  9 01:54:35 2025.
