 Gaussian 16, Revision C.01,

 ----------------------------------------------------------------------
 #t hf aug-cc-pvdz symm=none int=(grid=ultrafine) guess=(read,tcheck) s
 table=(opt,rrhf)
 ----------------------------------------------------------------------
 -----
 title
 -----
 Symbolic Z-matrix:
 Charge =  0 Multiplicity = 1

 SCF Done:  E(RHF) =  -844.552437444     A.U. after   15 cycles
 Normal termination of Gaussian 16 at Wed Apr  9 00:57:22 2025.
 Gaussian 16:  ES64L-G16RevC.01  3-Jul-2019

 ----------------------------------------------------------------------
 #t hf aug-cc-pvdz iop(5/13=1,5/36=2,99/5=2) pseudo=read geom=check gue
 ss=(read,tcheck) scf=(maxcycle=1)
 ----------------------------------------------------------------------
 -----
 title
 -----
 Structure from the checkpoint file:  "BH10-RE_124_mol3.chk"
 Charge =  0 Multiplicity = 1

                         Standard orientation:
 ---------------------------------------------------------------------
 Center     Atomic      Atomic             Coordinates (Angstroms)
 Number     Number       Type             X           Y           Z
 ---------------------------------------------------------------------
      1          6           0       -2.042212    0.045657    0.158994
      2          6           0       -1.023984   -0.798111   -0.617298
      3          6           0        0.344562   -0.159519   -0.697458
      4          8           0        0.558867    0.901098   -1.226112
      5          6           0        3.050104   -0.027330   -0.192447
      6          6           0        3.136682    1.103596    0.819286
      7          6           0       -1.588318    0.341115    1.574398
      8          6           0       -2.483719    1.284910   -0.588597
      9          1           0       -0.960034   -1.777717   -0.141763
     10          1           0        2.968477    0.357583   -1.208323
     11          1           0        3.922177   -0.679920   -0.141620
     12          1           0        2.264661    1.753496    0.745723
     13          1           0        4.025039    1.709748    0.625785
     14          1           0        3.201409    0.719684    1.838606
     15          1           0       -1.311566   -0.578671    2.091522
     16          1           0       -2.396219    0.823205    2.125657
     17          1           0       -0.725798    1.010093    1.569767
     18          1           0       -2.908345    1.007900   -1.554537
     19          1           0       -1.635542    1.946128   -0.763952
     20          1           0       -3.243475    1.814064   -0.011565
     21          1           0       -1.384670   -0.938202   -1.639035
     22         16           0        1.623329   -1.124232    0.070980
     23          9           0       -3.179890   -0.792263    0.266188
 ---------------------------------------------------------------------

 SCF Done:  E(RHF) =  -846.807878814     A.U. after    2 cycles

 The electronic state is 1-A.
 Alpha  occ. eigenvalues --  -75.69913 -29.23782 -21.06556 -13.16522 -13.12946
 Alpha  occ. eigenvalues --  -13.05199 -11.52098 -11.49195 -11.43467 -11.42936
 Alpha  occ. eigenvalues --  -11.40218 -11.37376 -11.36743  -8.04289  -1.73378
 Alpha  occ. eigenvalues --   -1.33142  -1.24847  -1.11666  -1.04946  -1.03298
 Alpha  occ. eigenvalues --   -0.91687  -0.87896  -0.74336  -0.70854  -0.66672
 Alpha  occ. eigenvalues --   -0.64809  -0.62878  -0.59461  -0.57835  -0.55794
 Alpha  occ. eigenvalues --   -0.54581  -0.53247  -0.52562  -0.51866  -0.50047
 Alpha  occ. eigenvalues --   -0.49079  -0.46670  -0.44781  -0.38783  -0.34565
 Alpha  occ. eigenvalues --   -0.28089  -0.25517  -0.24159  -0.22970
 Alpha virt. eigenvalues --    0.03561   0.04420   0.04790   0.05170   0.05665
 Alpha virt. eigenvalues --    0.05983   0.06240   0.06510   0.07199   0.07648
 Alpha virt. eigenvalues --    0.08806   0.09358   0.09689   0.10226   0.11563

 Mulliken charges:
               1
     1  C    3.274947
     2  C   -4.743318
     3  C    4.217526
     4  O   -3.508986
     5  C   -4.458214
     6  C   -3.678404
     7  C   -4.933788
     8  C   -4.843952
     9  H    1.630895
    10  H    1.684375
    11  H    1.463420
    12  H    1.426302
    13  H    1.170695
    14  H    1.405677
    15  H    1.267354
    16  H    1.169315
    17  H    1.344030
    18  H    1.223738
    19  H    1.286786
    20  H    1.184005
    21  H    1.298383
    22  S    1.104570
    23  F    0.014642
 Sum of Mulliken charges =   0.00000

 Dipole moment (field-independent basis, Debye):
    X=             -0.2860    Y=             -1.7632    Z=              0.8737  Tot=              1.9885

 Test job not archived.
 1\1\GINC-SE424\SP\RHF\Aug-CC-pVDZ\C7H13F1O1S1\OHZDE\09-Apr-2025\0\\#t
 hf aug-cc-pvdz iop(5/13=1,5/36=2,99/5=2) pseudo=read geom=check guess=
 (read,tcheck) scf=(maxcycle=1)\\title\\0,1\C,0,-2.042212,0.045657,0.15
 8994\C,0,-1.023984,-0.798111,-0.617298\C,0,0.344562,-0.159519,-0.69745
 8\O,0,0.558867,0.901098,-1.226112\C,0,3.050104,-0.02733,-0.192447\C,0,
 3.136682,1.103596,0.819286\C,0,-1.588318,0.341115,1.574398\C,0,-2.4837
 19,1.28491,-0.588597\H,0,-0.960034,-1.777717,-0.141763\H,0,2.968477,0.
 357583,-1.208323\H,0,3.922177,-0.67992,-0.14162\H,0,2.264661,1.753496,

 Normal termination of Gaussian 16 at Wed Apr  9 00:57:37 2025.
