 Gaussian 16, Revision C.01,

 ----------------------------------------------------------------------
 #t hf aug-cc-pvdz symm=none int=(grid=ultrafine) guess=(read,tcheck) s
 table=opt
 ----------------------------------------------------------------------
 -----
 title
 -----
 Symbolic Z-matrix:
 Charge =  0 Multiplicity = 2

 SCF Done:  E(UHF) =  -950.846243230     A.U. after   20 cycles
 Normal termination of Gaussian 16 at Wed Apr  9 01:10:14 2025.
 Gaussian 16:  ES64L-G16RevC.01  3-Jul-2019

 ----------------------------------------------------------------------
 #t hf aug-cc-pvdz iop(5/13=1,5/36=2,99/5=2) pseudo=read geom=check gue
 ss=(read,tcheck) scf=(maxcycle=1)
 ----------------------------------------------------------------------
 -----
 title
 -----
 Structure from the checkpoint file:  "BH10_181_forward_mol1.chk"
 Charge =  0 Multiplicity = 2

                         Standard orientation:
 ---------------------------------------------------------------------
 Center     Atomic      Atomic             Coordinates (Angstroms)
 Number     Number       Type             X           Y           Z
 ---------------------------------------------------------------------
      1          7           0        0.567390    0.009357   -0.737660
      2         16           0       -0.479765   -1.163387   -0.226520
      3          8           0       -1.309237   -0.507705    1.011069
      4          6           0       -2.427565    0.354059    0.718037
      5          6           0       -1.987132    1.761949    0.345566
      6          1           0       -2.999688    0.361120    1.643842
      7          1           0       -3.027116   -0.102199   -0.071218
      8          6           0       -1.244142    1.851003   -0.961906
      9          1           0       -1.388072    2.178426    1.159207
     10          1           0       -2.894998    2.375590    0.283698
     11          1           0       -0.248847    1.027614   -0.940594
     12          1           0       -1.786350    1.466346   -1.825049
     13          6           0        1.755950    0.406256    0.063306
     14          6           0        2.841057   -0.647430   -0.199557
     15          6           0        1.505955    0.553117    1.565073
     16          6           0        2.208932    1.743603   -0.524783
     17          1           0        2.327497    1.667954   -1.606643
     18          1           0        3.167863    2.027792   -0.089217
     19          1           0        1.492671    2.537383   -0.305321
     20          1           0        2.553265   -1.616002    0.204074
     21          1           0        3.771158   -0.327921    0.275800
     22          1           0        3.013030   -0.752618   -1.271462
     23          1           0        1.197654   -0.389222    2.016031
     24          1           0        0.737336    1.299394    1.769507
     25          1           0        2.429498    0.877106    2.048965
     26          8           0        0.258500   -2.247388    0.365249
     27          8           0       -1.422500   -1.373492   -1.298523
     28          1           0       -0.772825    2.811264   -1.160440
 ---------------------------------------------------------------------

 SCF Done:  E(UHF) =  -953.724029787     A.U. after    2 cycles

 The electronic state is 2-A.
 Alpha  occ. eigenvalues --  -75.92125 -21.08885 -21.05305 -21.04904 -15.76705
 Alpha  occ. eigenvalues --  -13.55434 -13.46859 -13.43421 -11.48364 -11.46403
 Alpha  occ. eigenvalues --  -11.44426 -11.40842 -11.40039 -11.39855 -11.36062
 Alpha  occ. eigenvalues --   -8.27361  -1.90531  -1.73906  -1.66459  -1.43802
 Alpha  occ. eigenvalues --   -1.23156  -1.21042  -1.03229  -1.02574  -1.01482
 Alpha  occ. eigenvalues --   -0.93507  -0.86072  -0.79213  -0.71898  -0.68661
 Alpha  occ. eigenvalues --   -0.67637  -0.64250  -0.63512  -0.62357  -0.60948
 Alpha  occ. eigenvalues --   -0.57761  -0.55114  -0.54782  -0.53859  -0.52534
 Alpha  occ. eigenvalues --   -0.52131  -0.51812  -0.49807  -0.47562  -0.45884
 Alpha  occ. eigenvalues --   -0.44413  -0.42413  -0.40168  -0.39374  -0.36647
 Alpha  occ. eigenvalues --   -0.35668  -0.34724  -0.32161
 Alpha virt. eigenvalues --    0.03328   0.04256   0.04654   0.05029   0.05188
 Alpha virt. eigenvalues --    0.05508   0.05704   0.06326   0.06614   0.07105
 Alpha virt. eigenvalues --    0.07616   0.07957   0.08484   0.09229   0.09598

  Beta  occ. eigenvalues --  -75.92167 -21.08906 -21.05150 -21.04931 -15.74384
  Beta  occ. eigenvalues --  -13.55479 -13.47000 -13.43478 -11.48306 -11.46508
  Beta  occ. eigenvalues --  -11.43536 -11.40812 -11.39895 -11.39467 -11.36003
  Beta  occ. eigenvalues --   -8.27419  -1.90457  -1.73850  -1.66306  -1.39868
  Beta  occ. eigenvalues --   -1.21522  -1.19125  -1.02522  -1.01810  -0.99992
  Beta  occ. eigenvalues --   -0.91953  -0.85235  -0.77926  -0.69346  -0.67468
  Beta  occ. eigenvalues --   -0.65627  -0.63800  -0.62443  -0.61710  -0.60147
  Beta  occ. eigenvalues --   -0.57501  -0.54651  -0.54384  -0.53505  -0.52103
  Beta  occ. eigenvalues --   -0.51437  -0.50803  -0.48873  -0.46703  -0.45271
  Beta  occ. eigenvalues --   -0.42527  -0.42129  -0.38916  -0.38457  -0.36360
  Beta  occ. eigenvalues --   -0.35570  -0.33235
  Beta virt. eigenvalues --    0.03360   0.04028   0.04297   0.04984   0.05111
  Beta virt. eigenvalues --    0.05454   0.05544   0.06337   0.06620   0.06816
  Beta virt. eigenvalues --    0.07623   0.07668   0.08005   0.08598   0.09259

 Mulliken charges and spin densities:
               1          2
     1  N   -4.325227   0.882402
     2  S    8.493307  -0.009785
     3  O   -3.490937  -0.001645
     4  C   -1.800472   0.014072
     5  C   -3.195959  -0.181236
     6  H    1.286276  -0.001345
     7  H    1.772541  -0.001791
     8  C   -4.094545   1.221904
     9  H    1.694911  -0.001990
    10  H    1.322410   0.014440
    11  H    3.262724  -0.829848
    12  H    0.962216  -0.038583
    13  C    5.328289  -0.148985
    14  C   -4.718509   0.098153
    15  C   -4.636806   0.016997
    16  C   -4.952513   0.007409
    17  H    1.194692  -0.001412
    18  H    1.146695  -0.002253
    19  H    1.485896  -0.005767
    20  H    1.460778   0.002852
    21  H    1.186681  -0.001599
    22  H    1.284657   0.008075
    23  H    1.183434  -0.001425
    24  H    1.537301  -0.005220
    25  H    0.971431  -0.000299
    26  O   -2.732809   0.018671
    27  O   -2.704881  -0.012514
    28  H    1.078418  -0.039278
 Sum of Mulliken charges =   0.00000   1.00000

 Dipole moment (field-independent basis, Debye):
    X=             -0.4648    Y=              3.4579    Z=              1.2226  Tot=              3.6970
                          Isotropic Fermi Contact Couplings
        Atom                 a.u.       MegaHertz       Gauss      10(-4) cm-1
     1  N(14)              0.23879      77.15477      27.53074      25.73606
     2  S(33)             -0.07113     -24.43109      -8.71762      -8.14934
     3  O(17)             -0.00345       2.09341       0.74698       0.69829
     4  C(13)              0.00461       5.18558       1.85035       1.72972
     5  C(13)             -0.01492     -16.77407      -5.98540      -5.59523
     6  H(1)              -0.00047      -2.09800      -0.74862      -0.69982
     7  H(1)              -0.00024      -1.09183      -0.38959      -0.36419
     8  C(13)              0.13758     154.66061      55.18675      51.58923

 1\1\GINC-SE174\SP\UHF\Aug-CC-pVDZ\C7H16N1O3S1(2)\OHZDE\09-Apr-2025\0\\
 #t hf aug-cc-pvdz iop(5/13=1,5/36=2,99/5=2) pseudo=read geom=check gue
 ss=(read,tcheck) scf=(maxcycle=1)\\title\\0,2\N,0,0.56739,0.009357,-0.
 73766\S,0,-0.479765,-1.163387,-0.22652\O,0,-1.309237,-0.507705,1.01106
 9\C,0,-2.427565,0.354059,0.718037\C,0,-1.987132,1.761949,0.345566\H,0,
 -2.999688,0.36112,1.643842\H,0,-3.027116,-0.102199,-0.071218\C,0,-1.24
 4142,1.851003,-0.961906\H,0,-1.388072,2.178426,1.159207\H,0,-2.894998,
 2.37559,0.283698\H,0,-0.248847,1.027614,-0.940594\H,0,-1.78635,1.46634

 Normal termination of Gaussian 16 at Wed Apr  9 01:10:46 2025.
