 Gaussian 16, Revision C.01,

 ----------------------------------------------------------------------
 #t hf aug-cc-pvdz symm=none int=(grid=ultrafine) guess=(read,tcheck) s
 table=(opt,rrhf)
 ----------------------------------------------------------------------
 -----
 title
 -----
 Symbolic Z-matrix:
 Charge =  0 Multiplicity = 1

 SCF Done:  E(RHF) =  -702.122567154     A.U. after   13 cycles
 Normal termination of Gaussian 16 at Wed Apr  9 01:51:09 2025.
 Gaussian 16:  ES64L-G16RevC.01  3-Jul-2019

 ----------------------------------------------------------------------
 #t hf aug-cc-pvdz iop(5/13=1,5/36=2,99/5=2) pseudo=read geom=check gue
 ss=(read,tcheck) scf=(maxcycle=1)
 ----------------------------------------------------------------------
 -----
 title
 -----
 Structure from the checkpoint file:  "BH10_344_forward_mol2.chk"
 Charge =  0 Multiplicity = 1

                         Standard orientation:
 ---------------------------------------------------------------------
 Center     Atomic      Atomic             Coordinates (Angstroms)
 Number     Number       Type             X           Y           Z
 ---------------------------------------------------------------------
      1          6           0       -2.414506   -0.803625    0.004131
      2          6           0       -1.248911   -0.713170    0.616173
      3         16           0        0.000000    0.393490   -0.000000
      4          8           0       -0.553839    1.107462   -1.142959
      5          8           0        0.553834    1.107463    1.142961
      6          6           0        1.248914   -0.713166   -0.616175
      7          6           0        2.414508   -0.803623   -0.004130
      8          1           0        0.966305   -1.237523   -1.520426
      9          1           0        3.197288   -1.445930   -0.388676
     10          1           0        2.611909   -0.223410    0.890125
     11          1           0       -0.966298   -1.237531    1.520421
     12          1           0       -2.611910   -0.223409   -0.890122
     13          1           0       -3.197284   -1.445935    0.388676
 ---------------------------------------------------------------------

 SCF Done:  E(RHF) =  -703.765370999     A.U. after    2 cycles

 The electronic state is 1-A.
 Alpha  occ. eigenvalues --  -75.88433 -21.03938 -21.03887 -13.50442 -13.39766
 Alpha  occ. eigenvalues --  -13.34581 -11.45879 -11.45714 -11.42294 -11.41449
 Alpha  occ. eigenvalues --   -8.23492  -1.82183  -1.64335  -1.23427  -1.18036
 Alpha  occ. eigenvalues --   -1.00682  -0.86952  -0.79548  -0.70788  -0.66097
 Alpha  occ. eigenvalues --   -0.62181  -0.61392  -0.54514  -0.52434  -0.44341
 Alpha  occ. eigenvalues --   -0.43977  -0.39242  -0.38997  -0.37679  -0.35679
 Alpha  occ. eigenvalues --   -0.34588
 Alpha virt. eigenvalues --    0.02784   0.03718   0.05144   0.05677   0.06431
 Alpha virt. eigenvalues --    0.07090   0.07224   0.09480   0.11520   0.11894
 Alpha virt. eigenvalues --    0.12620   0.13003   0.13266   0.13933   0.13975

 Mulliken charges:
               1
     1  C   -2.514857
     2  C   -2.330542
     3  S    6.563510
     4  O   -2.702508
     5  O   -2.702505
     6  C   -2.330538
     7  C   -2.514859
     8  H    1.372866
     9  H    1.388421
    10  H    1.504863
    11  H    1.372865
    12  H    1.504864
    13  H    1.388420
 Sum of Mulliken charges =   0.00000

 Dipole moment (field-independent basis, Debye):
    X=              0.0000    Y=             -2.5979    Z=             -0.0000  Tot=              2.5979

 Test job not archived.
 1\1\GINC-SE116\SP\RHF\Aug-CC-pVDZ\C4H6O2S1\OHZDE\09-Apr-2025\0\\#t hf
 aug-cc-pvdz iop(5/13=1,5/36=2,99/5=2) pseudo=read geom=check guess=(re
 ad,tcheck) scf=(maxcycle=1)\\title\\0,1\C,0,-2.414506,-0.803625,0.0041
 31\C,0,-1.248911,-0.71317,0.616173\S,0,0.,0.39349,0.\O,0,-0.553839,1.1
 07462,-1.142959\O,0,0.553834,1.107463,1.142961\C,0,1.248914,-0.713166,
 -0.616175\C,0,2.414508,-0.803623,-0.00413\H,0,0.966305,-1.237523,-1.52
 0426\H,0,3.197288,-1.44593,-0.388676\H,0,2.611909,-0.22341,0.890125\H,
 0,-0.966298,-1.237531,1.520421\H,0,-2.61191,-0.223409,-0.890122\H,0,-3

 Normal termination of Gaussian 16 at Wed Apr  9 01:51:14 2025.
