 Gaussian 16, Revision C.01,

 ----------------------------------------------------------------------
 #t hf aug-cc-pvdz symm=none int=(grid=ultrafine) guess=(read,tcheck) s
 table=opt
 ----------------------------------------------------------------------
 -----
 title
 -----
 Symbolic Z-matrix:
 Charge =  0 Multiplicity = 2

 SCF Done:  E(UHF) =  -670.130936000     A.U. after   19 cycles

 1\1\GINC-SE187\Stability\UHF\Aug-CC-pVDZ\C7H13S1\OHZDE\09-Apr-2025\0\\
 #t hf aug-cc-pvdz symm=none int=(grid=ultrafine) guess=(read,tcheck) s
 table=opt\\title\\0,2\C,0,0.13325,-0.371573,0.250681\C,0,1.144215,-1.4
 86638,-0.099525\C,0,2.170155,-0.399295,-0.473692\H,0,0.827819,-2.06453
 2,-0.968893\H,0,1.399409,-2.171639,0.709499\C,0,1.013967,0.632272,-0.6
 06145\H,0,2.774855,-0.560967,-1.365517\H,0,2.832462,-0.150316,0.35693\
 S,0,-1.528844,-0.722882,-0.402102\C,0,-2.358168,0.864129,-0.125846\H,0
 ,-3.324771,0.80538,-0.624551\H,0,-1.786135,1.680786,-0.566869\H,0,-2.5

 Normal termination of Gaussian 16 at Wed Apr  9 01:06:31 2025.
 Gaussian 16:  ES64L-G16RevC.01  3-Jul-2019

 ----------------------------------------------------------------------
 #t hf aug-cc-pvdz iop(5/13=1,5/36=2,99/5=2) pseudo=read geom=check gue
 ss=(read,tcheck) scf=(maxcycle=1)
 ----------------------------------------------------------------------
 -----
 title
 -----
 Structure from the checkpoint file:  "BH10_22_reverse_mol2.chk"
 Charge =  0 Multiplicity = 2

                         Standard orientation:
 ---------------------------------------------------------------------
 Center     Atomic      Atomic             Coordinates (Angstroms)
 Number     Number       Type             X           Y           Z
 ---------------------------------------------------------------------
      1          6           0        0.133250   -0.371573    0.250681
      2          6           0        1.144215   -1.486638   -0.099525
      3          6           0        2.170155   -0.399295   -0.473692
      4          1           0        0.827819   -2.064532   -0.968893
      5          1           0        1.399409   -2.171639    0.709499
      6          6           0        1.013967    0.632272   -0.606145
      7          1           0        2.774855   -0.560967   -1.365517
      8          1           0        2.832462   -0.150316    0.356930
      9         16           0       -1.528844   -0.722882   -0.402102
     10          6           0       -2.358168    0.864129   -0.125846
     11          1           0       -3.324771    0.805380   -0.624551
     12          1           0       -1.786135    1.680786   -0.566869
     13          1           0       -2.523166    1.059102    0.932838
     14          6           0        0.118507   -0.052584    1.736424
     15          1           0       -0.339540   -0.873947    2.289831
     16          1           0       -0.435873    0.862706    1.948671
     17          1           0        1.135521    0.087564    2.112257
     18          6           0        1.224305    2.013494   -0.152659
     19          1           0        0.883293    2.860889   -0.732829
     20          1           0        1.711977    2.216665    0.793262
     21          1           0        0.628271    0.615591   -1.626420
 ---------------------------------------------------------------------

 SCF Done:  E(UHF) =  -671.747621558     A.U. after    2 cycles

 The electronic state is 2-A.
 Alpha  occ. eigenvalues --  -75.66201 -13.13319 -13.08866 -13.03660 -11.51130
 Alpha  occ. eigenvalues --  -11.42019 -11.40841 -11.38835 -11.38764 -11.38234
 Alpha  occ. eigenvalues --  -11.34909  -8.00359  -1.38018  -1.17567  -1.08282
 Alpha  occ. eigenvalues --   -1.05796  -0.95617  -0.89866  -0.86903  -0.74252
 Alpha  occ. eigenvalues --   -0.65381  -0.62840  -0.61365  -0.59110  -0.57749
 Alpha  occ. eigenvalues --   -0.56823  -0.54444  -0.52129  -0.50983  -0.48336
 Alpha  occ. eigenvalues --   -0.44022  -0.40705  -0.37797  -0.35697  -0.29595
 Alpha  occ. eigenvalues --   -0.20666
 Alpha virt. eigenvalues --    0.03711   0.04371   0.05237   0.05420   0.05567
 Alpha virt. eigenvalues --    0.05885   0.06105   0.06351   0.06839   0.08385
 Alpha virt. eigenvalues --    0.08467   0.09101   0.09767   0.11098   0.12000

  Beta  occ. eigenvalues --  -75.66200 -13.13315 -13.08869 -13.03651 -11.51064
  Beta  occ. eigenvalues --  -11.41838 -11.40763 -11.38756 -11.38185 -11.37174
  Beta  occ. eigenvalues --  -11.34665  -8.00358  -1.37384  -1.17270  -1.06724
  Beta  occ. eigenvalues --   -1.02998  -0.95442  -0.88048  -0.84986  -0.73751
  Beta  occ. eigenvalues --   -0.65074  -0.62448  -0.60789  -0.58680  -0.57141
  Beta  occ. eigenvalues --   -0.56567  -0.54376  -0.51835  -0.50564  -0.46698
  Beta  occ. eigenvalues --   -0.43090  -0.40190  -0.37551  -0.32988  -0.21543
  Beta virt. eigenvalues --    0.03761   0.04377   0.05244   0.05457   0.05580
  Beta virt. eigenvalues --    0.05718   0.06053   0.06315   0.06532   0.08373
  Beta virt. eigenvalues --    0.08477   0.09060   0.09779   0.10326   0.11245

 Mulliken charges and spin densities:
               1          2
     1  C    3.108494   0.050067
     2  C   -3.519002  -0.055443
     3  C   -3.284761   0.174373
     4  H    1.413148   0.002765
     5  H    1.278917  -0.002731
     6  C   -0.633778  -0.630904
     7  H    1.230514  -0.008533
     8  H    1.489770  -0.011813
     9  S    0.562522   0.018806
    10  C   -5.179447   0.019957
    11  H    1.302064   0.001675
    12  H    1.634002  -0.008371
    13  H    1.538836   0.006269
    14  C   -4.919486   0.027348
    15  H    1.128459   0.006872
    16  H    1.428396  -0.022783
    17  H    1.217255   0.001490
    18  C   -3.951914   1.558243
    19  H    1.421357  -0.055090
    20  H    1.342627  -0.052708
    21  H    1.392028  -0.019489
 Sum of Mulliken charges =  -0.00000   1.00000

 Dipole moment (field-independent basis, Debye):
    X=              0.2179    Y=             -0.2109    Z=             -0.1797  Tot=              0.3525
                          Isotropic Fermi Contact Couplings
        Atom                 a.u.       MegaHertz       Gauss      10(-4) cm-1
     1  C(13)              0.05063      56.91668      20.30929      18.98536
     2  C(13)             -0.00543      -6.10564      -2.17864      -2.03662
     3  C(13)              0.04484      50.41152      17.98809      16.81547
     4  H(1)               0.00014       0.62268       0.22219       0.20770
     5  H(1)              -0.00008      -0.33762      -0.12047      -0.11262
     6  C(13)             -0.04935     -55.47838     -19.79607     -18.50560
     7  H(1)              -0.00093      -4.15695      -1.48330      -1.38661
     8  H(1)              -0.00110      -4.92208      -1.75632      -1.64183

 Normal termination of Gaussian 16 at Wed Apr  9 01:06:44 2025.
