 Gaussian 16, Revision C.01,

 ----------------------------------------------------------------------
 #t hf aug-cc-pvdz symm=none int=(grid=ultrafine) guess=(read,tcheck) s
 table=opt
 ----------------------------------------------------------------------
 -----
 title
 -----
 Symbolic Z-matrix:
 Charge =  0 Multiplicity = 2

 SCF Done:  E(UHF) =  -2378.30361328     a.u. after   14 cycles
 Normal termination of Gaussian 16 at Wed Apr  9 01:34:16 2025.
 Gaussian 16:  ES64L-G16RevC.01  3-Jul-2019

 ----------------------------------------------------------------------
 #t hf aug-cc-pvdz iop(5/13=1,5/36=2,99/5=2) pseudo=read geom=check gue
 ss=(read,tcheck) scf=(maxcycle=1)
 ----------------------------------------------------------------------
 -----
 title
 -----
 Structure from the checkpoint file:  "BH10_167_forward_mol1.chk"
 Charge =  0 Multiplicity = 2

                         Standard orientation:
 ---------------------------------------------------------------------
 Center     Atomic      Atomic             Coordinates (Angstroms)
 Number     Number       Type             X           Y           Z
 ---------------------------------------------------------------------
      1          7           0       -1.487980    0.917013   -0.475854
      2          1           0       -0.547958    0.543186   -0.503194
      3          6           0       -2.601610   -0.003810   -0.650095
      4          1           0       -3.312256    0.475263   -1.333382
      5          6           0       -2.124951   -1.293847   -1.298988
      6          6           0       -3.392143   -0.309109    0.639887
      7          1           0       -2.976704   -1.959360   -1.431564
      8          1           0       -1.685265   -1.090434   -2.274627
      9         16           0       -0.932018   -2.238160   -0.297502
     10          8           0       -3.662136   -1.454277    0.945698
     11          1           0        0.228621   -1.831598   -1.087789
     12          7           0       -3.778220    0.772675    1.342060
     13          1           0       -3.656110    1.705919    0.963640
     14          1           0       -4.355220    0.621031    2.154051
     15          6           0       -1.633565    2.251271   -0.402048
     16          1           0       -0.674197    2.788405   -0.384513
     17          8           0       -2.707069    2.827485   -0.348310
     18          8           0        0.968939   -0.725899   -1.378379
     19          8           0        2.218166   -0.937505   -0.841319
     20          6           0        2.537649    0.029152    0.106230
     21         17           0        2.429185    1.667390   -0.590424
     22         17           0        1.462139   -0.078478    1.522314
     23         17           0        4.196870   -0.353032    0.550613
 ---------------------------------------------------------------------

 SCF Done:  E(UHF) =  -2381.87173305     A.U. after    2 cycles

 The electronic state is 2-A.
 Alpha  occ. eigenvalues --  -99.94699 -99.94627 -99.93993 -75.70259 -21.21741
 Alpha  occ. eigenvalues --  -21.19806 -21.04616 -21.02643 -15.78439 -15.76787
 Alpha  occ. eigenvalues --  -13.16750 -13.12234 -13.07511 -11.61309 -11.52569
 Alpha  occ. eigenvalues --  -11.50236 -11.47713 -11.42242 -10.52232 -10.52008
 Alpha  occ. eigenvalues --  -10.51393  -9.72115  -9.71881  -9.71281  -9.71258
 Alpha  occ. eigenvalues --   -9.71167  -9.71076  -9.71057  -9.70695  -9.70453
 Alpha  occ. eigenvalues --   -8.04014  -2.10030  -1.73130  -1.70810  -1.56168
 Alpha  occ. eigenvalues --   -1.43654  -1.40561  -1.34429  -1.33977  -1.33818
 Alpha  occ. eigenvalues --   -1.22395  -1.08415  -0.97352  -0.93286  -0.87583
 Alpha  occ. eigenvalues --   -0.79427  -0.78248  -0.77535  -0.74802  -0.73580
 Alpha  occ. eigenvalues --   -0.73073  -0.69490  -0.66232  -0.65585  -0.61605
 Alpha  occ. eigenvalues --   -0.59273  -0.57445  -0.55839  -0.55464  -0.54984
 Alpha  occ. eigenvalues --   -0.53915  -0.53205  -0.52963  -0.52542  -0.52258
 Alpha  occ. eigenvalues --   -0.50657  -0.48604  -0.46030  -0.41876  -0.41228
 Alpha  occ. eigenvalues --   -0.34777  -0.33709  -0.31656  -0.30944  -0.27888
 Alpha  occ. eigenvalues --   -0.24644
 Alpha virt. eigenvalues --   -0.01726   0.03590   0.04216   0.04568   0.05427
 Alpha virt. eigenvalues --    0.05605   0.05891   0.06341   0.06537   0.07704
 Alpha virt. eigenvalues --    0.08294   0.08597   0.08862   0.10213   0.10368

  Beta  occ. eigenvalues --  -99.94708 -99.94624 -99.93990 -75.69854 -21.19738
  Beta  occ. eigenvalues --  -21.18123 -21.04616 -21.02628 -15.78446 -15.76787
  Beta  occ. eigenvalues --  -13.15674 -13.10711 -13.07090 -11.61324 -11.52570
  Beta  occ. eigenvalues --  -11.50237 -11.47723 -11.42259 -10.52238 -10.52009
  Beta  occ. eigenvalues --  -10.51389  -9.72138  -9.71882  -9.71271  -9.71254
  Beta  occ. eigenvalues --   -9.71173  -9.71078  -9.71055  -9.70695  -9.70451
  Beta  occ. eigenvalues --   -8.03576  -2.06144  -1.73125  -1.70788  -1.51963
  Beta  occ. eigenvalues --   -1.43627  -1.38008  -1.34379  -1.33952  -1.33804
  Beta  occ. eigenvalues --   -1.21247  -1.06957  -0.97055  -0.92323  -0.87579
  Beta  occ. eigenvalues --   -0.79260  -0.77837  -0.76866  -0.74708  -0.73229
  Beta  occ. eigenvalues --   -0.72866  -0.67334  -0.65502  -0.62747  -0.61208
  Beta  occ. eigenvalues --   -0.58862  -0.56748  -0.55343  -0.54905  -0.54178
  Beta  occ. eigenvalues --   -0.53731  -0.53147  -0.52536  -0.52252  -0.50617
  Beta  occ. eigenvalues --   -0.50309  -0.48418  -0.45018  -0.40701  -0.38332
  Beta  occ. eigenvalues --   -0.34667  -0.32874  -0.31383  -0.28784  -0.24387
  Beta virt. eigenvalues --   -0.01699   0.02777   0.03638   0.04325   0.04901
  Beta virt. eigenvalues --    0.05593   0.05784   0.06179   0.06437   0.07618
  Beta virt. eigenvalues --    0.08106   0.08321   0.08792   0.09575   0.10400

 Mulliken charges and spin densities:
               1          2
     1  N   -2.799660   0.008489
     2  H    1.124301  -0.045064
     3  C   -1.027622   0.008654
     4  H    2.053025  -0.000352
     5  C   -3.423201  -0.062887
     6  C    5.162579   0.000301
     7  H    1.261194  -0.000395
     8  H    1.194178   0.010169
     9  S   -0.690992   0.484061
    10  O   -3.168980   0.003234
    11  H    1.362128  -0.267104
    12  N   -3.187366   0.001310
    13  H    0.861015   0.000147
    14  H    0.778829   0.000339
    15  C    2.306186   0.009363
    16  H    1.850505   0.002681
    17  O   -3.036604   0.000009
    18  O   -0.049088   0.802776
    19  O   -1.679538   0.026143
    20  C   -0.107576   0.013769
    21  Cl   0.380945   0.009983
    22  Cl   0.355355   0.002675
    23  Cl   0.480387  -0.008302
 Sum of Mulliken charges =  -0.00000   1.00000

 Dipole moment (field-independent basis, Debye):
    X=              0.4332    Y=             -1.4329    Z=             -0.5175  Tot=              1.5839
                          Isotropic Fermi Contact Couplings
        Atom                 a.u.       MegaHertz       Gauss      10(-4) cm-1
     1  N(14)             -0.00176      -0.56811      -0.20272      -0.18950
     2  H(1)               0.00018       0.78451       0.27993       0.26169
     3  C(13)              0.00011       0.11929       0.04257       0.03979
     4  H(1)              -0.00010      -0.45385      -0.16195      -0.15139
     5  C(13)             -0.00343      -3.85539      -1.37570      -1.28602
     6  C(13)             -0.00008      -0.09072      -0.03237      -0.03026
     7  H(1)               0.00361      16.11424       5.74996       5.37513
     8  H(1)               0.00211       9.41373       3.35905       3.14008

 Normal termination of Gaussian 16 at Wed Apr  9 01:34:46 2025.
