 Gaussian 16, Revision C.01,

 ----------------------------------------------------------------------
 #t hf aug-cc-pvdz symm=none int=(grid=ultrafine) guess=(read,tcheck) s
 table=(opt,rrhf)
 ----------------------------------------------------------------------
 -----
 title
 -----
 Symbolic Z-matrix:
 Charge =  0 Multiplicity = 1

 SCF Done:  E(RHF) =  -1375.34811880     A.U. after   18 cycles
 Normal termination of Gaussian 16 at Wed Apr  9 03:31:39 2025.
 Gaussian 16:  ES64L-G16RevC.01  3-Jul-2019

 ----------------------------------------------------------------------
 #t hf aug-cc-pvdz iop(5/13=1,5/36=2,99/5=2) pseudo=read geom=check gue
 ss=(read,tcheck) scf=(maxcycle=1)
 ----------------------------------------------------------------------
 -----
 title
 -----
 Structure from the checkpoint file:  "BH10_395_forward_mol1.chk"
 Charge =  0 Multiplicity = 1

                         Standard orientation:
 ---------------------------------------------------------------------
 Center     Atomic      Atomic             Coordinates (Angstroms)
 Number     Number       Type             X           Y           Z
 ---------------------------------------------------------------------
      1          6           0        1.173351   -2.485796    0.397896
      2          7           0       -0.116429   -1.841500    0.510709
      3          6           0        2.202120   -1.623776   -0.299314
      4          6           0        0.324611   -0.511512   -1.500483
      5          1           0       -0.139919    0.465657   -1.475480
      6          1           0        0.427163   -0.771588   -2.559113
      7          6           0        2.353500    0.779613   -0.698086
      8          6           0        3.540419   -1.957389   -0.118218
      9          1           0        4.179463   -2.075074   -0.972801
     10          1           0        3.771277   -2.658483    0.684607
     11          6           0        3.602568    0.916738   -0.091146
     12          6           0        4.621898   -0.008873   -0.230300
     13          6           0        1.714260   -0.456707   -0.915507
     14          1           0        4.794270   -0.352186   -1.237762
     15          1           0        3.721908    1.736735    0.612377
     16          6           0        5.842359    0.022270    0.645126
     17          1           0        6.308855   -0.962336    0.708789
     18          1           0        6.591536    0.708979    0.237748
     19          1           0        5.597762    0.346201    1.657636
     20          1           0        1.077427   -3.458480   -0.122920
     21          6           0       -0.613761   -1.533261   -0.822525
     22          1           0        1.552949   -2.705863    1.400770
     23         16           0        1.475228    2.333941   -0.896977
     24          6           0       -1.058556   -2.646312    1.265730
     25          6           0       -2.045435   -1.031410   -0.795713
     26          1           0       -0.608073   -2.466826   -1.420162
     27          6           0       -2.841438   -1.169440    0.339274
     28          6           0       -2.292959   -1.823151    1.578540
     29          1           0       -3.059568   -2.452966    2.037606
     30          1           0       -2.027580   -1.049238    2.303792
     31          1           0       -0.575515   -2.969236    2.190490
     32          1           0       -1.339232   -3.559199    0.707629
     33          6           0       -2.586361   -0.434561   -1.933977
     34          6           0       -4.148772   -0.687802    0.319421
     35          6           0       -4.674282   -0.083755   -0.808637
     36          6           0       -3.886748    0.038668   -1.946603
     37          1           0       -4.285227    0.502206   -2.841081
     38          1           0       -1.977765   -0.330865   -2.824554
     39          1           0       -4.760333   -0.794038    1.209513
     40          1           0       -5.693322    0.284300   -0.805333
     41          6           0        0.079869    2.176748    0.210808
     42          6           0        0.208525    1.597439    1.467551
     43          6           0       -1.150256    2.685057   -0.194289
     44          6           0       -2.243585    2.619322    0.656859
     45          6           0       -2.115661    2.043739    1.912221
     46          6           0       -0.887982    1.533234    2.312212
     47          1           0       -1.254435    3.111873   -1.184589
     48          1           0       -3.202728    2.998395    0.326595
     49          1           0        1.159859    1.183997    1.776160
     50          1           0       -2.972810    1.982468    2.571643
     51          1           0       -0.780696    1.078515    3.290044
 ---------------------------------------------------------------------

 SCF Done:  E(RHF) =  -1380.39904560     A.U. after    2 cycles

 The electronic state is 1-A.
 Alpha  occ. eigenvalues --  -75.67814 -15.70086 -13.19738 -13.16843 -13.10237
 Alpha  occ. eigenvalues --  -11.52275 -11.52273 -11.51563 -11.50345 -11.47664
 Alpha  occ. eigenvalues --  -11.46585 -11.46363 -11.45202 -11.44273 -11.43643
 Alpha  occ. eigenvalues --  -11.43608 -11.43040 -11.42728 -11.41745 -11.40829
 Alpha  occ. eigenvalues --  -11.40708 -11.40404 -11.40328 -11.39765 -11.39211
 Alpha  occ. eigenvalues --  -11.38662 -11.37319 -11.35727 -11.35637  -8.01948
 Alpha  occ. eigenvalues --   -1.49350  -1.36412  -1.33328  -1.30795  -1.20699
 Alpha  occ. eigenvalues --   -1.18448  -1.15818  -1.14558  -1.09648  -1.08619
 Alpha  occ. eigenvalues --   -1.07134  -1.04693  -1.00694  -0.99306  -0.94721
 Alpha  occ. eigenvalues --   -0.90659  -0.87219  -0.86158  -0.85682  -0.84267
 Alpha  occ. eigenvalues --   -0.81679  -0.80189  -0.77187  -0.70438  -0.70155
 Alpha  occ. eigenvalues --   -0.68255  -0.66440  -0.65846  -0.64825  -0.63147
 Alpha  occ. eigenvalues --   -0.62278  -0.61534  -0.59787  -0.59186  -0.58792
 Alpha  occ. eigenvalues --   -0.57757  -0.57221  -0.56680  -0.55896  -0.55081
 Alpha  occ. eigenvalues --   -0.54530  -0.54003  -0.52787  -0.52363  -0.50987
 Alpha  occ. eigenvalues --   -0.50367  -0.49751  -0.49509  -0.47633  -0.46857
 Alpha  occ. eigenvalues --   -0.46474  -0.44381  -0.44189  -0.43476  -0.40309
 Alpha  occ. eigenvalues --   -0.39614  -0.38543  -0.36968  -0.33590  -0.33317
 Alpha  occ. eigenvalues --   -0.31652  -0.31127  -0.30276  -0.29134  -0.27195
 Alpha  occ. eigenvalues --   -0.21182
 Alpha virt. eigenvalues --    0.03704   0.03897   0.04379   0.04634   0.04866
 Alpha virt. eigenvalues --    0.05052   0.05248   0.05431   0.05636   0.06041
 Alpha virt. eigenvalues --    0.06220   0.06579   0.06685   0.07208   0.07343

 Mulliken charges:
               1
     1  C   -6.048351
     2  N   -0.742909
     3  C    5.327446
     4  C   -4.737367
     5  H    3.076642
     6  H    1.119621
     7  C    2.682730
     8  C   -6.690417
     9  H    1.148077
    10  H    1.508310
    11  C   -2.588014
    12  C   -1.710159
    13  C    4.650263
    14  H    1.830119
    15  H    1.938292
    16  C   -5.640932
    17  H    1.311520
    18  H    1.126829
    19  H    1.387021
    20  H    1.013069
    21  C   -2.798261
    22  H    1.193729
    23  S   -0.386954
    24  C   -5.320531
    25  C    7.633415
    26  H    1.448808
    27  C    6.551943
    28  C   -6.389175
    29  H    1.058138
    30  H    1.372744
    31  H    1.619564
    32  H    1.584518
    33  C   -1.414993
    34  C   -4.164838
    35  C   -2.812904
    36  C   -4.772859
    37  H    1.650155
    38  H    2.043578
    39  H    1.915963
    40  H    1.664968
    41  C    2.670599
    42  C   -3.896168
    43  C   -4.038361
    44  C   -1.563879
    45  C   -2.642223
    46  C   -2.629625
    47  H    2.100581
    48  H    1.922305
    49  H    2.700923
    50  H    1.881028
    51  H    1.856019
 Sum of Mulliken charges =   0.00000

 Dipole moment (field-independent basis, Debye):
    X=              0.6131    Y=             -0.9624    Z=              0.3655  Tot=              1.1982

 Test job not archived.
 1\1\GINC-SE393\SP\RHF\Aug-CC-pVDZ\C24H25N1S1\OHZDE\09-Apr-2025\0\\#t h
 f aug-cc-pvdz iop(5/13=1,5/36=2,99/5=2) pseudo=read geom=check guess=(
 read,tcheck) scf=(maxcycle=1)\\title\\0,1\C,0,1.173351,-2.485796,0.397
 896\N,0,-0.116429,-1.8415,0.510709\C,0,2.20212,-1.623776,-0.299314\C,0
 ,0.324611,-0.511512,-1.500483\H,0,-0.139919,0.465657,-1.47548\H,0,0.42
 7163,-0.771588,-2.559113\C,0,2.3535,0.779613,-0.698086\C,0,3.540419,-1
 .957389,-0.118218\H,0,4.179463,-2.075074,-0.972801\H,0,3.771277,-2.658
 483,0.684607\C,0,3.602568,0.916738,-0.091146\C,0,4.621898,-0.008873,-0

 Normal termination of Gaussian 16 at Wed Apr  9 03:35:19 2025.
