 Gaussian 16, Revision C.01,

 ----------------------------------------------------------------------
 #t hf aug-cc-pvdz symm=none int=(grid=ultrafine) guess=(read,tcheck) s
 table=(opt,rrhf)
 ----------------------------------------------------------------------
 -----
 title
 -----
 Symbolic Z-matrix:
 Charge =  0 Multiplicity = 1

 SCF Done:  E(RHF) =  -1125.28076311     A.U. after   15 cycles
 Normal termination of Gaussian 16 at Wed Apr  9 02:06:54 2025.
 Gaussian 16:  ES64L-G16RevC.01  3-Jul-2019

 ----------------------------------------------------------------------
 #t hf aug-cc-pvdz iop(5/13=1,5/36=2,99/5=2) pseudo=read geom=check gue
 ss=(read,tcheck) scf=(maxcycle=1)
 ----------------------------------------------------------------------
 -----
 title
 -----
 Structure from the checkpoint file:  "BH10_300_forward_mol2.chk"
 Charge =  0 Multiplicity = 1

                         Standard orientation:
 ---------------------------------------------------------------------
 Center     Atomic      Atomic             Coordinates (Angstroms)
 Number     Number       Type             X           Y           Z
 ---------------------------------------------------------------------
      1          6           0        0.119974   -2.817476    0.101194
      2          6           0       -0.204308   -1.488519    0.837928
      3          6           0        2.561577   -0.686739   -0.340166
      4          1           0       -0.820892   -3.250305   -0.247757
      5          6           0        0.597200   -1.313426    2.146251
      6          1           0        0.445228   -0.301056    2.536511
      7          1           0        0.164516   -1.986374    2.894288
      8          1           0        3.435075   -0.238635   -0.822912
      9          1           0       -1.254359   -1.535584    1.137462
     10          6           0        2.091589   -1.608353    2.071440
     11          1           0        2.504429   -1.531845    3.082206
     12          1           0        2.238263   -2.651701    1.779235
     13          6           0        2.919834   -0.710839    1.157300
     14          1           0        2.901102    0.310427    1.548466
     15          1           0        3.962466   -1.036660    1.238010
     16          6           0        2.442975   -2.112615   -0.938079
     17          1           0        2.905723   -2.104840   -1.929785
     18          6           0        1.037993   -2.700113   -1.122841
     19          1           0        0.518111   -2.112554   -1.889101
     20          1           0        1.151299   -3.696733   -1.560713
     21          1           0        3.049362   -2.799903   -0.338966
     22          1           0        0.536277   -3.540344    0.809554
     23          6           0        1.353918    0.209126   -0.689513
     24          1           0        1.258736    0.249225   -1.785536
     25         14           0        1.562388    2.064576   -0.293402
     26          6           0        0.944563    2.505841    1.430124
     27          1           0        1.515817    2.017248    2.221565
     28          1           0        1.016514    3.585084    1.590212
     29          1           0       -0.105072    2.228257    1.556759
     30          6           0        0.562471    3.047826   -1.540400
     31          1           0        0.638872    4.120839   -1.345440
     32          1           0        0.916666    2.869400   -2.559211
     33          1           0       -0.491041    2.766189   -1.499289
     34          6           0        3.371479    2.554328   -0.447720
     35          1           0        3.758411    2.325012   -1.444059
     36          1           0        3.483213    3.630794   -0.291803
     37          1           0        4.007251    2.047125    0.280633
     38          5           0       -0.022074   -0.297885   -0.171814
     39          6           0       -3.113602    0.744922    0.503388
     40          6           0       -4.510404    0.491985    0.802823
     41          1           0       -4.986467   -0.297546    0.230800
     42          6           0       -5.213159    1.157555    1.718174
     43          1           0       -4.767565    1.948955    2.311462
     44          1           0       -6.255377    0.931364    1.902698
     45          6           0       -2.410037    0.052894   -0.392429
     46          8           0       -1.122489    0.358008   -0.706588
     47          8           0       -2.918177   -1.008664   -1.053620
     48          6           0       -2.669837   -1.062463   -2.457498
     49          1           0       -3.189147   -1.947095   -2.817730
     50          1           0       -3.069388   -0.172004   -2.949621
     51          1           0       -1.604028   -1.148654   -2.670833
     52          1           0       -2.595074    1.528924    1.041395
 ---------------------------------------------------------------------

 SCF Done:  E(RHF) =  -1129.54900796     A.U. after    2 cycles

 The electronic state is 1-A.
 Alpha  occ. eigenvalues --  -76.17816 -21.07776 -21.05062 -11.54212 -11.47345
 Alpha  occ. eigenvalues --  -11.46100 -11.45440 -11.43088 -11.42832 -11.42604
 Alpha  occ. eigenvalues --  -11.42200 -11.38630 -11.38352 -11.37368 -11.36707
 Alpha  occ. eigenvalues --  -11.35936 -11.35169 -11.34967 -11.34687 -11.33848
 Alpha  occ. eigenvalues --   -7.63599  -5.52007  -2.16715  -2.16050  -2.15940
 Alpha  occ. eigenvalues --   -1.87023  -1.73722  -1.33096  -1.20984  -1.19513
 Alpha  occ. eigenvalues --   -1.17494  -1.10147  -1.06591  -1.04697  -1.00664
 Alpha  occ. eigenvalues --   -0.99998  -0.98540  -0.98234  -0.94547  -0.87329
 Alpha  occ. eigenvalues --   -0.83605  -0.81700  -0.76311  -0.74968  -0.69740
 Alpha  occ. eigenvalues --   -0.68129  -0.66473  -0.65032  -0.64557  -0.63390
 Alpha  occ. eigenvalues --   -0.61720  -0.60706  -0.60166  -0.58998  -0.58452
 Alpha  occ. eigenvalues --   -0.57037  -0.56920  -0.56526  -0.56022  -0.55207
 Alpha  occ. eigenvalues --   -0.54790  -0.53522  -0.53104  -0.52870  -0.52174
 Alpha  occ. eigenvalues --   -0.51939  -0.48902  -0.48043  -0.46718  -0.45977
 Alpha  occ. eigenvalues --   -0.45155  -0.43615  -0.43142  -0.42005  -0.41306
 Alpha  occ. eigenvalues --   -0.39534  -0.39399  -0.37770  -0.37543  -0.37183
 Alpha  occ. eigenvalues --   -0.36873  -0.34199  -0.30550  -0.25795
 Alpha virt. eigenvalues --    0.03740   0.04206   0.04501   0.04619   0.04850
 Alpha virt. eigenvalues --    0.05250   0.05403   0.05549   0.05680   0.05720
 Alpha virt. eigenvalues --    0.05883   0.06135   0.06210   0.06466   0.06700

 Mulliken charges:
               1
     1  C   -3.113403
     2  C   -5.990012
     3  C   -0.204199
     4  H    1.385532
     5  C   -4.589641
     6  H    1.314708
     7  H    1.332429
     8  H    1.842946
     9  H    1.643556
    10  C   -3.128759
    11  H    1.416276
    12  H    1.521862
    13  C   -4.694965
    14  H    1.485473
    15  H    1.309978
    16  C   -3.731188
    17  H    1.141076
    18  C   -4.838340
    19  H    1.073485
    20  H    1.575016
    21  H    1.368475
    22  H    1.395396
    23  C   -8.600950
    24  H    1.410990
    25  Si  14.987401
    26  C   -7.023010
    27  H    0.928874
    28  H    1.013458
    29  H    1.803923
    30  C   -6.877306
    31  H    0.997396
    32  H    0.795375
    33  H    1.044493
    34  C   -7.171400
    35  H    1.024567
    36  H    0.964353
    37  H    1.012040
    38  B   19.497253
    39  C   -3.963490
    40  C   -0.093423
    41  H    1.848195
    42  C   -4.590624
    43  H    1.491645
    44  H    1.351064
    45  C    9.693712
    46  O   -8.317185
    47  O   -4.906338
    48  C   -4.513501
    49  H    1.366773
    50  H    1.376436
    51  H    2.157596
    52  H    1.775984
 Sum of Mulliken charges =   0.00000

 Dipole moment (field-independent basis, Debye):
    X=              0.9250    Y=             -1.2830    Z=             -1.1185  Tot=              1.9371

 Test job not archived.
 1\1\GINC-SE365\SP\RHF\Aug-CC-pVDZ\C17H31B1O2Si1\OHZDE\09-Apr-2025\0\\#
 t hf aug-cc-pvdz iop(5/13=1,5/36=2,99/5=2) pseudo=read geom=check gues
 s=(read,tcheck) scf=(maxcycle=1)\\title\\0,1\C,0,0.119974,-2.817476,0.
 101194\C,0,-0.204308,-1.488519,0.837928\C,0,2.561577,-0.686739,-0.3401
 66\H,0,-0.820892,-3.250305,-0.247757\C,0,0.5972,-1.313426,2.146251\H,0
 ,0.445228,-0.301056,2.536511\H,0,0.164516,-1.986374,2.894288\H,0,3.435
 075,-0.238635,-0.822912\H,0,-1.254359,-1.535584,1.137462\C,0,2.091589,
 -1.608353,2.07144\H,0,2.504429,-1.531845,3.082206\H,0,2.238263,-2.6517

 Normal termination of Gaussian 16 at Wed Apr  9 02:09:20 2025.
