 Gaussian 16, Revision C.01,

 ----------------------------------------------------------------------
 #t hf aug-cc-pvdz symm=none int=(grid=ultrafine) guess=(read,tcheck) s
 table=opt
 ----------------------------------------------------------------------
 -----
 title
 -----
 Symbolic Z-matrix:
 Charge =  0 Multiplicity = 2

 SCF Done:  E(UHF) =  -962.527403858     A.U. after   25 cycles
 Normal termination of Gaussian 16 at Wed Apr  9 01:01:51 2025.
 Gaussian 16:  ES64L-G16RevC.01  3-Jul-2019

 ----------------------------------------------------------------------
 #t hf aug-cc-pvdz iop(5/13=1,5/36=2,99/5=2) pseudo=read geom=check gue
 ss=(read,tcheck) scf=(maxcycle=1)
 ----------------------------------------------------------------------
 -----
 title
 -----
 Structure from the checkpoint file:  "BH10_156_forward_mol1.chk"
 Charge =  0 Multiplicity = 2

                         Standard orientation:
 ---------------------------------------------------------------------
 Center     Atomic      Atomic             Coordinates (Angstroms)
 Number     Number       Type             X           Y           Z
 ---------------------------------------------------------------------
      1          7           0        0.672592   -1.572215   -0.493794
      2          1           0        0.262715   -2.499578   -0.399269
      3          6           0       -0.227289   -0.523804   -0.172736
      4          1           0        0.279385    0.036233    0.941748
      5          6           0       -0.251339    0.603497   -1.198354
      6          6           0       -1.536663   -1.158507    0.261943
      7          1           0        0.761890    0.792219   -1.542127
      8          1           0       -0.840388    0.285219   -2.062413
      9         16           0       -0.982402    2.187475   -0.660679
     10          8           0       -1.625829   -2.374745    0.320239
     11          1           0       -0.003188    2.499953    0.208864
     12          7           0       -2.539739   -0.322496    0.574005
     13          1           0       -3.407855   -0.725197    0.889325
     14          1           0       -2.420712    0.681433    0.530460
     15          6           0        2.012310   -1.454618   -0.621932
     16          1           0        2.502339   -2.412047   -0.847459
     17          8           0        2.646834   -0.419643   -0.516303
     18          8           0        0.950518    0.518858    1.790105
     19          8           0        1.695061    1.503174    1.161227
     20          1           0        2.339476    0.984586    0.634588
 ---------------------------------------------------------------------

 SCF Done:  E(UHF) =  -965.194529498     A.U. after    2 cycles

 The electronic state is 2-A.
 Alpha  occ. eigenvalues --  -75.70100 -21.12720 -21.11336 -21.06227 -21.05060
 Alpha  occ. eigenvalues --  -15.79817 -15.79370 -13.16938 -13.12893 -13.09026
 Alpha  occ. eigenvalues --  -11.55870 -11.52380 -11.50040 -11.43971  -8.04053
 Alpha  occ. eigenvalues --   -1.97332  -1.75071  -1.73635  -1.45482  -1.37538
 Alpha  occ. eigenvalues --   -1.37014  -1.22720  -1.09788  -0.95515  -0.88393
 Alpha  occ. eigenvalues --   -0.81965  -0.77737  -0.72428  -0.72033  -0.65028
 Alpha  occ. eigenvalues --   -0.63705  -0.61902  -0.59413  -0.57610  -0.55684
 Alpha  occ. eigenvalues --   -0.53264  -0.51621  -0.50443  -0.48297  -0.42880
 Alpha  occ. eigenvalues --   -0.41255  -0.36551  -0.34637  -0.33331  -0.32319
 Alpha  occ. eigenvalues --   -0.31811  -0.26710  -0.25954
 Alpha virt. eigenvalues --    0.03336   0.03986   0.04621   0.05374   0.06183
 Alpha virt. eigenvalues --    0.06854   0.08000   0.08312   0.08836   0.09473
 Alpha virt. eigenvalues --    0.10834   0.11050   0.12282   0.12666   0.13326

  Beta  occ. eigenvalues --  -75.70093 -21.11316 -21.09996 -21.06057 -21.04854
  Beta  occ. eigenvalues --  -15.79851 -15.79335 -13.16929 -13.12858 -13.09023
  Beta  occ. eigenvalues --  -11.55545 -11.52376 -11.49256 -11.43725  -8.04044
  Beta  occ. eigenvalues --   -1.94081  -1.74694  -1.73299  -1.44313  -1.36904
  Beta  occ. eigenvalues --   -1.33454  -1.22185  -1.07551  -0.95072  -0.88204
  Beta  occ. eigenvalues --   -0.79305  -0.77506  -0.72267  -0.68653  -0.64584
  Beta  occ. eigenvalues --   -0.63057  -0.61023  -0.58858  -0.55238  -0.53876
  Beta  occ. eigenvalues --   -0.52863  -0.51045  -0.49779  -0.46158  -0.41134
  Beta  occ. eigenvalues --   -0.39518  -0.35185  -0.33646  -0.32410  -0.31475
  Beta  occ. eigenvalues --   -0.30422  -0.26063
  Beta virt. eigenvalues --    0.03258   0.03982   0.04624   0.05218   0.06134
  Beta virt. eigenvalues --    0.06851   0.08001   0.08295   0.08396   0.08916
  Beta virt. eigenvalues --    0.09768   0.10856   0.11239   0.12381   0.12788

 Mulliken charges and spin densities:
               1          2
     1  N   -3.372631  -0.019657
     2  H    0.735992   0.004406
     3  C    0.016083   1.256761
     4  H    3.528834  -0.549261
     5  C   -3.877957  -0.187407
     6  C    5.360137  -0.246658
     7  H    1.492736  -0.001193
     8  H    1.412733   0.017104
     9  S   -1.084487   0.014668
    10  O   -3.396271   0.060295
    11  H    1.171612   0.002148
    12  N   -3.348236  -0.001523
    13  H    0.840924  -0.000916
    14  H    1.008157   0.000290
    15  C    1.916626  -0.017169
    16  H    1.865191  -0.002339
    17  O   -2.866245   0.057616
    18  O   -1.742655   0.599121
    19  O   -0.934828   0.016211
    20  H    1.274284  -0.002497
 Sum of Mulliken charges =   0.00000   1.00000

 Dipole moment (field-independent basis, Debye):
    X=             -2.0115    Y=              0.4559    Z=             -1.1848  Tot=              2.3786
                          Isotropic Fermi Contact Couplings
        Atom                 a.u.       MegaHertz       Gauss      10(-4) cm-1
     1  N(14)             -0.01374      -4.44103      -1.58467      -1.48137
     2  H(1)               0.00092       4.09202       1.46013       1.36495
     3  C(13)              0.14913     167.64517      59.81997      55.92041
     4  H(1)              -0.05717    -255.56051     -91.19034     -85.24581
     5  C(13)             -0.01170     -13.15191      -4.69293      -4.38701
     6  C(13)             -0.01767     -19.86165      -7.08713      -6.62513
     7  H(1)               0.00154       6.88268       2.45591       2.29582
     8  H(1)               0.00877      39.18886      13.98356      13.07200

 Normal termination of Gaussian 16 at Wed Apr  9 01:02:03 2025.
