 Gaussian 16, Revision C.01,

 ----------------------------------------------------------------------
 #t hf aug-cc-pvdz symm=none int=(grid=ultrafine) guess=(read,tcheck) s
 table=opt
 ----------------------------------------------------------------------
 -----
 title
 -----
 Symbolic Z-matrix:
 Charge =  0 Multiplicity = 2

 SCF Done:  E(UHF) =  -856.898971602     A.U. after   22 cycles
 Normal termination of Gaussian 16 at Wed Apr  9 01:02:52 2025.
 Gaussian 16:  ES64L-G16RevC.01  3-Jul-2019

 ----------------------------------------------------------------------
 #t hf aug-cc-pvdz iop(5/13=1,5/36=2,99/5=2) pseudo=read geom=check gue
 ss=(read,tcheck) scf=(maxcycle=1)
 ----------------------------------------------------------------------
 -----
 title
 -----
 Structure from the checkpoint file:  "BH10_162_forward_mol1.chk"
 Charge =  0 Multiplicity = 2

                         Standard orientation:
 ---------------------------------------------------------------------
 Center     Atomic      Atomic             Coordinates (Angstroms)
 Number     Number       Type             X           Y           Z
 ---------------------------------------------------------------------
      1          6           0        2.517543   -2.127436   -0.340433
      2          6           0        0.282114   -1.435936   -0.233505
      3          6           0       -0.622592   -0.404628    0.380873
      4          6           0       -0.502448   -0.159115    1.857477
      5          6           0       -1.968502   -0.378030   -0.231828
      6          8           0       -2.856425    0.349789    0.472305
      7          8           0       -2.258810   -0.920295   -1.270259
      8         16           0        0.549791    2.040783   -0.783612
      9          6           0        1.896423    2.101747    0.432939
     10          1           0        2.569438   -1.970459   -1.424303
     11          1           0        2.256123   -3.174918   -0.145864
     12          1           0        3.490938   -1.916242    0.099366
     13          1           0        0.544905   -0.064088    2.137794
     14          1           0       -1.048716    0.734367    2.154399
     15          1           0       -0.920035   -1.007207    2.412872
     16          1           0       -0.082384   -2.443579    0.028499
     17          1           0        0.253961   -1.354407   -1.325135
     18          1           0        2.621987    2.827423    0.064499
     19          1           0        2.374414    1.127649    0.511291
     20          1           0        1.539209    2.429238    1.408036
     21          1           0       -0.117700    0.803347   -0.206565
     22          1           0       -3.683959    0.349841   -0.028202
     23          8           0        1.588976   -1.251131    0.255200
 ---------------------------------------------------------------------

 SCF Done:  E(UHF) =  -859.208981398     A.U. after    2 cycles

 The electronic state is 2-A.
 Alpha  occ. eigenvalues --  -75.68095 -21.12690 -21.06207 -21.05506 -13.13149
 Alpha  occ. eigenvalues --  -13.09876 -13.02197 -11.55009 -11.47600 -11.43612
 Alpha  occ. eigenvalues --  -11.41257 -11.39509 -11.38855  -8.01752  -1.84298
 Alpha  occ. eigenvalues --   -1.76887  -1.66371  -1.25355  -1.17147  -1.03527
 Alpha  occ. eigenvalues --   -0.98724  -0.92959  -0.90892  -0.77861  -0.70074
 Alpha  occ. eigenvalues --   -0.66127  -0.64124  -0.62084  -0.61170  -0.58536
 Alpha  occ. eigenvalues --   -0.57936  -0.57275  -0.55683  -0.55408  -0.54993
 Alpha  occ. eigenvalues --   -0.49455  -0.47053  -0.45622  -0.40858  -0.39806
 Alpha  occ. eigenvalues --   -0.35467  -0.31330  -0.30767  -0.23309  -0.23051
 Alpha virt. eigenvalues --    0.03458   0.03993   0.04809   0.05281   0.05331
 Alpha virt. eigenvalues --    0.05585   0.06103   0.06897   0.07383   0.07744
 Alpha virt. eigenvalues --    0.08462   0.09936   0.10347   0.11331   0.12251

  Beta  occ. eigenvalues --  -75.67532 -21.12723 -21.05652 -21.05493 -13.09735
  Beta  occ. eigenvalues --  -13.09558 -13.01834 -11.55122 -11.46886 -11.43176
  Beta  occ. eigenvalues --  -11.41257 -11.39470 -11.38877  -8.01126  -1.84103
  Beta  occ. eigenvalues --   -1.76872  -1.65553  -1.22086  -1.14711  -1.03466
  Beta  occ. eigenvalues --   -0.97900  -0.91135  -0.90075  -0.75707  -0.67638
  Beta  occ. eigenvalues --   -0.65447  -0.63135  -0.61507  -0.60913  -0.57843
  Beta  occ. eigenvalues --   -0.57800  -0.56663  -0.55603  -0.54890  -0.54794
  Beta  occ. eigenvalues --   -0.48668  -0.46522  -0.45268  -0.40251  -0.39243
  Beta  occ. eigenvalues --   -0.33910  -0.31035  -0.30153  -0.22444
  Beta virt. eigenvalues --    0.03395   0.03989   0.04656   0.04972   0.05334
  Beta virt. eigenvalues --    0.05592   0.06104   0.06857   0.07332   0.07478
  Beta virt. eigenvalues --    0.07975   0.08513   0.10024   0.10371   0.11349

 Mulliken charges and spin densities:
               1          2
     1  C   -3.221394   0.000779
     2  C   -2.265261  -0.320462
     3  C   -2.546800   1.703402
     4  C   -5.374771  -0.226670
     5  C    9.196410  -0.386743
     6  O   -3.665029  -0.003813
     7  O   -3.527673   0.165155
     8  S   -0.259326   0.598008
     9  C   -5.330015  -0.066858
    10  H    1.449727  -0.000409
    11  H    1.314050  -0.000074
    12  H    1.426499  -0.000355
    13  H    1.436525   0.002503
    14  H    1.136140   0.012258
    15  H    1.252740   0.038915
    16  H    1.531297   0.023038
    17  H    1.617441   0.015753
    18  H    1.227415   0.000945
    19  H    1.673283   0.011052
    20  H    1.514167   0.002280
    21  H    3.504031  -0.566817
    22  H    1.030044  -0.000455
    23  O   -3.119501  -0.001431
 Sum of Mulliken charges =  -0.00000   1.00000

 Dipole moment (field-independent basis, Debye):
    X=              0.6663    Y=              0.1252    Z=              0.8199  Tot=              1.0639
                          Isotropic Fermi Contact Couplings
        Atom                 a.u.       MegaHertz       Gauss      10(-4) cm-1
     1  C(13)             -0.00195      -2.19591      -0.78355      -0.73248
     2  C(13)             -0.02524     -28.37652     -10.12545      -9.46539
     3  C(13)              0.14955     168.12656      59.99174      56.08098
     4  C(13)             -0.02206     -24.79799      -8.84854      -8.27172
     5  C(13)             -0.03375     -37.94040     -13.53808     -12.65555
     6  O(17)             -0.00818       4.95826       1.76923       1.65390
     7  O(17)              0.03279     -19.87835      -7.09309      -6.63071
     8  S(33)              0.08476      29.11200      10.38789       9.71072

 Normal termination of Gaussian 16 at Wed Apr  9 01:03:09 2025.
