 Gaussian 16, Revision C.01,

 ----------------------------------------------------------------------
 #t hf aug-cc-pvdz symm=none int=(grid=ultrafine) guess=(read,tcheck) s
 table=(opt,rrhf)
 ----------------------------------------------------------------------
 -----
 title
 -----
 Symbolic Z-matrix:
 Charge =  1 Multiplicity = 1

 SCF Done:  E(RHF) =  -1368.22615400     A.U. after   19 cycles
 Normal termination of Gaussian 16 at Wed Apr  9 02:29:50 2025.
 Gaussian 16:  ES64L-G16RevC.01  3-Jul-2019

 ----------------------------------------------------------------------
 #t hf aug-cc-pvdz iop(5/13=1,5/36=2,99/5=2) pseudo=read geom=check gue
 ss=(read,tcheck) scf=(maxcycle=1)
 ----------------------------------------------------------------------
 -----
 title
 -----
 Structure from the checkpoint file:  "BH10_249_forward_mol1.chk"
 Charge =  1 Multiplicity = 1

                         Standard orientation:
 ---------------------------------------------------------------------
 Center     Atomic      Atomic             Coordinates (Angstroms)
 Number     Number       Type             X           Y           Z
 ---------------------------------------------------------------------
      1          6           0        1.608758   -0.329377   -0.311197
      2          6           0        3.148128    1.833182   -0.328583
      3          6           0        4.310381    0.898517   -0.683018
      4          6           0        4.142307   -0.499353   -0.117071
      5          6           0        2.866613   -1.113616   -0.682337
      6          1           0        4.393134    0.837364   -1.773361
      7          1           0        5.229919    1.356008   -0.312247
      8          1           0        4.069862   -0.462657    0.971069
      9          1           0        2.953579   -1.165404   -1.771902
     10          1           0        2.755802   -2.131694   -0.308322
     11          7           0        1.858619    1.119661   -0.564146
     12          8           0        0.817432    1.862181   -0.605850
     13          6           0        0.444866   -0.765263   -1.200277
     14          1           0        0.330309   -1.846809   -1.120161
     15          1           0       -0.493895   -0.300088   -0.902494
     16          1           0        0.639609   -0.516739   -2.244114
     17          6           0        1.240793   -0.539128    1.166405
     18          1           0        0.426549    0.120159    1.471833
     19          1           0        0.897380   -1.565918    1.295593
     20          1           0        2.083320   -0.389916    1.837890
     21          6           0        3.181861    3.056534   -1.243400
     22          1           0        2.428153    3.791437   -0.965185
     23          1           0        4.162098    3.528280   -1.165325
     24          1           0        3.019773    2.768524   -2.282718
     25          6           0        3.217874    2.283649    1.138565
     26          1           0        4.097900    2.914046    1.270754
     27          1           0        2.349207    2.888388    1.406247
     28          1           0        3.294123    1.450098    1.834042
     29          6           0       -1.426157    3.586260    0.484784
     30          6           0       -1.907454    2.353500    0.646000
     31          6           0       -0.637750    2.673920    1.213692
     32          1           0       -1.546407    4.593897    0.125388
     33          1           0        0.357149    2.170360    0.427879
     34          1           0       -0.183310    2.648165    2.202440
     35          6           0       -2.919707    1.364432    0.449226
     36          6           0       -4.001037    1.628831   -0.397844
     37          6           0       -2.820354    0.130053    1.098098
     38          6           0       -4.967694    0.663353   -0.598362
     39          1           0       -4.076137    2.587047   -0.896256
     40          6           0       -3.791553   -0.832233    0.899914
     41          1           0       -1.986808   -0.067754    1.759735
     42          6           0       -4.857252   -0.561678    0.050179
     43          1           0       -5.810177    0.857208   -1.248642
     44          1           0       -3.730905   -1.786874    1.405172
     45          6           0       -5.883438   -1.635356   -0.211971
     46          9           0       -7.076443   -1.114153   -0.516774
     47          9           0       -5.503371   -2.406297   -1.244506
     48          9           0       -6.040285   -2.435259    0.849120
     49          7           0        5.301593   -1.317724   -0.404216
     50          6           0        5.551443   -2.431807    0.346839
     51          6           0        6.770288   -3.232748   -0.025170
     52          1           0        7.428551   -3.285413    0.842377
     53          1           0        6.460846   -4.250855   -0.262724
     54          1           0        7.322099   -2.818031   -0.868955
     55          8           0        4.817197   -2.739635    1.267137
     56          1           0        5.885133   -1.105405   -1.197156
 ---------------------------------------------------------------------

 SCF Done:  E(RHF) =  -1374.38170354     A.U. after    2 cycles

 The electronic state is 1-A.
 Alpha  occ. eigenvalues --  -29.39824 -29.39763 -29.39415 -21.27320 -21.09676
 Alpha  occ. eigenvalues --  -15.91173 -15.84532 -11.71553 -11.69492 -11.68956
 Alpha  occ. eigenvalues --  -11.66085 -11.65100 -11.61268 -11.59624 -11.59440
 Alpha  occ. eigenvalues --  -11.59138 -11.58689 -11.58552 -11.58420 -11.56393
 Alpha  occ. eigenvalues --  -11.55740 -11.52724 -11.52162 -11.51948 -11.51192
 Alpha  occ. eigenvalues --  -11.48992 -11.47210 -11.46205  -1.99880  -1.78716
 Alpha  occ. eigenvalues --   -1.58002  -1.53847  -1.52618  -1.44543  -1.43454
 Alpha  occ. eigenvalues --   -1.38081  -1.25739  -1.25286  -1.24648  -1.18845
 Alpha  occ. eigenvalues --   -1.15539  -1.13720  -1.13033  -1.11894  -1.06930
 Alpha  occ. eigenvalues --   -1.04633  -1.02399  -0.98832  -0.97584  -0.97265
 Alpha  occ. eigenvalues --   -0.95631  -0.95133  -0.89358  -0.89102  -0.87326
 Alpha  occ. eigenvalues --   -0.86360  -0.81710  -0.79258  -0.77590  -0.76693
 Alpha  occ. eigenvalues --   -0.75720  -0.75182  -0.73806  -0.73533  -0.72827
 Alpha  occ. eigenvalues --   -0.71278  -0.70851  -0.69495  -0.68734  -0.68284
 Alpha  occ. eigenvalues --   -0.67476  -0.66877  -0.65993  -0.65812  -0.64281
 Alpha  occ. eigenvalues --   -0.63322  -0.63196  -0.62455  -0.61584  -0.61139
 Alpha  occ. eigenvalues --   -0.60871  -0.60319  -0.58925  -0.58395  -0.57249
 Alpha  occ. eigenvalues --   -0.55999  -0.55741  -0.55569  -0.54674  -0.52373
 Alpha  occ. eigenvalues --   -0.52335  -0.52123  -0.51060  -0.50033  -0.47361
 Alpha  occ. eigenvalues --   -0.46645  -0.44514  -0.43870  -0.40980  -0.39160
 Alpha  occ. eigenvalues --   -0.39014  -0.36444  -0.34389  -0.33619  -0.29917
 Alpha virt. eigenvalues --   -0.07064  -0.05605  -0.05328  -0.04702  -0.04070
 Alpha virt. eigenvalues --   -0.03384  -0.03300  -0.02833  -0.02560  -0.02165
 Alpha virt. eigenvalues --   -0.01572  -0.01497  -0.01358  -0.00805  -0.00637

 Mulliken charges:
               1
     1  C   10.974305
     2  C    7.579325
     3  C   -6.207689
     4  C    2.789657
     5  C   -7.197206
     6  H    1.433910
     7  H    1.377018
     8  H    2.692622
     9  H    1.289102
    10  H    1.698202
    11  N    1.510793
    12  O   -4.962950
    13  C   -7.990854
    14  H    1.307722
    15  H    1.321325
    16  H    1.245505
    17  C   -6.064997
    18  H    1.459290
    19  H    1.092502
    20  H    1.409664
    21  C   -7.307806
    22  H    1.155055
    23  H    1.235086
    24  H    1.230811
    25  C   -5.947129
    26  H    1.210725
    27  H    1.096211
    28  H    1.496283
    29  C   -2.938097
    30  C    3.556874
    31  C   -4.259500
    32  H    1.030279
    33  H    3.375495
    34  H    1.103888
    35  C    6.638866
    36  C   -3.268829
    37  C   -4.288792
    38  C   -2.649973
    39  H    1.856244
    40  C   -2.399152
    41  H    2.210588
    42  C   -1.229400
    43  H    1.847074
    44  H    1.878032
    45  C   -0.762792
    46  F    0.233579
    47  F    0.121117
    48  F    0.207457
    49  N   -3.971737
    50  C    5.365554
    51  C   -4.782722
    52  H    1.230959
    53  H    1.232873
    54  H    1.501345
    55  O   -3.519295
    56  H    0.753585
 Sum of Mulliken charges =   1.00000

 Dipole moment (field-independent basis, Debye):
    X=             -0.2518    Y=              5.6883    Z=             -1.2922  Tot=              5.8387

 Test job not archived.
 1\1\GINC-SE106\SP\RHF\Aug-CC-pVDZ\C21H28F3N2O2(1+)\OHZDE\09-Apr-2025\0
 \\#t hf aug-cc-pvdz iop(5/13=1,5/36=2,99/5=2) pseudo=read geom=check g
 uess=(read,tcheck) scf=(maxcycle=1)\\title\\1,1\C,0,1.608758,-0.329377
 ,-0.311197\C,0,3.148128,1.833182,-0.328583\C,0,4.310381,0.898517,-0.68
 3018\C,0,4.142307,-0.499353,-0.117071\C,0,2.866613,-1.113616,-0.682337
 \H,0,4.393134,0.837364,-1.773361\H,0,5.229919,1.356008,-0.312247\H,0,4
 .069862,-0.462657,0.971069\H,0,2.953579,-1.165404,-1.771902\H,0,2.7558
 02,-2.131694,-0.308322\N,0,1.858619,1.119661,-0.564146\O,0,0.817432,1.

 Normal termination of Gaussian 16 at Wed Apr  9 02:33:34 2025.
