 Gaussian 16, Revision C.01,

 ----------------------------------------------------------------------
 #t hf aug-cc-pvdz symm=none int=(grid=ultrafine) guess=(read,tcheck) s
 table=opt
 ----------------------------------------------------------------------
 -----
 title
 -----
 Symbolic Z-matrix:
 Charge =  0 Multiplicity = 2

 SCF Done:  E(UHF) =  -1806.41024702     A.U. after   18 cycles
 Normal termination of Gaussian 16 at Wed Apr  9 03:46:58 2025.
 Gaussian 16:  ES64L-G16RevC.01  3-Jul-2019

 ----------------------------------------------------------------------
 #t hf aug-cc-pvdz iop(5/13=1,5/36=2,99/5=2) pseudo=read geom=check gue
 ss=(read,tcheck) scf=(maxcycle=1)
 ----------------------------------------------------------------------
 -----
 title
 -----
 Structure from the checkpoint file:  "BH10_304_reverse_mol2.chk"
 Charge =  0 Multiplicity = 2

                         Standard orientation:
 ---------------------------------------------------------------------
 Center     Atomic      Atomic             Coordinates (Angstroms)
 Number     Number       Type             X           Y           Z
 ---------------------------------------------------------------------
      1          6           0        0.997667   -0.203641   -1.566773
      2          6           0        2.370922   -0.276744   -1.014786
      3          9           0        2.639817   -1.477058   -0.401432
      4         14           0       -0.303791    0.011911   -0.147047
      5         14           0        0.028332    2.120006    0.839169
      6         14           0       -0.118639   -1.653094    1.503288
      7         14           0       -2.462150   -0.039737   -1.082438
      8          6           0       -0.567230    3.487145   -0.317913
      9          1           0       -0.364709    4.471730    0.113388
     10          1           0       -0.062783    3.441231   -1.286471
     11          1           0       -1.641919    3.420890   -0.501193
     12          6           0       -0.938243    2.236092    2.453624
     13          1           0       -0.837650    3.235558    2.886321
     14          1           0       -2.002653    2.042881    2.306146
     15          1           0       -0.569063    1.519350    3.190594
     16          6           0        1.849336    2.426327    1.212912
     17          1           0        1.973556    3.375979    1.741890
     18          1           0        2.270636    1.634669    1.835510
     19          1           0        2.440505    2.475050    0.296399
     20          6           0       -1.702654   -1.637888    2.530710
     21          1           0       -2.575269   -1.910350    1.932796
     22          1           0       -1.627643   -2.358483    3.350256
     23          1           0       -1.892900   -0.656222    2.969937
     24          6           0        0.084713   -3.365084    0.747323
     25          1           0        1.029839   -3.438279    0.206704
     26          1           0        0.084457   -4.128726    1.530632
     27          1           0       -0.725839   -3.599727    0.053577
     28          6           0        1.333721   -1.308682    2.651075
     29          1           0        2.271270   -1.283731    2.093364
     30          1           0        1.219312   -0.353658    3.169121
     31          1           0        1.413314   -2.090306    3.412247
     32          6           0       -3.023186   -1.806677   -1.429786
     33          1           0       -3.073037   -2.395225   -0.510870
     34          1           0       -4.020073   -1.810943   -1.880079
     35          1           0       -2.346220   -2.321707   -2.114481
     36          6           0       -3.699922    0.744687    0.104341
     37          1           0       -4.711699    0.680505   -0.306221
     38          1           0       -3.702855    0.243189    1.074362
     39          1           0       -3.480225    1.800720    0.275677
     40          6           0       -2.492819    0.935307   -2.697577
     41          1           0       -3.497647    0.929699   -3.129787
     42          1           0       -2.205759    1.976976   -2.537750
     43          1           0       -1.812292    0.515206   -3.441654
     44          6           0        0.687207   -1.387384   -2.504916
     45          1           0        1.439578   -1.471517   -3.294180
     46          1           0        0.671658   -2.330020   -1.957817
     47          1           0       -0.283976   -1.262081   -2.984986
     48          6           0        3.581469    0.343330   -1.612529
     49          6           0        4.769832    0.419351   -0.655763
     50          1           0        3.305744    1.342895   -1.959347
     51          1           0        3.876459   -0.220409   -2.513255
     52          1           0        5.633688    0.868478   -1.148912
     53          1           0        4.525531    1.019792    0.222261
     54          1           0        5.054539   -0.575879   -0.313123
     55          1           0        0.948378    0.721944   -2.149416
 ---------------------------------------------------------------------

 SCF Done:  E(UHF) =  -1810.28187314     A.U. after    2 cycles

 The electronic state is 2-A.
 Alpha  occ. eigenvalues --  -76.18037 -76.17958 -76.17599 -76.16673 -29.25855
 Alpha  occ. eigenvalues --  -11.49676 -11.42682 -11.41035 -11.37751 -11.36235
 Alpha  occ. eigenvalues --  -11.35516 -11.35283 -11.35007 -11.34689 -11.34644
 Alpha  occ. eigenvalues --  -11.34587 -11.34352 -11.34120 -11.33877  -5.52083
 Alpha  occ. eigenvalues --   -5.51998  -5.51628  -5.50765  -2.16097  -2.16070
 Alpha  occ. eigenvalues --   -2.15989  -2.15923  -2.15869  -2.15755  -2.15700
 Alpha  occ. eigenvalues --   -2.15556  -2.15454  -2.14032  -2.13074  -2.12793
 Alpha  occ. eigenvalues --   -1.30489  -1.14708  -1.07220  -1.06859  -1.06378
 Alpha  occ. eigenvalues --   -1.03048  -1.00760  -1.00502  -1.00462  -1.00338
 Alpha  occ. eigenvalues --   -0.99899  -0.99845  -0.90031  -0.87420  -0.75072
 Alpha  occ. eigenvalues --   -0.66551  -0.65058  -0.64570  -0.63708  -0.63060
 Alpha  occ. eigenvalues --   -0.58509  -0.57673  -0.57211  -0.57180  -0.56742
 Alpha  occ. eigenvalues --   -0.56331  -0.56184  -0.55833  -0.55674  -0.55255
 Alpha  occ. eigenvalues --   -0.54901  -0.54452  -0.54152  -0.54030  -0.53700
 Alpha  occ. eigenvalues --   -0.53548  -0.53303  -0.53108  -0.52799  -0.52663
 Alpha  occ. eigenvalues --   -0.52325  -0.51497  -0.50143  -0.49692  -0.48012
 Alpha  occ. eigenvalues --   -0.42280  -0.39637  -0.39322  -0.38986  -0.38607
 Alpha  occ. eigenvalues --   -0.38237  -0.38076  -0.35867  -0.33226  -0.28501
 Alpha  occ. eigenvalues --   -0.28152  -0.25188  -0.17490
 Alpha virt. eigenvalues --    0.03775   0.04594   0.04637   0.04857   0.04974
 Alpha virt. eigenvalues --    0.05046   0.05168   0.05570   0.05653   0.05757
 Alpha virt. eigenvalues --    0.05949   0.06062   0.06120   0.06380   0.06463

  Beta  occ. eigenvalues --  -76.18031 -76.17960 -76.17601 -76.16638 -29.25564
  Beta  occ. eigenvalues --  -11.47917 -11.42824 -11.40541 -11.37664 -11.36098
  Beta  occ. eigenvalues --  -11.35510 -11.35273 -11.35002 -11.34687 -11.34637
  Beta  occ. eigenvalues --  -11.34584 -11.34351 -11.34120 -11.33877  -5.52073
  Beta  occ. eigenvalues --   -5.52000  -5.51630  -5.50706  -2.16066  -2.16056
  Beta  occ. eigenvalues --   -2.15970  -2.15913  -2.15859  -2.15714  -2.15645
  Beta  occ. eigenvalues --   -2.15555  -2.15420  -2.13988  -2.13051  -2.12760
  Beta  occ. eigenvalues --   -1.26857  -1.14451  -1.07199  -1.06843  -1.06363
  Beta  occ. eigenvalues --   -1.00788  -1.00514  -1.00474  -1.00340  -1.00246
  Beta  occ. eigenvalues --   -0.99870  -0.99712  -0.89709  -0.86373  -0.74743
  Beta  occ. eigenvalues --   -0.65001  -0.64561  -0.63873  -0.63091  -0.61385
  Beta  occ. eigenvalues --   -0.58303  -0.57571  -0.57173  -0.57151  -0.56505
  Beta  occ. eigenvalues --   -0.56279  -0.55837  -0.55732  -0.55465  -0.54903
  Beta  occ. eigenvalues --   -0.54562  -0.54080  -0.54032  -0.53738  -0.53670
  Beta  occ. eigenvalues --   -0.53452  -0.53238  -0.52796  -0.52744  -0.52642
  Beta  occ. eigenvalues --   -0.52271  -0.50192  -0.49623  -0.49177  -0.47140
  Beta  occ. eigenvalues --   -0.39907  -0.39324  -0.38980  -0.38591  -0.38263
  Beta  occ. eigenvalues --   -0.38072  -0.35967  -0.35157  -0.30989  -0.28400
  Beta  occ. eigenvalues --   -0.27797  -0.25157
  Beta virt. eigenvalues --    0.03757   0.04497   0.04618   0.04856   0.04975
  Beta virt. eigenvalues --    0.05051   0.05145   0.05570   0.05656   0.05760
  Beta virt. eigenvalues --    0.05951   0.06040   0.06098   0.06358   0.06456

 Mulliken charges and spin densities:
               1          2
     1  C   -4.350757  -0.165370
     2  C    6.984533   1.272557
     3  F   -0.716861   0.130184
     4  Si   3.099526  -0.224276
     5  Si  10.072211   0.109864
     6  Si  10.972435   0.033330
     7  Si  10.192142   0.064761
     8  C   -6.999400  -0.004757
     9  H    1.090361   0.001543
    10  H    1.261454  -0.003904
    11  H    1.127619   0.001152
    12  C   -6.965916  -0.003216
    13  H    0.965880   0.001723
    14  H    1.411816  -0.000385
    15  H    1.166488  -0.001579
    16  C   -7.413264   0.002091
    17  H    0.899748   0.002585
    18  H    1.391293   0.008180
    19  H    1.578906  -0.007330
    20  C   -7.038545   0.003601
    21  H    1.157214   0.001330
    22  H    0.900897  -0.000057
    23  H    1.451285   0.003359
    24  C   -7.099131  -0.001771
    25  H    1.281096  -0.002943
    26  H    0.981272   0.000118
    27  H    1.231665   0.000110
    28  C   -6.984694   0.019573
    29  H    1.297482  -0.004490
    30  H    1.245019   0.006940
    31  H    0.988953   0.001943
    32  C   -7.061123  -0.002814
    33  H    1.157625   0.000271
    34  H    1.061919   0.000906
    35  H    1.282787   0.000583
    36  C   -7.009778   0.005216
    37  H    0.895032   0.003178
    38  H    1.411281   0.001458
    39  H    1.140328  -0.001608
    40  C   -7.158249  -0.003990
    41  H    0.952220  -0.000021
    42  H    1.254994  -0.000467
    43  H    1.176397   0.000256
    44  C   -6.612988   0.062280
    45  H    1.305524  -0.017055
    46  H    1.410351  -0.011395
    47  H    1.435890   0.007646
    48  C   -6.017878  -0.342311
    49  C   -4.503646   0.046674
    50  H    1.581350  -0.003872
    51  H    1.240757   0.025558
    52  H    1.163973  -0.003106
    53  H    1.567418   0.027052
    54  H    1.520241  -0.002643
    55  H    1.624851  -0.036661
 Sum of Mulliken charges =  -0.00000   1.00000

 Dipole moment (field-independent basis, Debye):
    X=              1.0246    Y=             -1.4573    Z=              0.1886  Tot=              1.7914
                          Isotropic Fermi Contact Couplings
        Atom                 a.u.       MegaHertz       Gauss      10(-4) cm-1
     1  C(13)             -0.01700     -19.10977      -6.81884      -6.37433
     2  C(13)              0.18234     204.98894      73.14515      68.37695
     3  F(19)              0.01903      80.07354      28.57223      26.70966
     4  Si(29)             0.03592     -31.92554     -11.39183     -10.64921
     5  Si(29)            -0.00129       1.14507       0.40859       0.38195
     6  Si(29)            -0.00120       1.06265       0.37918       0.35446
     7  Si(29)             0.00503      -4.47387      -1.59639      -1.49232
     8  C(13)              0.00012       0.13295       0.04744       0.04435

 1\1\GINC-SE123\SP\UHF\Aug-CC-pVDZ\C14H36F1Si4(2)\OHZDE\09-Apr-2025\0\\
 #t hf aug-cc-pvdz iop(5/13=1,5/36=2,99/5=2) pseudo=read geom=check gue
 ss=(read,tcheck) scf=(maxcycle=1)\\title\\0,2\C,0,0.997667,-0.203641,-
 1.566773\C,0,2.370922,-0.276744,-1.014786\F,0,2.639817,-1.477058,-0.40
 1432\Si,0,-0.303791,0.011911,-0.147047\Si,0,0.028332,2.120006,0.839169
 \Si,0,-0.118639,-1.653094,1.503288\Si,0,-2.46215,-0.039737,-1.082438\C
 ,0,-0.56723,3.487145,-0.317913\H,0,-0.364709,4.47173,0.113388\H,0,-0.0
 62783,3.441231,-1.286471\H,0,-1.641919,3.42089,-0.501193\C,0,-0.938243

 Normal termination of Gaussian 16 at Wed Apr  9 03:50:42 2025.
