 Gaussian 16, Revision C.01,

 ----------------------------------------------------------------------
 #t hf aug-cc-pvdz symm=none int=(grid=ultrafine) guess=(read,tcheck) s
 table=(opt,rrhf)
 ----------------------------------------------------------------------
 -----
 title
 -----
 Symbolic Z-matrix:
 Charge =  0 Multiplicity = 1

 SCF Done:  E(RHF) =  -857.052333905     A.U. after   15 cycles
 Normal termination of Gaussian 16 at Wed Apr  9 02:04:56 2025.
 Gaussian 16:  ES64L-G16RevC.01  3-Jul-2019

 ----------------------------------------------------------------------
 #t hf aug-cc-pvdz iop(5/13=1,5/36=2,99/5=2) pseudo=read geom=check gue
 ss=(read,tcheck) scf=(maxcycle=1)
 ----------------------------------------------------------------------
 -----
 title
 -----
 Structure from the checkpoint file:  "BH10_413_forward_mol2.chk"
 Charge =  0 Multiplicity = 1

                         Standard orientation:
 ---------------------------------------------------------------------
 Center     Atomic      Atomic             Coordinates (Angstroms)
 Number     Number       Type             X           Y           Z
 ---------------------------------------------------------------------
      1         16           0       -1.232660   -0.235035    0.141959
      2          6           0       -0.254425   -1.390641   -0.934291
      3          6           0        0.857752   -2.243894   -0.272366
      4          6           0        1.767207   -1.315070    0.482543
      5          6           0        1.312010    1.806067   -0.440986
      6          6           0        0.011510    2.410494   -0.011708
      7          6           0       -1.119819    1.487319   -0.504020
      8          6           0        2.361568   -0.302605   -0.155653
      9          6           0        2.004770    1.009205    0.377326
     10          8           0       -0.713826   -0.245790    1.507598
     11          8           0       -2.625117   -0.605474   -0.107077
     12          1           0       -1.039831   -2.011181   -1.364814
     13          1           0        0.170658   -0.769919   -1.722763
     14          1           0        1.363439   -2.769860   -1.088104
     15          1           0        0.417690   -2.995874    0.381908
     16          1           0       -0.182986    3.398897   -0.439597
     17          1           0       -0.038670    2.498928    1.074460
     18          1           0       -1.126803    1.395083   -1.592004
     19          1           0       -2.099499    1.862509   -0.202594
     20          1           0        1.426793    1.668785   -1.515614
     21          1           0        1.843284    1.075535    1.448498
     22          1           0        2.537500   -0.364788   -1.227993
     23          1           0        1.519093   -1.182701    1.528029
 ---------------------------------------------------------------------

 SCF Done:  E(RHF) =  -859.500839558     A.U. after    2 cycles

 The electronic state is 1-A.
 Alpha  occ. eigenvalues --  -75.87523 -21.03463 -21.03041 -13.49303 -13.40088
 Alpha  occ. eigenvalues --  -13.34932 -11.47781 -11.46722 -11.45790 -11.43218
 Alpha  occ. eigenvalues --  -11.42259 -11.41044 -11.39543 -11.37733  -8.22341
 Alpha  occ. eigenvalues --   -1.81330  -1.63788  -1.32780  -1.24225  -1.18614
 Alpha  occ. eigenvalues --   -1.04852  -1.02882  -0.91224  -0.86415  -0.80614
 Alpha  occ. eigenvalues --   -0.79032  -0.69414  -0.65732  -0.64306  -0.62678
 Alpha  occ. eigenvalues --   -0.61494  -0.59648  -0.56183  -0.54196  -0.52964
 Alpha  occ. eigenvalues --   -0.51203  -0.50618  -0.49567  -0.46225  -0.42904
 Alpha  occ. eigenvalues --   -0.42077  -0.37687  -0.36232  -0.34547  -0.33905
 Alpha  occ. eigenvalues --   -0.27430
 Alpha virt. eigenvalues --    0.03438   0.04267   0.04730   0.04999   0.05397
 Alpha virt. eigenvalues --    0.06070   0.06333   0.06565   0.06963   0.07706
 Alpha virt. eigenvalues --    0.07954   0.08511   0.10111   0.10831   0.11545

 Mulliken charges:
               1
     1  S    7.355102
     2  C   -3.517203
     3  C   -4.148520
     4  C   -1.093286
     5  C   -0.891049
     6  C   -3.637499
     7  C   -3.812608
     8  C   -1.572670
     9  C   -1.057483
    10  O   -2.736212
    11  O   -2.778108
    12  H    1.348188
    13  H    1.958317
    14  H    1.187504
    15  H    1.360290
    16  H    1.214167
    17  H    1.384829
    18  H    1.494094
    19  H    1.479484
    20  H    1.528255
    21  H    1.557322
    22  H    1.630343
    23  H    1.746744
 Sum of Mulliken charges =   0.00000

 Dipole moment (field-independent basis, Debye):
    X=              0.5376    Y=              0.2363    Z=             -1.2748  Tot=              1.4036

 Test job not archived.
 1\1\GINC-SE404\SP\RHF\Aug-CC-pVDZ\C8H12O2S1\OHZDE\09-Apr-2025\0\\#t hf
  aug-cc-pvdz iop(5/13=1,5/36=2,99/5=2) pseudo=read geom=check guess=(r
 ead,tcheck) scf=(maxcycle=1)\\title\\0,1\S,0,-1.23266,-0.235035,0.1419
 59\C,0,-0.254425,-1.390641,-0.934291\C,0,0.857753,-2.243894,-0.272366\
 C,0,1.767207,-1.315069,0.482543\C,0,1.312009,1.806067,-0.440986\C,0,0.
 011509,2.410494,-0.011708\C,0,-1.11982,1.487319,-0.50402\C,0,2.361568,
 -0.302604,-0.155653\C,0,2.00477,1.009206,0.377326\O,0,-0.713826,-0.245
 79,1.507598\O,0,-2.625117,-0.605475,-0.107077\H,0,-1.039831,-2.011181,

 Normal termination of Gaussian 16 at Wed Apr  9 02:05:14 2025.
