 Gaussian 16, Revision C.01,

 ----------------------------------------------------------------------
 #t hf aug-cc-pvdz symm=none int=(grid=ultrafine) guess=(read,tcheck) s
 table=(opt,rrhf)
 ----------------------------------------------------------------------
 -----
 title
 -----
 Symbolic Z-matrix:
 Charge =  0 Multiplicity = 1

 SCF Done:  E(RHF) =  -1572.15642104     A.U. after   25 cycles
 Normal termination of Gaussian 16 at Wed Apr  9 03:39:46 2025.
 Gaussian 16:  ES64L-G16RevC.01  3-Jul-2019

 ----------------------------------------------------------------------
 #t hf aug-cc-pvdz iop(5/13=1,5/36=2,99/5=2) pseudo=read geom=check gue
 ss=(read,tcheck) scf=(maxcycle=1)
 ----------------------------------------------------------------------
 -----
 title
 -----
 Structure from the checkpoint file:  "BH10_376_forward_mol1.chk"
 Charge =  0 Multiplicity = 1

                         Standard orientation:
 ---------------------------------------------------------------------
 Center     Atomic      Atomic             Coordinates (Angstroms)
 Number     Number       Type             X           Y           Z
 ---------------------------------------------------------------------
      1          6           0       -5.681392   -2.854624    0.251423
      2          6           0       -5.256793   -1.541335    0.381386
      3          6           0       -4.005629   -1.137915   -0.089039
      4          6           0       -3.180463   -2.101011   -0.678640
      5          6           0       -3.608991   -3.411574   -0.814294
      6          6           0       -4.860949   -3.797012   -0.352129
      7          1           0       -6.657849   -3.142044    0.622882
      8          1           0       -5.905514   -0.811491    0.852988
      9          1           0       -2.185547   -1.829538   -1.007769
     10          1           0       -2.953502   -4.141631   -1.274327
     11          1           0       -5.189700   -4.823849   -0.454799
     12          6           0       -3.594101    0.266091    0.081266
     13          1           0       -4.313327    0.892309    0.590937
     14          6           0       -2.731105    0.871533   -0.828376
     15          1           0       -2.282551    0.264281   -1.602272
     16          6           0       -2.794784    3.150355    0.107272
     17          6           0       -1.429714    2.633692   -1.867312
     18          6           0       -1.562450    3.651866    0.857165
     19          1           0       -3.511562    2.710853    0.794846
     20          1           0       -3.289139    3.985570   -0.401916
     21          6           0       -0.169132    3.133481   -1.166385
     22          1           0       -1.200505    1.817009   -2.550096
     23          1           0       -1.877740    3.445858   -2.451555
     24          6           0       -0.512002    4.185783   -0.114421
     25          1           0       -1.144901    2.829355    1.444290
     26          1           0       -1.868535    4.426520    1.564176
     27          1           0        0.332310    2.287334   -0.691276
     28          1           0        0.517133    3.537993   -1.914151
     29          1           0       -0.898403    5.084723   -0.609403
     30          1           0        0.386918    4.487157    0.427207
     31          7           0       -2.419937    2.165384   -0.901682
     32          7           0       -0.733582   -0.118716    0.428586
     33          7           0       -1.357676   -0.024467    1.556074
     34          7           0       -2.471519    0.162896    1.840766
     35          6           0        0.634652   -0.253265    0.449193
     36          6           0        1.257268   -0.366645   -0.799691
     37          6           0        1.488531   -0.254497    1.556497
     38          6           0        2.620509   -0.483587   -0.936925
     39          6           0        2.857663   -0.359671    1.412699
     40          6           0        3.465811   -0.482994    0.168734
     41          9           0        0.493863   -0.336921   -1.904873
     42          9           0        3.115600   -0.550899   -2.173985
     43          9           0        3.591740   -0.373763    2.522494
     44          9           0        0.988397   -0.149275    2.792987
     45          6           0        4.948006   -0.564848    0.057121
     46          8           0        5.713668    0.087894    0.711848
     47          8           0        5.321832   -1.462176   -0.858036
     48          6           0        6.732967   -1.579665   -1.070888
     49          1           0        6.847531   -2.331661   -1.846303
     50          1           0        7.146832   -0.625150   -1.395065
     51          1           0        7.229243   -1.892248   -0.152657
 ---------------------------------------------------------------------

 SCF Done:  E(RHF) =  -1578.99190028     A.U. after    2 cycles

 The electronic state is 1-A.
 Alpha  occ. eigenvalues --  -29.30938 -29.30495 -29.30404 -29.29918 -21.09701
 Alpha  occ. eigenvalues --  -21.05431 -15.88515 -15.85358 -15.77380 -15.76281
 Alpha  occ. eigenvalues --  -11.60854 -11.55408 -11.55247 -11.54094 -11.53187
 Alpha  occ. eigenvalues --  -11.51696 -11.51198 -11.48838 -11.48352 -11.46051
 Alpha  occ. eigenvalues --  -11.44843 -11.44398 -11.43582 -11.42984 -11.41935
 Alpha  occ. eigenvalues --  -11.41878 -11.40293 -11.40237 -11.40219 -11.37220
 Alpha  occ. eigenvalues --  -11.36000  -1.85762  -1.67173  -1.65492  -1.51348
 Alpha  occ. eigenvalues --   -1.46872  -1.35261  -1.34029  -1.27225  -1.25527
 Alpha  occ. eigenvalues --   -1.18765  -1.16488  -1.15469  -1.08771  -1.06905
 Alpha  occ. eigenvalues --   -1.06340  -1.05491  -1.00532  -0.96898  -0.93556
 Alpha  occ. eigenvalues --   -0.88640  -0.88587  -0.87394  -0.85752  -0.82817
 Alpha  occ. eigenvalues --   -0.79269  -0.78345  -0.75636  -0.73890  -0.72844
 Alpha  occ. eigenvalues --   -0.71500  -0.70731  -0.69832  -0.67304  -0.67264
 Alpha  occ. eigenvalues --   -0.65410  -0.64709  -0.64196  -0.63980  -0.63675
 Alpha  occ. eigenvalues --   -0.62641  -0.61928  -0.60477  -0.58930  -0.58077
 Alpha  occ. eigenvalues --   -0.57472  -0.57092  -0.57004  -0.55059  -0.54570
 Alpha  occ. eigenvalues --   -0.54438  -0.53306  -0.52641  -0.51734  -0.50639
 Alpha  occ. eigenvalues --   -0.50314  -0.49444  -0.47818  -0.46452  -0.44535
 Alpha  occ. eigenvalues --   -0.43915  -0.43816  -0.43287  -0.43099  -0.42814
 Alpha  occ. eigenvalues --   -0.42160  -0.41220  -0.40136  -0.38528  -0.37913
 Alpha  occ. eigenvalues --   -0.37627  -0.35183  -0.34016  -0.32604  -0.31783
 Alpha  occ. eigenvalues --   -0.29681  -0.29147  -0.28390  -0.27634  -0.25570
 Alpha  occ. eigenvalues --   -0.23681  -0.22878  -0.17608
 Alpha virt. eigenvalues --    0.03396   0.04090   0.04388   0.04538   0.04642
 Alpha virt. eigenvalues --    0.04798   0.04971   0.05529   0.05640   0.05955
 Alpha virt. eigenvalues --    0.06227   0.06567   0.06847   0.07306   0.07706

 Mulliken charges:
               1
     1  C   -1.908800
     2  C   -4.581065
     3  C    8.309747
     4  C    0.147133
     5  C   -4.259667
     6  C   -3.950356
     7  H    1.534860
     8  H    1.830239
     9  H    2.905578
    10  H    1.482236
    11  H    1.581621
    12  C   -3.630849
    13  H    1.853743
    14  C   -0.096308
    15  H    2.342257
    16  C   -4.137441
    17  C   -3.535602
    18  C   -3.615396
    19  H    2.122526
    20  H    1.525356
    21  C   -4.434019
    22  H    1.930812
    23  H    1.532474
    24  C   -3.046447
    25  H    1.848586
    26  H    1.446705
    27  H    2.638786
    28  H    1.534245
    29  H    1.376966
    30  H    1.563290
    31  N   -2.953704
    32  N   -2.889850
    33  N    1.428494
    34  N   -0.954568
    35  C   -3.084415
    36  C    0.925843
    37  C    2.061523
    38  C    3.739584
    39  C    1.170414
    40  C   -4.533350
    41  F    0.713263
    42  F    0.901236
    43  F    0.985498
    44  F    0.789499
    45  C    4.949922
    46  O   -3.339397
    47  O   -3.283902
    48  C   -2.339385
    49  H    1.174934
    50  H    1.069113
    51  H    1.158041
 Sum of Mulliken charges =  -0.00000

 Dipole moment (field-independent basis, Debye):
    X=             -0.9227    Y=              3.2265    Z=             -2.3843  Tot=              4.1166

 Test job not archived.
 1\1\GINC-SE212\SP\RHF\Aug-CC-pVDZ\C21H20F4N4O2\OHZDE\09-Apr-2025\0\\#t
  hf aug-cc-pvdz iop(5/13=1,5/36=2,99/5=2) pseudo=read geom=check guess
 =(read,tcheck) scf=(maxcycle=1)\\title\\0,1\C,0,-5.681392,-2.854624,0.
 251423\C,0,-5.256793,-1.541335,0.381386\C,0,-4.005629,-1.137915,-0.089
 039\C,0,-3.180463,-2.101011,-0.67864\C,0,-3.608991,-3.411574,-0.814294
 \C,0,-4.860949,-3.797012,-0.352129\H,0,-6.657849,-3.142044,0.622882\H,
 0,-5.905514,-0.811491,0.852988\H,0,-2.185547,-1.829538,-1.007769\H,0,-
 2.953502,-4.141631,-1.274327\H,0,-5.1897,-4.823849,-0.454799\C,0,-3.59

 Normal termination of Gaussian 16 at Wed Apr  9 03:43:22 2025.
