 Gaussian 16, Revision C.01,

 ----------------------------------------------------------------------
 #t hf aug-cc-pvdz symm=none int=(grid=ultrafine) guess=(read,tcheck) s
 table=(opt,rrhf)
 ----------------------------------------------------------------------
 -----
 title
 -----
 Symbolic Z-matrix:
 Charge =  0 Multiplicity = 1

 SCF Done:  E(RHF) =  -1035.23560256     A.U. after   17 cycles
 Normal termination of Gaussian 16 at Wed Apr  9 02:02:18 2025.
 Gaussian 16:  ES64L-G16RevC.01  3-Jul-2019

 ----------------------------------------------------------------------
 #t hf aug-cc-pvdz iop(5/13=1,5/36=2,99/5=2) pseudo=read geom=check gue
 ss=(read,tcheck) scf=(maxcycle=1)
 ----------------------------------------------------------------------
 -----
 title
 -----
 Structure from the checkpoint file:  "BH10_289_forward_mol1.chk"
 Charge =  0 Multiplicity = 1

                         Standard orientation:
 ---------------------------------------------------------------------
 Center     Atomic      Atomic             Coordinates (Angstroms)
 Number     Number       Type             X           Y           Z
 ---------------------------------------------------------------------
      1          6           0        2.483630   -2.560276   -0.263057
      2          1           0        2.418323   -3.648848   -0.278944
      3          1           0        0.717604   -2.651309   -1.516471
      4          6           0        1.240341   -1.608491    1.399210
      5          8           0        0.904321   -1.279538    2.497395
      6          6           0       -1.617601   -0.665576    1.181382
      7          8           0       -2.746149   -0.119147    0.677954
      8          8           0       -1.230773   -0.756397   -1.032679
      9          1           0       -4.616560   -1.729872   -0.795302
     10          1           0       -3.182121   -2.648513   -0.340941
     11          1           0       -4.189893    1.094521   -1.537550
     12          1           0       -2.510282    1.521049   -1.895838
     13          6           0       -1.855710    1.885144    2.129035
     14          1           0       -0.152038    1.641119    0.878370
     15          1           0       -2.232340    1.850267    3.145686
     16          1           0       -2.410942    2.096125    0.072906
     17          1           0        0.771985   -0.643784   -2.603518
     18          6           0        1.827959    0.609263   -1.260123
     19          6           0        1.204019    2.940198   -1.069737
     20          6           0        3.023741    2.085796    0.236279
     21          1           0        3.493030    0.022077   -0.023293
     22          1           0        2.356935    4.126620    0.300232
     23          1           0        0.209000    1.516043   -2.327246
     24          1           0        3.434083   -2.249481   -0.692080
     25          6           0        1.273019   -1.903841   -0.949418
     26          7           0        0.500314   -1.528836    0.232323
     27          8           0        2.447681   -2.134243    1.103289
     28          6           0       -0.762329   -0.985102    0.160462
     29          1           0       -1.520897   -0.906205    2.222334
     30          5           0       -2.753859   -0.496559   -0.876411
     31          6           0       -3.554368   -1.872012   -1.016508
     32          1           0       -3.486006   -2.257144   -2.038854
     33          6           0       -3.217673    0.688980   -1.834065
     34          1           0       -3.340050    0.305096   -2.851300
     35          6           0       -2.759321    1.854982    1.064562
     36          6           0       -0.555419    1.575326    1.879648
     37          1           0        0.150226    1.366752    2.672992
     38          1           0       -3.823394    1.952373    1.230333
     39          6           0        1.598272   -0.737864   -1.901929
     40          1           0        2.477747   -1.032411   -2.484216
     41          6           0        1.011498    1.679557   -1.617827
     42          6           0        2.209861    3.146586   -0.136734
     43          6           0        2.838829    0.830769   -0.326221
     44          1           0        3.809846    2.234562    0.966585
     45          1           0        0.559717    3.759574   -1.365532
 ---------------------------------------------------------------------

 SCF Done:  E(RHF) =  -1040.04828597     A.U. after    2 cycles

 The electronic state is 1-A.
 Alpha  occ. eigenvalues --  -21.10512 -21.04809 -21.04793 -21.03425 -15.78139
 Alpha  occ. eigenvalues --  -11.55782 -11.54953 -11.53900 -11.52839 -11.48921
 Alpha  occ. eigenvalues --  -11.48188 -11.46499 -11.45356 -11.44822 -11.42519
 Alpha  occ. eigenvalues --  -11.42039 -11.41953 -11.40768 -11.39298 -11.37336
 Alpha  occ. eigenvalues --  -11.31692 -11.29834  -7.58210  -1.88136  -1.85811
 Alpha  occ. eigenvalues --   -1.69651  -1.68918  -1.45917  -1.36134  -1.22705
 Alpha  occ. eigenvalues --   -1.20575  -1.12241  -1.10245  -1.09945  -1.02785
 Alpha  occ. eigenvalues --   -1.01033  -0.99160  -0.97002  -0.89751  -0.89116
 Alpha  occ. eigenvalues --   -0.87323  -0.83724  -0.81532  -0.75361  -0.73308
 Alpha  occ. eigenvalues --   -0.71635  -0.71172  -0.69000  -0.68591  -0.65301
 Alpha  occ. eigenvalues --   -0.64202  -0.62013  -0.61577  -0.61413  -0.59182
 Alpha  occ. eigenvalues --   -0.58754  -0.57495  -0.57014  -0.55346  -0.54910
 Alpha  occ. eigenvalues --   -0.54792  -0.53575  -0.53029  -0.52190  -0.51041
 Alpha  occ. eigenvalues --   -0.50913  -0.49536  -0.48530  -0.47824  -0.46261
 Alpha  occ. eigenvalues --   -0.45124  -0.44162  -0.43301  -0.42290  -0.40054
 Alpha  occ. eigenvalues --   -0.37142  -0.35967  -0.34637  -0.34144  -0.33061
 Alpha  occ. eigenvalues --   -0.32413  -0.31529  -0.30800  -0.22732
 Alpha virt. eigenvalues --    0.03399   0.03729   0.03961   0.04432   0.04896
 Alpha virt. eigenvalues --    0.05112   0.05577   0.05777   0.05903   0.06153
 Alpha virt. eigenvalues --    0.06272   0.06824   0.07207   0.07390   0.08238

 Mulliken charges:
               1
     1  C   -3.174538
     2  H    1.355898
     3  H    2.067149
     4  C    7.034743
     5  O   -3.790236
     6  C    0.519414
     7  O   -4.746490
     8  O   -7.599327
     9  H    1.018941
    10  H    0.728966
    11  H    0.669986
    12  H    0.679424
    13  C   -0.719409
    14  H    3.193754
    15  H    1.536889
    16  H    1.954485
    17  H    1.502230
    18  C    6.292300
    19  C   -2.018715
    20  C   -2.588738
    21  H    2.271966
    22  H    1.677780
    23  H    2.303526
    24  H    2.014147
    25  C   -0.660676
    26  N   -2.723563
    27  O   -3.669161
    28  C    5.194170
    29  H    2.516411
    30  B   16.784037
    31  C   -6.838799
    32  H    0.834747
    33  C   -7.202982
    34  H    0.693990
    35  C   -4.917234
    36  C   -4.484787
    37  H    1.564133
    38  H    1.511305
    39  C   -5.746220
    40  H    1.092474
    41  C   -3.590168
    42  C   -2.775350
    43  C   -3.222381
    44  H    1.736145
    45  H    1.719770
 Sum of Mulliken charges =  -0.00000

 Dipole moment (field-independent basis, Debye):
    X=              2.7636    Y=              0.3530    Z=             -0.6523  Tot=              2.8614

 Test job not archived.
 1\1\GINC-SE041\SP\RHF\Aug-CC-pVDZ\C17H22B1N1O4\OHZDE\09-Apr-2025\0\\#t
  hf aug-cc-pvdz iop(5/13=1,5/36=2,99/5=2) pseudo=read geom=check guess
 =(read,tcheck) scf=(maxcycle=1)\\title\\0,1\C,0,2.483629,-2.560277,-0.
 263057\H,0,2.418322,-3.648849,-0.278944\H,0,0.717603,-2.651309,-1.5164
 71\C,0,1.240341,-1.608491,1.39921\O,0,0.904321,-1.279538,2.497395\C,0,
 -1.617601,-0.665576,1.181382\O,0,-2.746149,-0.119146,0.677954\O,0,-1.2
 30773,-0.756397,-1.032679\H,0,-4.61656,-1.729871,-0.795302\H,0,-3.1821
 22,-2.648512,-0.340941\H,0,-4.189893,1.094522,-1.53755\H,0,-2.510282,1

 Normal termination of Gaussian 16 at Wed Apr  9 02:04:48 2025.
