 Gaussian 16, Revision C.01,

 ----------------------------------------------------------------------
 #t hf aug-cc-pvdz symm=none int=(grid=ultrafine) guess=(read,tcheck) s
 table=opt
 ----------------------------------------------------------------------
 -----
 title
 -----
 Symbolic Z-matrix:
 Charge =  0 Multiplicity = 2

 SCF Done:  E(UHF) =  -2205.48188782     A.U. after   18 cycles
 Normal termination of Gaussian 16 at Wed Apr  9 04:04:11 2025.
 Gaussian 16:  ES64L-G16RevC.01  3-Jul-2019

 ----------------------------------------------------------------------
 #t hf aug-cc-pvdz iop(5/13=1,5/36=2,99/5=2) pseudo=read geom=check gue
 ss=(read,tcheck) scf=(maxcycle=1)
 ----------------------------------------------------------------------
 -----
 title
 -----
 Structure from the checkpoint file:  "BH10_305_forward_mol1.chk"
 Charge =  0 Multiplicity = 2

                         Standard orientation:
 ---------------------------------------------------------------------
 Center     Atomic      Atomic             Coordinates (Angstroms)
 Number     Number       Type             X           Y           Z
 ---------------------------------------------------------------------
      1         14           0        0.593541    0.073766    0.009590
      2         14           0        1.684500   -1.381940   -1.468667
      3         14           0        1.259569   -0.279522    2.225814
      4         14           0        0.895663    2.303306   -0.649017
      5          6           0        0.647963    2.471429   -2.510743
      6          1           0        0.768731    3.512589   -2.823460
      7          1           0        1.373818    1.872507   -3.065301
      8          1           0       -0.349670    2.146542   -2.815335
      9          6           0       -0.300475    3.472793    0.221525
     10          1           0       -0.238532    3.377340    1.307624
     11          1           0       -0.063613    4.509465   -0.035390
     12          1           0       -1.336380    3.289817   -0.069711
     13          6           0        2.649938    2.846504   -0.220443
     14          1           0        3.397425    2.186671   -0.665646
     15          1           0        2.838305    3.860748   -0.584417
     16          1           0        2.809983    2.848351    0.860393
     17          6           0        0.569814    1.077373    3.339053
     18          1           0        0.838168    0.893973    4.383401
     19          1           0        0.963179    2.058715    3.063761
     20          1           0       -0.520145    1.127555    3.279707
     21          6           0        0.636209   -1.946506    2.839068
     22          1           0        1.036592   -2.765420    2.238456
     23          1           0        0.939510   -2.110479    3.877291
     24          1           0       -0.452360   -2.014077    2.791970
     25          6           0        3.141802   -0.259818    2.340491
     26          1           0        3.557170    0.687226    1.989239
     27          1           0        3.468569   -0.405831    3.374167
     28          1           0        3.582597   -1.058050    1.738410
     29          6           0        1.922018   -3.076722   -0.684716
     30          1           0        2.378006   -3.768438   -1.398941
     31          1           0        2.574870   -3.025871    0.189776
     32          1           0        0.966706   -3.499670   -0.368224
     33          6           0        0.655775   -1.571278   -3.034788
     34          1           0        0.451831   -0.604977   -3.501844
     35          1           0        1.174853   -2.195038   -3.768230
     36          1           0       -0.301194   -2.046953   -2.809231
     37          6           0        3.380868   -0.692378   -1.923551
     38          1           0        3.912294   -1.385168   -2.582532
     39          1           0        3.302813    0.264683   -2.444296
     40          1           0        3.998838   -0.538160   -1.035692
     41          1           0       -0.968623   -0.334178   -0.061846
     42          6           0       -2.422452   -0.977154   -0.089286
     43          6           0       -3.032077   -0.524899    1.202569
     44         17           0       -2.064551   -2.709973   -0.131683
     45          6           0       -3.023926   -0.460494   -1.360704
     46          6           0       -3.212510    0.994593    1.218664
     47          6           0       -3.944230    1.485725   -0.028643
     48          6           0       -3.214699    1.056933   -1.299967
     49          1           0       -2.412081   -0.850023    2.041240
     50          1           0       -4.008807   -1.014769    1.327530
     51          1           0       -3.996815   -0.948724   -1.518330
     52          1           0       -2.394526   -0.737130   -2.209797
     53          1           0       -2.230208    1.472215    1.272811
     54          1           0       -3.754378    1.286111    2.121486
     55          1           0       -4.043049    2.574034   -0.001580
     56          1           0       -4.962302    1.078833   -0.037898
     57          1           0       -2.234776    1.540404   -1.333489
     58          1           0       -3.759363    1.389570   -2.186718
 ---------------------------------------------------------------------

 SCF Done:  E(UHF) =  -2209.48904387     A.U. after    2 cycles

 The electronic state is 2-A.
 Alpha  occ. eigenvalues --  -99.87596 -76.18331 -76.18023 -76.17849 -76.16569
 Alpha  occ. eigenvalues --  -11.47926 -11.45329 -11.44210 -11.40405 -11.39019
 Alpha  occ. eigenvalues --  -11.35784 -11.35506 -11.35185 -11.34932 -11.34683
 Alpha  occ. eigenvalues --  -11.34566 -11.34418 -11.34263 -11.34120 -11.34006
 Alpha  occ. eigenvalues --  -10.44943  -9.64986  -9.64424  -9.64327  -5.52350
 Alpha  occ. eigenvalues --   -5.52071  -5.51885  -5.50542  -2.16322  -2.16269
 Alpha  occ. eigenvalues --   -2.15982  -2.15909  -2.15840  -2.15795  -2.15761
 Alpha  occ. eigenvalues --   -2.15513  -2.15424  -2.13972  -2.12904  -2.12791
 Alpha  occ. eigenvalues --   -1.38505  -1.26312  -1.12266  -1.09236  -1.07246
 Alpha  occ. eigenvalues --   -1.06907  -1.06614  -1.00827  -1.00712  -1.00422
 Alpha  occ. eigenvalues --   -1.00263  -1.00001  -0.99932  -0.90554  -0.88052
 Alpha  occ. eigenvalues --   -0.79614  -0.76220  -0.68397  -0.65756  -0.64480
 Alpha  occ. eigenvalues --   -0.64210  -0.62999  -0.62556  -0.58736  -0.57182
 Alpha  occ. eigenvalues --   -0.57096  -0.56783  -0.56421  -0.56138  -0.56001
 Alpha  occ. eigenvalues --   -0.55719  -0.55671  -0.55454  -0.55224  -0.55100
 Alpha  occ. eigenvalues --   -0.54380  -0.54232  -0.54115  -0.53984  -0.53752
 Alpha  occ. eigenvalues --   -0.53401  -0.53243  -0.52918  -0.52544  -0.52487
 Alpha  occ. eigenvalues --   -0.51862  -0.48530  -0.45720  -0.45713  -0.43964
 Alpha  occ. eigenvalues --   -0.41570  -0.40604  -0.39401  -0.39162  -0.39036
 Alpha  occ. eigenvalues --   -0.38594  -0.38386  -0.38143  -0.28723  -0.28555
 Alpha  occ. eigenvalues --   -0.23480
 Alpha virt. eigenvalues --    0.03787   0.04416   0.04534   0.04727   0.04855
 Alpha virt. eigenvalues --    0.04967   0.05092   0.05195   0.05593   0.05685
 Alpha virt. eigenvalues --    0.05712   0.05835   0.06090   0.06138   0.06450

  Beta  occ. eigenvalues --  -99.87612 -76.18336 -76.18032 -76.17858 -76.16312
  Beta  occ. eigenvalues --  -11.46369 -11.45433 -11.44191 -11.39827 -11.39074
  Beta  occ. eigenvalues --  -11.35737 -11.35496 -11.35185 -11.34932 -11.34670
  Beta  occ. eigenvalues --  -11.34544 -11.34406 -11.34245 -11.34118 -11.34007
  Beta  occ. eigenvalues --  -10.44960  -9.65183  -9.64337  -9.64310  -5.52358
  Beta  occ. eigenvalues --   -5.52083  -5.51898  -5.50150  -2.16300  -2.16256
  Beta  occ. eigenvalues --   -2.15980  -2.15883  -2.15815  -2.15798  -2.15708
  Beta  occ. eigenvalues --   -2.15480  -2.14660  -2.13312  -2.12672  -2.12575
  Beta  occ. eigenvalues --   -1.36864  -1.26276  -1.12228  -1.07571  -1.07192
  Beta  occ. eigenvalues --   -1.06875  -1.06592  -1.00821  -1.00678  -1.00407
  Beta  occ. eigenvalues --   -1.00221  -0.99991  -0.99920  -0.90375  -0.86072
  Beta  occ. eigenvalues --   -0.77153  -0.74265  -0.67729  -0.64470  -0.64209
  Beta  occ. eigenvalues --   -0.63613  -0.62457  -0.61545  -0.58255  -0.57144
  Beta  occ. eigenvalues --   -0.57051  -0.56694  -0.56303  -0.56090  -0.55946
  Beta  occ. eigenvalues --   -0.55676  -0.55471  -0.55249  -0.55004  -0.54547
  Beta  occ. eigenvalues --   -0.54246  -0.54094  -0.54033  -0.53790  -0.53697
  Beta  occ. eigenvalues --   -0.53392  -0.53210  -0.52895  -0.52531  -0.52411
  Beta  occ. eigenvalues --   -0.50935  -0.48035  -0.45618  -0.45513  -0.42394
  Beta  occ. eigenvalues --   -0.41476  -0.40151  -0.39388  -0.39090  -0.38688
  Beta  occ. eigenvalues --   -0.38420  -0.38172  -0.38089  -0.28450  -0.28297
  Beta virt. eigenvalues --    0.03718   0.04394   0.04535   0.04728   0.04730
  Beta virt. eigenvalues --    0.04869   0.04973   0.05137   0.05497   0.05613
  Beta virt. eigenvalues --    0.05704   0.05774   0.06097   0.06141   0.06438

 Mulliken charges and spin densities:
               1          2
     1  Si   3.442747   0.163697
     2  Si   9.567234   0.031397
     3  Si  11.081962   0.036373
     4  Si   9.501592   0.090264
     5  C   -7.226362  -0.004068
     6  H    0.987983  -0.001268
     7  H    1.170708   0.003878
     8  H    1.466586  -0.001373
     9  C   -7.233661  -0.004975
    10  H    1.550895   0.001575
    11  H    0.890833  -0.001293
    12  H    1.632784  -0.006786
    13  C   -7.141953   0.027869
    14  H    1.364007  -0.007280
    15  H    0.915833  -0.002395
    16  H    1.193109  -0.011209
    17  C   -7.268617  -0.003034
    18  H    0.964560  -0.002665
    19  H    1.247725   0.005177
    20  H    1.356295  -0.002638
    21  C   -7.150805   0.003496
    22  H    1.329356   0.004247
    23  H    0.933478  -0.003295
    24  H    1.352821  -0.000556
    25  C   -7.098940   0.036236
    26  H    1.419263   0.000146
    27  H    0.974711  -0.005217
    28  H    1.183127  -0.003921
    29  C   -7.076712  -0.006262
    30  H    0.980900  -0.002281
    31  H    1.171144   0.006596
    32  H    1.368255   0.004264
    33  C   -7.154064   0.010406
    34  H    1.337513   0.005881
    35  H    1.026744  -0.001852
    36  H    1.320453   0.002787
    37  C   -7.074803   0.032814
    38  H    1.012389  -0.003580
    39  H    1.243399  -0.002887
    40  H    1.271569   0.008810
    41  H   -0.967773  -0.534948
    42  C    1.170179   1.634517
    43  C   -4.945802  -0.288257
    44  Cl  -0.263723  -0.000489
    45  C   -4.890749  -0.329443
    46  C   -2.855662   0.023373
    47  C   -3.899333  -0.039721
    48  C   -3.063833   0.031491
    49  H    1.689944   0.009281
    50  H    1.428861   0.017986
    51  H    1.484372   0.012947
    52  H    1.707616   0.004346
    53  H    2.935379   0.039409
    54  H    1.533196   0.005481
    55  H    1.522034  -0.003437
    56  H    1.507421  -0.003294
    57  H    2.559966   0.017082
    58  H    1.513852   0.006600
 Sum of Mulliken charges =   0.00000   1.00000

 Dipole moment (field-independent basis, Debye):
    X=             -0.5513    Y=              2.3517    Z=              0.0682  Tot=              2.4164
                          Isotropic Fermi Contact Couplings
        Atom                 a.u.       MegaHertz       Gauss      10(-4) cm-1
     1  Si(29)             0.15188    -134.98174     -48.16484     -45.02506
     2  Si(29)            -0.00599       5.32636       1.90058       1.77668
     3  Si(29)            -0.00556       4.94050       1.76289       1.64797
     4  Si(29)            -0.00262       2.33181       0.83205       0.77781
     5  C(13)             -0.00082      -0.92580      -0.33035      -0.30882
     6  H(1)              -0.00013      -0.60217      -0.21487      -0.20086
     7  H(1)               0.00004       0.18873       0.06735       0.06295
     8  H(1)              -0.00004      -0.16315      -0.05822      -0.05442

 Normal termination of Gaussian 16 at Wed Apr  9 04:09:00 2025.
