 Gaussian 16, Revision C.01,

 ----------------------------------------------------------------------
 #t hf aug-cc-pvdz symm=none int=(grid=ultrafine) guess=(read,tcheck) s
 table=(opt,rrhf)
 ----------------------------------------------------------------------
 -----
 title
 -----
 Symbolic Z-matrix:
 Charge =  0 Multiplicity = 1

 SCF Done:  E(RHF) =  -551.581902172     A.U. after   13 cycles
 Normal termination of Gaussian 16 at Wed Apr  9 01:00:37 2025.
 Gaussian 16:  ES64L-G16RevC.01  3-Jul-2019

 ----------------------------------------------------------------------
 #t hf aug-cc-pvdz iop(5/13=1,5/36=2,99/5=2) pseudo=read geom=check gue
 ss=(read,tcheck) scf=(maxcycle=1)
 ----------------------------------------------------------------------
 -----
 title
 -----
 Structure from the checkpoint file:  "BH10_175_reverse_mol3.chk"
 Charge =  0 Multiplicity = 1

                         Standard orientation:
 ---------------------------------------------------------------------
 Center     Atomic      Atomic             Coordinates (Angstroms)
 Number     Number       Type             X           Y           Z
 ---------------------------------------------------------------------
      1         16           0        0.000000    0.227448   -0.443016
      2          6           0        1.354258   -0.801431    0.184664
      3          1           0        1.257897   -0.891887    1.266726
      4          1           0        1.331930   -1.778305   -0.299472
      5          1           0        2.281546   -0.286876   -0.060773
      6          6           0       -1.354262   -0.801426    0.184664
      7          8           0        0.000003    1.486512    0.382416
      8          1           0       -1.331937   -1.778301   -0.299471
      9          1           0       -2.281548   -0.286867   -0.060774
     10          1           0       -1.257901   -0.891881    1.266726
 ---------------------------------------------------------------------

 SCF Done:  E(RHF) =  -552.560166171     A.U. after    2 cycles

 The electronic state is 1-A.
 Alpha  occ. eigenvalues --  -75.78149 -20.99420 -13.32457 -13.21086 -13.16484
 Alpha  occ. eigenvalues --  -11.40972 -11.40350  -8.12460  -1.67661  -1.20235
 Alpha  occ. eigenvalues --   -1.05382  -0.88708  -0.63473  -0.62378  -0.60683
 Alpha  occ. eigenvalues --   -0.59021  -0.49829  -0.46623  -0.37319  -0.32522
 Alpha  occ. eigenvalues --   -0.25622
 Alpha virt. eigenvalues --    0.02857   0.04030   0.05250   0.05972   0.07185
 Alpha virt. eigenvalues --    0.07452   0.08304   0.11816   0.12853   0.12950
 Alpha virt. eigenvalues --    0.14233   0.15136   0.16551   0.17233   0.17902

 Mulliken charges:
               1
     1  S    3.193559
     2  C   -4.578749
     3  H    1.353673
     4  H    1.390253
     5  H    1.386366
     6  C   -4.578747
     7  O   -2.296646
     8  H    1.390252
     9  H    1.386365
    10  H    1.353674
 Sum of Mulliken charges =   0.00000

 Dipole moment (field-independent basis, Debye):
    X=             -0.0000    Y=             -1.6021    Z=             -0.9558  Tot=              1.8656

 Test job not archived.
 1\1\GINC-SE073\SP\RHF\Aug-CC-pVDZ\C2H6O1S1\OHZDE\09-Apr-2025\0\\#t hf
 aug-cc-pvdz iop(5/13=1,5/36=2,99/5=2) pseudo=read geom=check guess=(re
 ad,tcheck) scf=(maxcycle=1)\\title\\0,1\S,0,0.,0.227448,-0.443016\C,0,
 1.35426,-0.801428,0.184664\H,0,1.257899,-0.891884,1.266726\H,0,1.33193
 4,-1.778302,-0.299472\H,0,2.281547,-0.286871,-0.060773\C,0,-1.35426,-0
 .801429,0.184664\O,0,0.,1.486512,0.382416\H,0,-1.331933,-1.778304,-0.2
 99471\H,0,-2.281547,-0.286872,-0.060774\H,0,-1.257899,-0.891883,1.2667
 26\\Version=ES64L-G16RevC.01\State=1-A\HF=-552.5601662\RMSD=9.967e-02\

 Normal termination of Gaussian 16 at Wed Apr  9 01:00:40 2025.
