 Gaussian 16, Revision C.01,

 ----------------------------------------------------------------------
 #t hf aug-cc-pvdz symm=none int=(grid=ultrafine) guess=(read,tcheck) s
 table=(opt,rrhf)
 ----------------------------------------------------------------------
 -----
 title
 -----
 Symbolic Z-matrix:
 Charge =  0 Multiplicity = 1

 SCF Done:  E(RHF) =  -652.084251353     A.U. after   13 cycles
 Normal termination of Gaussian 16 at Wed Apr  9 00:56:07 2025.
 Gaussian 16:  ES64L-G16RevC.01  3-Jul-2019

 ----------------------------------------------------------------------
 #t hf aug-cc-pvdz iop(5/13=1,5/36=2,99/5=2) pseudo=read geom=check gue
 ss=(read,tcheck) scf=(maxcycle=1)
 ----------------------------------------------------------------------
 -----
 title
 -----
 Structure from the checkpoint file:  "BH10_103_reverse_mol3.chk"
 Charge =  0 Multiplicity = 1

                         Standard orientation:
 ---------------------------------------------------------------------
 Center     Atomic      Atomic             Coordinates (Angstroms)
 Number     Number       Type             X           Y           Z
 ---------------------------------------------------------------------
      1          6           0       -0.380747    0.001459    0.045696
      2          6           0       -0.844677   -1.218970   -0.725290
      3          6           0       -0.887678    1.308391   -0.517167
      4          8           0       -0.750123   -0.047966    1.379864
      5          1           0       -1.935001   -1.266269   -0.683253
      6          1           0       -0.434203   -2.131542   -0.289600
      7          1           0       -0.528141   -1.165870   -1.766038
      8          1           0       -0.575186    1.428923   -1.553154
      9          1           0       -0.504853    2.139214    0.073184
     10          1           0       -1.978358    1.312671   -0.466339
     11          1           0       -0.467256   -0.885034    1.762377
     12         17           0        1.476623    0.023904   -0.055031
 ---------------------------------------------------------------------

 SCF Done:  E(RHF) =  -653.247616103     A.U. after    2 cycles

 The electronic state is 1-A.
 Alpha  occ. eigenvalues --  -99.86398 -21.09546 -11.49893 -11.40897 -11.37653
 Alpha  occ. eigenvalues --  -10.43725  -9.63688  -9.62966  -9.62884  -1.76373
 Alpha  occ. eigenvalues --   -1.30584  -1.15002  -1.04229  -0.83521  -0.69152
 Alpha  occ. eigenvalues --   -0.65036  -0.63258  -0.57550  -0.54558  -0.53027
 Alpha  occ. eigenvalues --   -0.50936  -0.48387  -0.46344  -0.42201  -0.35204
 Alpha virt. eigenvalues --    0.03415   0.05606   0.05938   0.06060   0.06444
 Alpha virt. eigenvalues --    0.06886   0.07586   0.09020   0.10655   0.12023
 Alpha virt. eigenvalues --    0.14239   0.14572   0.15177   0.15579   0.16427

 Mulliken charges:
               1
     1  C    2.535197
     2  C   -3.560457
     3  C   -3.433700
     4  O   -3.443917
     5  H    1.175815
     6  H    1.213461
     7  H    1.242396
     8  H    1.230655
     9  H    1.248100
    10  H    1.179087
    11  H    0.838332
    12  Cl  -0.224970
 Sum of Mulliken charges =   0.00000

 Dipole moment (field-independent basis, Debye):
    X=             -2.7939    Y=             -0.5196    Z=              0.0603  Tot=              2.8425

 Test job not archived.
 1\1\GINC-SE396\SP\RHF\Aug-CC-pVDZ\C3H7Cl1O1\OHZDE\09-Apr-2025\0\\#t hf
  aug-cc-pvdz iop(5/13=1,5/36=2,99/5=2) pseudo=read geom=check guess=(r
 ead,tcheck) scf=(maxcycle=1)\\title\\0,1\C,0,-0.380747,0.001459,0.0456
 96\C,0,-0.844677,-1.21897,-0.72529\C,0,-0.887678,1.308391,-0.517167\O,
 0,-0.750123,-0.047966,1.379864\H,0,-1.935002,-1.266268,-0.683253\H,0,-
 0.434204,-2.131542,-0.2896\H,0,-0.528141,-1.16587,-1.766038\H,0,-0.575
 186,1.428923,-1.553154\H,0,-0.504852,2.139214,0.073184\H,0,-1.978358,1
 .312672,-0.466339\H,0,-0.467256,-0.885034,1.762377\Cl,0,1.476623,0.023

 Normal termination of Gaussian 16 at Wed Apr  9 00:56:10 2025.
