 Gaussian 16, Revision C.01,

 ----------------------------------------------------------------------
 #t hf aug-cc-pvdz symm=none int=(grid=ultrafine) guess=(read,tcheck) s
 table=opt
 ----------------------------------------------------------------------
 -----
 title
 -----
 Symbolic Z-matrix:
 Charge =  0 Multiplicity = 2

 SCF Done:  E(UHF) =  -431.345529711     A.U. after   16 cycles
 Normal termination of Gaussian 16 at Wed Apr  9 02:06:42 2025.
 Gaussian 16:  ES64L-G16RevC.01  3-Jul-2019

 ----------------------------------------------------------------------
 #t hf aug-cc-pvdz iop(5/13=1,5/36=2,99/5=2) pseudo=read geom=check gue
 ss=(read,tcheck) scf=(maxcycle=1)
 ----------------------------------------------------------------------
 -----
 title
 -----
 Structure from the checkpoint file:  "BH10_6_reverse_mol2.chk"
 Charge =  0 Multiplicity = 2

                         Standard orientation:
 ---------------------------------------------------------------------
 Center     Atomic      Atomic             Coordinates (Angstroms)
 Number     Number       Type             X           Y           Z
 ---------------------------------------------------------------------
      1          6           0        0.339430   -0.606170   -0.024083
      2          6           0       -1.088123   -1.139940   -0.028513
      3          6           0       -1.990434    0.110004   -0.102412
      4          1           0       -1.246168   -1.721466    0.879399
      5          1           0       -1.222554   -1.805552   -0.880418
      6          6           0       -1.058347    1.295927    0.184506
      7          1           0       -2.826807    0.060949    0.594590
      8          1           0       -2.411898    0.208704   -1.105195
      9          6           0        0.284034    0.861352   -0.445929
     10          1           0       -0.919710    1.432307    1.260097
     11          1           0       -1.418973    2.238412   -0.226929
     12          6           0        1.470443    1.666438   -0.079226
     13          9           0        0.865239   -0.700506    1.246202
     14          9           0        1.175272   -1.339400   -0.819181
     15          1           0        1.851471    2.426309   -0.746526
     16          1           0        1.934391    1.540776    0.889314
     17          1           0        0.153640    0.853054   -1.533580
 ---------------------------------------------------------------------

 SCF Done:  E(UHF) =  -433.158509985     A.U. after    2 cycles

 The electronic state is 2-A.
 Alpha  occ. eigenvalues --  -29.26516 -29.26142 -11.56519 -11.45891 -11.42290
 Alpha  occ. eigenvalues --  -11.40587 -11.38851 -11.35926  -1.41609  -1.16651
 Alpha  occ. eigenvalues --   -1.13837  -0.98338  -0.89037  -0.85619  -0.80632
 Alpha  occ. eigenvalues --   -0.69866  -0.66355  -0.63482  -0.56470  -0.55629
 Alpha  occ. eigenvalues --   -0.55255  -0.50538  -0.48022  -0.47571  -0.46450
 Alpha  occ. eigenvalues --   -0.42006  -0.36551  -0.33061  -0.28245  -0.26629
 Alpha  occ. eigenvalues --   -0.23853  -0.19712
 Alpha virt. eigenvalues --    0.04213   0.05067   0.05407   0.05599   0.05762
 Alpha virt. eigenvalues --    0.06106   0.06397   0.07357   0.08532   0.10659
 Alpha virt. eigenvalues --    0.12591   0.13281   0.13593   0.13899   0.14531

  Beta  occ. eigenvalues --  -29.26521 -29.26150 -11.56423 -11.45872 -11.42306
  Beta  occ. eigenvalues --  -11.40309 -11.37381 -11.35491  -1.41181  -1.16213
  Beta  occ. eigenvalues --   -1.11663  -0.94773  -0.87484  -0.84642  -0.80370
  Beta  occ. eigenvalues --   -0.69322  -0.65946  -0.63213  -0.55796  -0.55198
  Beta  occ. eigenvalues --   -0.53842  -0.50220  -0.47509  -0.46508  -0.45443
  Beta  occ. eigenvalues --   -0.41969  -0.36298  -0.29253  -0.26567  -0.24218
  Beta  occ. eigenvalues --   -0.19705
  Beta virt. eigenvalues --    0.04184   0.05093   0.05346   0.05625   0.05748
  Beta virt. eigenvalues --    0.05800   0.06383   0.07351   0.08420   0.10251
  Beta virt. eigenvalues --    0.11126   0.12664   0.13405   0.13920   0.14247

 Mulliken charges and spin densities:
               1          2
     1  C    1.686667   0.000177
     2  C   -3.478436   0.004600
     3  C   -2.805210  -0.003007
     4  H    1.359428   0.000857
     5  H    1.313944   0.000944
     6  C   -3.213620   0.135982
     7  H    1.300768  -0.000427
     8  H    1.310984   0.000591
     9  C   -1.278073  -0.419294
    10  H    1.478253  -0.029423
    11  H    1.331626  -0.015871
    12  C   -3.505606   1.469301
    13  F    0.111797  -0.001474
    14  F    0.160305   0.002831
    15  H    1.337526  -0.060304
    16  H    1.327286  -0.071299
    17  H    1.562362  -0.014184
 Sum of Mulliken charges =   0.00000   1.00000

 Dipole moment (field-independent basis, Debye):
    X=              0.6354    Y=             -0.4571    Z=              0.4237  Tot=              0.8901
                          Isotropic Fermi Contact Couplings
        Atom                 a.u.       MegaHertz       Gauss      10(-4) cm-1
     1  C(13)              0.01663      18.69627       6.67129       6.23641
     2  C(13)             -0.00172      -1.93025      -0.68876      -0.64386
     3  C(13)              0.00027       0.29901       0.10670       0.09974
     4  H(1)               0.00023       1.04173       0.37171       0.34748
     5  H(1)               0.00004       0.18058       0.06444       0.06024
     6  C(13)              0.04759      53.50066      19.09036      17.84590
     7  H(1)               0.00053       2.35988       0.84207       0.78717
     8  H(1)              -0.00003      -0.14263      -0.05090      -0.04758

 Normal termination of Gaussian 16 at Wed Apr  9 02:06:50 2025.
