 Gaussian 16, Revision C.01,

 ----------------------------------------------------------------------
 #t hf aug-cc-pvdz symm=none int=(grid=ultrafine) guess=(read,tcheck) s
 table=(opt,rrhf)
 ----------------------------------------------------------------------
 -----
 title
 -----
 Symbolic Z-matrix:
 Charge =  1 Multiplicity = 1

 SCF Done:  E(RHF) =  -1454.38055821     A.U. after   17 cycles
 Normal termination of Gaussian 16 at Wed Apr  9 02:33:56 2025.
 Gaussian 16:  ES64L-G16RevC.01  3-Jul-2019

 ----------------------------------------------------------------------
 #t hf aug-cc-pvdz iop(5/13=1,5/36=2,99/5=2) pseudo=read geom=check gue
 ss=(read,tcheck) scf=(maxcycle=1)
 ----------------------------------------------------------------------
 -----
 title
 -----
 Structure from the checkpoint file:  "BH10_329_forward_mol1.chk"
 Charge =  1 Multiplicity = 1

                         Standard orientation:
 ---------------------------------------------------------------------
 Center     Atomic      Atomic             Coordinates (Angstroms)
 Number     Number       Type             X           Y           Z
 ---------------------------------------------------------------------
      1         16           0        3.258012   -1.901496   -0.247256
      2          6           0        3.296130   -2.328308    1.511134
      3          1           0        2.390930   -2.013626    2.028249
      4          1           0        3.391190   -3.411150    1.571964
      5          1           0        4.169948   -1.874280    1.976335
      6          6           0        3.380857   -0.086250   -0.235749
      7          6           0        1.016170   -2.420872   -0.918776
      8          1           0        0.775748   -2.665408    0.103026
      9          1           0        1.401154   -3.193165   -1.564722
     10          1           0        0.941149   -1.406351   -1.278486
     11          7           0       -0.918152   -2.765224   -1.427091
     12          6           0       -1.724530   -2.098564   -0.476851
     13          7           0       -1.974877   -2.740135    0.649856
     14          6           0       -2.703755   -2.115795    1.588836
     15          7           0       -3.212817   -0.894932    1.520027
     16          6           0       -2.931689   -0.275086    0.383579
     17          6           0       -2.171274   -0.802102   -0.667979
     18          7           0       -2.047647    0.118250   -1.686708
     19          6           0       -2.728411    1.151304   -1.256147
     20          7           0       -3.293738    0.978491   -0.026787
     21          1           0       -2.843749    2.078338   -1.797558
     22          6           0       -3.985841    1.981630    0.769915
     23          1           0       -4.478296    1.475097    1.596677
     24          1           0       -4.732926    2.485444    0.159263
     25          1           0       -3.265098    2.703271    1.153812
     26          1           0       -1.064171   -3.770237   -1.377981
     27          1           0       -1.058943   -2.415224   -2.371532
     28          6           0        2.411925    0.686230    0.644629
     29          1           0        3.260056    0.215214   -1.274947
     30          1           0        4.397459    0.159762    0.071433
     31          6           0        0.949646    0.713823    0.210306
     32          6           0        0.507175    2.078928    0.751822
     33          6           0        1.757460    2.952870    0.521589
     34          8           0        2.854778    2.044397    0.619360
     35          7           0        1.653769    3.625506   -0.740351
     36          1           0        1.875901    3.705257    1.300962
     37          8           0       -0.629879    2.595701    0.118243
     38          1           0        0.314105    1.986723    1.824023
     39          8           0        0.876382    0.662712   -1.201329
     40          1           0        0.374963   -0.103537    0.658749
     41          1           0       -0.045849    0.796130   -1.476606
     42          1           0       -0.292754    3.305699   -0.460199
     43          1           0        2.465981    0.323579    1.676839
     44          1           0        2.270570    4.423465   -0.812103
     45          1           0        1.819593    2.994015   -1.516807
     46          1           0       -2.894345   -2.678082    2.495050
 ---------------------------------------------------------------------

 SCF Done:  E(RHF) =  -1459.47686722     A.U. after    2 cycles

 The electronic state is 1-A.
 Alpha  occ. eigenvalues --  -75.82667 -21.18403 -21.17082 -21.15071 -15.93401
 Alpha  occ. eigenvalues --  -15.90085 -15.85566 -15.85482 -15.84947 -15.84188
 Alpha  occ. eigenvalues --  -13.33643 -13.29784 -13.25655 -11.66969 -11.64787
 Alpha  occ. eigenvalues --  -11.63403 -11.62471 -11.61879 -11.58516 -11.57996
 Alpha  occ. eigenvalues --  -11.56319 -11.56211 -11.52984 -11.52911 -11.51878
 Alpha  occ. eigenvalues --  -11.51086  -8.16808  -1.91401  -1.83251  -1.81771
 Alpha  occ. eigenvalues --   -1.74082  -1.61617  -1.52811  -1.44612  -1.43211
 Alpha  occ. eigenvalues --   -1.39205  -1.37925  -1.25950  -1.24081  -1.20783
 Alpha  occ. eigenvalues --   -1.18323  -1.15267  -1.11204  -1.05062  -1.02247
 Alpha  occ. eigenvalues --   -1.02005  -0.94975  -0.93965  -0.92623  -0.87165
 Alpha  occ. eigenvalues --   -0.86664  -0.82785  -0.80803  -0.79956  -0.78780
 Alpha  occ. eigenvalues --   -0.77816  -0.77049  -0.75217  -0.74807  -0.74485
 Alpha  occ. eigenvalues --   -0.73227  -0.72615  -0.72023  -0.71210  -0.70969
 Alpha  occ. eigenvalues --   -0.69940  -0.68617  -0.67615  -0.66671  -0.66167
 Alpha  occ. eigenvalues --   -0.65479  -0.64551  -0.63265  -0.62508  -0.60639
 Alpha  occ. eigenvalues --   -0.57124  -0.56558  -0.55741  -0.54371  -0.52354
 Alpha  occ. eigenvalues --   -0.51619  -0.51053  -0.47469  -0.46115  -0.46049
 Alpha  occ. eigenvalues --   -0.45551  -0.44910  -0.43297  -0.41276  -0.40181
 Alpha  occ. eigenvalues --   -0.36895
 Alpha virt. eigenvalues --   -0.06057  -0.05862  -0.04477  -0.04029  -0.03162
 Alpha virt. eigenvalues --   -0.03017  -0.02476  -0.02106  -0.01913  -0.01874
 Alpha virt. eigenvalues --   -0.01415  -0.01318  -0.01239  -0.00711  -0.00326

 Mulliken charges:
               1
     1  S    0.467165
     2  C   -5.250484
     3  H    1.757614
     4  H    1.372711
     5  H    1.451303
     6  C   -4.458238
     7  C   -5.924417
     8  H    2.100825
     9  H    1.377764
    10  H    3.061574
    11  N   -3.927999
    12  C    7.752881
    13  N   -4.533510
    14  C    0.060378
    15  N   -4.113617
    16  C    5.173961
    17  C    2.069762
    18  N   -3.808382
    19  C   -0.094165
    20  N   -4.058747
    21  H    2.121641
    22  C   -4.014531
    23  H    1.554390
    24  H    1.626810
    25  H    1.712066
    26  H    0.772918
    27  H    0.575695
    28  C    1.046600
    29  H    1.439134
    30  H    1.487234
    31  C    1.578394
    32  C   -0.657652
    33  C    1.506620
    34  O   -4.201314
    35  N   -2.901980
    36  H    2.053624
    37  O   -3.097545
    38  H    1.768933
    39  O   -4.526436
    40  H    3.055137
    41  H    1.780563
    42  H    0.725544
    43  H    2.029972
    44  H    0.651511
    45  H    0.565096
    46  H    1.871198
 Sum of Mulliken charges =   1.00000

 Dipole moment (field-independent basis, Debye):
    X=              3.0458    Y=             -3.1386    Z=             -2.5199  Tot=              5.0475

 Test job not archived.
 1\1\GINC-SE131\SP\RHF\Aug-CC-pVDZ\C13H23N6O3S1(1+)\OHZDE\09-Apr-2025\0
 \\#t hf aug-cc-pvdz iop(5/13=1,5/36=2,99/5=2) pseudo=read geom=check g
 uess=(read,tcheck) scf=(maxcycle=1)\\title\\1,1\S,0,3.258012,-1.901496
 ,-0.247256\C,0,3.29613,-2.328308,1.511134\H,0,2.39093,-2.013626,2.0282
 49\H,0,3.39119,-3.41115,1.571964\H,0,4.169948,-1.87428,1.976335\C,0,3.
 380857,-0.08625,-0.235749\C,0,1.01617,-2.420872,-0.918776\H,0,0.775748
 ,-2.665408,0.103026\H,0,1.401154,-3.193165,-1.564722\H,0,0.941149,-1.4
 06351,-1.278486\N,0,-0.918152,-2.765224,-1.427091\C,0,-1.72453,-2.0985

 Normal termination of Gaussian 16 at Wed Apr  9 02:36:21 2025.
