 Gaussian 16, Revision C.01,

 ----------------------------------------------------------------------
 #t hf aug-cc-pvdz symm=none int=(grid=ultrafine) guess=(read,tcheck) s
 table=opt
 ----------------------------------------------------------------------
 -----
 title
 -----
 Symbolic Z-matrix:
 Charge =  0 Multiplicity = 2

 SCF Done:  E(UHF) =  -515.188568228     A.U. after   17 cycles
 Normal termination of Gaussian 16 at Wed Apr  9 00:56:09 2025.
 Gaussian 16:  ES64L-G16RevC.01  3-Jul-2019

 ----------------------------------------------------------------------
 #t hf aug-cc-pvdz iop(5/13=1,5/36=2,99/5=2) pseudo=read geom=check gue
 ss=(read,tcheck) scf=(maxcycle=1)
 ----------------------------------------------------------------------
 -----
 title
 -----
 Structure from the checkpoint file:  "BH10_102_forward_mol3.chk"
 Charge =  0 Multiplicity = 2

                         Standard orientation:
 ---------------------------------------------------------------------
 Center     Atomic      Atomic             Coordinates (Angstroms)
 Number     Number       Type             X           Y           Z
 ---------------------------------------------------------------------
      1          6           0        0.383108    0.007994   -0.178738
      2          6           0        1.076546    1.309362    0.037367
      3          6           0        1.124880   -1.271719    0.010758
      4          1           0        2.088940    1.272544   -0.372309
      5          1           0        1.164677    1.553047    1.106881
      6          1           0        0.551522    2.140462   -0.440316
      7          1           0        2.091247   -1.227770   -0.498059
      8          1           0        0.572630   -2.125726   -0.386710
      9          1           0        1.328768   -1.477111    1.072470
     10         16           0       -1.353599   -0.099334    0.034739
     11          1           0       -1.647408    1.180077   -0.254098
 ---------------------------------------------------------------------

 SCF Done:  E(UHF) =  -516.005456507     A.U. after    2 cycles

 The electronic state is 2-A.
 Alpha  occ. eigenvalues --  -75.68950 -13.14112 -13.11331 -13.01283 -11.41513
 Alpha  occ. eigenvalues --  -11.38714 -11.36299  -8.03051  -1.27632  -1.06487
 Alpha  occ. eigenvalues --   -1.02152  -0.78998  -0.62181  -0.60983  -0.58771
 Alpha  occ. eigenvalues --   -0.54630  -0.49959  -0.46909  -0.40115  -0.35512
 Alpha  occ. eigenvalues --   -0.19701
 Alpha virt. eigenvalues --    0.02752   0.04958   0.05668   0.06182   0.06765
 Alpha virt. eigenvalues --    0.06989   0.07321   0.09930   0.11431   0.13743
 Alpha virt. eigenvalues --    0.14096   0.14654   0.15570   0.16022   0.17150

  Beta  occ. eigenvalues --  -75.68933 -13.14289 -13.11491 -13.00823 -11.40178
  Beta  occ. eigenvalues --  -11.38981 -11.35470  -8.03031  -1.24141  -1.06004
  Beta  occ. eigenvalues --   -1.02008  -0.73751  -0.60531  -0.58056  -0.57393
  Beta  occ. eigenvalues --   -0.53640  -0.49518  -0.46137  -0.36917  -0.27270
  Beta virt. eigenvalues --    0.02615   0.04988   0.05696   0.05981   0.06718
  Beta virt. eigenvalues --    0.06983   0.07342   0.09845   0.11121   0.11755
  Beta virt. eigenvalues --    0.13813   0.14593   0.14902   0.15771   0.16087

 Mulliken charges and spin densities:
               1          2
     1  C   -0.519442   1.529882
     2  C   -3.888451  -0.290597
     3  C   -3.932758  -0.353993
     4  H    1.309646   0.008730
     5  H    1.236584   0.038476
     6  H    1.169635   0.000358
     7  H    1.238518   0.012021
     8  H    1.354546   0.004733
     9  H    1.255695   0.031539
    10  S   -0.313770   0.027440
    11  H    1.089797  -0.008590
 Sum of Mulliken charges =   0.00000   1.00000

 Dipole moment (field-independent basis, Debye):
    X=              0.1278    Y=             -0.8519    Z=              0.2693  Tot=              0.9026
                          Isotropic Fermi Contact Couplings
        Atom                 a.u.       MegaHertz       Gauss      10(-4) cm-1
     1  C(13)              0.16457     185.00806      66.01548      61.71205
     2  C(13)             -0.02511     -28.22532     -10.07150      -9.41495
     3  C(13)             -0.03135     -35.24591     -12.57662     -11.75677
     4  H(1)               0.00379      16.95961       6.05161       5.65712
     5  H(1)               0.01724      77.05796      27.49620      25.70377
     6  H(1)               0.00566      25.29325       9.02526       8.43692
     7  H(1)               0.00639      28.57088      10.19480       9.53022
     8  H(1)               0.00381      17.03030       6.07683       5.68070

 Normal termination of Gaussian 16 at Wed Apr  9 00:56:12 2025.
