 Gaussian 16, Revision C.01,

 ----------------------------------------------------------------------
 #t hf aug-cc-pvdz symm=none int=(grid=ultrafine) guess=(read,tcheck) s
 table=(opt,rrhf)
 ----------------------------------------------------------------------
 -----
 title
 -----
 Symbolic Z-matrix:
 Charge = -1 Multiplicity = 1

 SCF Done:  E(RHF) =  -641.548289608     A.U. after   12 cycles
 Normal termination of Gaussian 16 at Wed Apr  9 01:41:07 2025.
 Gaussian 16:  ES64L-G16RevC.01  3-Jul-2019

 ----------------------------------------------------------------------
 #t hf aug-cc-pvdz iop(5/13=1,5/36=2,99/5=2) pseudo=read geom=check gue
 ss=(read,tcheck) scf=(maxcycle=1)
 ----------------------------------------------------------------------
 -----
 title
 -----
 Structure from the checkpoint file:  "BH10_326_forward_mol3.chk"
 Charge = -1 Multiplicity = 1

                         Standard orientation:
 ---------------------------------------------------------------------
 Center     Atomic      Atomic             Coordinates (Angstroms)
 Number     Number       Type             X           Y           Z
 ---------------------------------------------------------------------
      1          8           0       -0.862725    1.012782   -0.851613
      2         15           0        0.000000    0.000001   -0.174272
      3          8           0        0.862729   -1.012772   -0.851622
      4          8           0       -0.982838   -0.827898    0.884438
      5          8           0        0.982833    0.827886    0.884454
      6          1           0       -1.751640   -0.274344    1.044416
      7          1           0        1.751644    0.274338    1.044410
 ---------------------------------------------------------------------

 SCF Done:  E(RHF) =  -643.012597566     A.U. after    2 cycles

 The electronic state is 1-A.
 Alpha  occ. eigenvalues -- -105.09405 -20.90721 -20.90689 -20.81188 -20.81158
 Alpha  occ. eigenvalues --   -2.72369  -1.78248  -1.66613  -1.64267  -1.49294
 Alpha  occ. eigenvalues --   -1.20706  -1.12539  -0.99013  -0.46914  -0.40024
 Alpha  occ. eigenvalues --   -0.34326  -0.26456  -0.19109  -0.16708  -0.14894
 Alpha  occ. eigenvalues --   -0.14399  -0.12208  -0.08607  -0.03434   0.07088
 Alpha virt. eigenvalues --    0.15028   0.16859   0.23405   0.23559   0.24984
 Alpha virt. eigenvalues --    0.27616   0.34221   0.35232   0.35724   0.36152
 Alpha virt. eigenvalues --    0.36607   0.40306   0.41412   0.41542   0.42225

 Mulliken charges:
               1
     1  O   -2.699252
     2  P    7.807855
     3  O   -2.699252
     4  O   -2.562220
     5  O   -2.562219
     6  H    0.857544
     7  H    0.857544
 Sum of Mulliken charges =  -1.00000

 Dipole moment (field-independent basis, Debye):
    X=             -0.0000    Y=             -0.0000    Z=              3.4442  Tot=              3.4442

 Test job not archived.
 1\1\GINC-SE173\SP\RHF\Aug-CC-pVDZ\H2O4P1(1-)\OHZDE\09-Apr-2025\0\\#t h
 f aug-cc-pvdz iop(5/13=1,5/36=2,99/5=2) pseudo=read geom=check guess=(
 read,tcheck) scf=(maxcycle=1)\\title\\-1,1\O,0,0.862725,-1.012782,-0.8
 51613\P,0,0.,-0.000001,-0.174272\O,0,-0.862729,1.012772,-0.851622\O,0,
 0.982838,0.827898,0.884438\O,0,-0.982833,-0.827886,0.884454\H,0,1.7516
 4,0.274344,1.044416\H,0,-1.751644,-0.274337,1.04441\\Version=ES64L-G16
 RevC.01\State=1-A\HF=-643.0125976\RMSD=1.138e-01\Dipole=0.0000028,0.00
 00064,1.3550377\Quadrupole=2.4404926,-3.2078447,0.7673521,4.8511455,-0

 Normal termination of Gaussian 16 at Wed Apr  9 01:41:09 2025.
