 Gaussian 16, Revision C.01,

 ----------------------------------------------------------------------
 #t hf aug-cc-pvdz symm=none int=(grid=ultrafine) guess=(read,tcheck) s
 table=(opt,rrhf)
 ----------------------------------------------------------------------
 -----
 title
 -----
 Symbolic Z-matrix:
 Charge =  0 Multiplicity = 1

 SCF Done:  E(RHF) =  -1125.16353989     A.U. after   16 cycles
 Normal termination of Gaussian 16 at Wed Apr  9 02:15:12 2025.
 Gaussian 16:  ES64L-G16RevC.01  3-Jul-2019

 ----------------------------------------------------------------------
 #t hf aug-cc-pvdz iop(5/13=1,5/36=2,99/5=2) pseudo=read geom=check gue
 ss=(read,tcheck) scf=(maxcycle=1)
 ----------------------------------------------------------------------
 -----
 title
 -----
 Structure from the checkpoint file:  "BH10_296_forward_mol1.chk"
 Charge =  0 Multiplicity = 1

                         Standard orientation:
 ---------------------------------------------------------------------
 Center     Atomic      Atomic             Coordinates (Angstroms)
 Number     Number       Type             X           Y           Z
 ---------------------------------------------------------------------
      1          6           0        0.128961   -3.006560   -0.081461
      2          6           0       -0.113072   -1.870068    0.931470
      3          6           0        2.190256   -0.596158   -0.694610
      4          1           0       -0.550166   -2.880268   -0.933932
      5          6           0        0.943960   -1.825309    2.059530
      6          1           0        0.428518   -1.661501    3.011038
      7          1           0        1.437439   -2.798035    2.161014
      8          1           0        2.880652   -0.029820   -1.328882
      9          1           0       -1.072633   -2.108892    1.411099
     10          1           0       -0.634328    0.371892    1.201870
     11          6           0        1.996086   -0.717131    1.937285
     12          1           0        1.485690    0.245742    2.020828
     13          1           0        2.658173   -0.772946    2.808195
     14          6           0        2.880432   -0.680957    0.687131
     15          1           0        3.536137    0.188490    0.798386
     16          1           0        3.551049   -1.547226    0.688916
     17          6           0        2.106657   -1.968272   -1.394018
     18          1           0        1.521556   -1.847554   -2.313204
     19          6           0        1.556349   -3.146955   -0.599086
     20          1           0        1.606897   -4.036296   -1.236279
     21          1           0        2.224786   -3.356731    0.240952
     22          1           0        3.119654   -2.237077   -1.715736
     23          1           0       -0.147399   -3.959892    0.385548
     24          6           0        0.838690    0.166220   -0.710263
     25          1           0        0.435463   -0.002690   -1.720560
     26         14           0        1.020309    2.041020   -0.726279
     27          6           0        1.611372    2.788494    0.897303
     28          1           0        1.715455    3.872476    0.794143
     29          1           0        0.905226    2.600625    1.706729
     30          1           0        2.583381    2.390881    1.197031
     31          6           0       -0.638097    2.817946   -1.175388
     32          1           0       -1.007544    2.425990   -2.127038
     33          1           0       -1.399551    2.632694   -0.416244
     34          1           0       -0.539282    3.901669   -1.282364
     35          6           0        2.254346    2.551595   -2.058789
     36          1           0        1.997803    2.115692   -3.028311
     37          1           0        2.265849    3.638676   -2.177124
     38          1           0        3.272908    2.239351   -1.816065
     39          5           0       -0.295711   -0.425153    0.269131
     40          6           0       -1.996238    1.154156    1.806350
     41          6           0       -2.982287    0.546302    1.128211
     42          1           0       -3.954074    0.426877    1.588169
     43          6           0       -1.541974    2.031500    2.662659
     44          1           0       -0.684673    1.836950    3.291558
     45          1           0       -2.009797    3.008004    2.712109
     46          6           0       -2.769776   -0.126345   -0.105964
     47          8           0       -1.658496   -0.472460   -0.565852
     48          8           0       -3.856939   -0.479859   -0.758471
     49          6           0       -3.687072   -1.290491   -1.932907
     50          1           0       -3.084915   -0.761841   -2.670110
     51          1           0       -3.203943   -2.231315   -1.673404
     52          1           0       -4.692163   -1.461699   -2.306200
 ---------------------------------------------------------------------

 SCF Done:  E(RHF) =  -1129.46810646     A.U. after    2 cycles

 The electronic state is 1-A.
 Alpha  occ. eigenvalues --  -76.15658 -21.12722 -21.08505 -11.59834 -11.51935
 Alpha  occ. eigenvalues --  -11.45603 -11.44761 -11.44414 -11.44093 -11.43539
 Alpha  occ. eigenvalues --  -11.41880 -11.40700 -11.40136 -11.35870 -11.35203
 Alpha  occ. eigenvalues --  -11.34223 -11.34049 -11.33054 -11.32830 -11.32567
 Alpha  occ. eigenvalues --   -7.58867  -5.49910  -2.14910  -2.13958  -2.13757
 Alpha  occ. eigenvalues --   -1.91269  -1.75215  -1.30872  -1.24297  -1.17226
 Alpha  occ. eigenvalues --   -1.15380  -1.10857  -1.07343  -1.04483  -1.02208
 Alpha  occ. eigenvalues --   -0.99287  -0.98984  -0.96231  -0.91994  -0.88237
 Alpha  occ. eigenvalues --   -0.82237  -0.81552  -0.75389  -0.74009  -0.72401
 Alpha  occ. eigenvalues --   -0.68543  -0.66745  -0.65498  -0.64168  -0.62953
 Alpha  occ. eigenvalues --   -0.62529  -0.62032  -0.59434  -0.58445  -0.57310
 Alpha  occ. eigenvalues --   -0.56277  -0.56159  -0.55902  -0.55317  -0.55113
 Alpha  occ. eigenvalues --   -0.54819  -0.53959  -0.53394  -0.52398  -0.51976
 Alpha  occ. eigenvalues --   -0.51479  -0.47990  -0.46664  -0.45795  -0.44409
 Alpha  occ. eigenvalues --   -0.44022  -0.43233  -0.42204  -0.40783  -0.40085
 Alpha  occ. eigenvalues --   -0.38607  -0.38072  -0.37104  -0.36937  -0.35617
 Alpha  occ. eigenvalues --   -0.34535  -0.33824  -0.30178  -0.26389
 Alpha virt. eigenvalues --    0.03447   0.04113   0.04508   0.04710   0.04946
 Alpha virt. eigenvalues --    0.05424   0.05465   0.05537   0.05933   0.05991
 Alpha virt. eigenvalues --    0.06054   0.06212   0.06504   0.06614   0.06797

 Mulliken charges:
               1
     1  C   -4.747510
     2  C   -5.324345
     3  C    1.016490
     4  H    1.006619
     5  C   -4.790883
     6  H    1.014197
     7  H    1.539340
     8  H    1.863184
     9  H    0.384610
    10  H  -12.440141
    11  C   -4.432015
    12  H    1.304015
    13  H    1.699345
    14  C   -4.701573
    15  H    1.348883
    16  H    1.369116
    17  C   -4.519173
    18  H    1.345099
    19  C   -2.985874
    20  H    1.437027
    21  H    1.528030
    22  H    1.211815
    23  H    1.460265
    24  C   -9.637111
    25  H    2.018108
    26  Si  14.440483
    27  C   -7.114959
    28  H    0.833852
    29  H    1.686962
    30  H    1.012890
    31  C   -7.009227
    32  H    0.804109
    33  H    1.441777
    34  H    1.077734
    35  C   -7.028219
    36  H    0.724838
    37  H    1.023375
    38  H    1.083847
    39  B   33.924038
    40  C    4.858922
    41  C   -2.956136
    42  H    1.467705
    43  C   -6.589912
    44  H    1.508783
    45  H    1.092643
    46  C    6.270193
    47  O   -6.597469
    48  O   -4.398770
    49  C   -4.334228
    50  H    1.758038
    51  H    1.600612
    52  H    1.450603
 Sum of Mulliken charges =   0.00000

 Dipole moment (field-independent basis, Debye):
    X=             -3.5806    Y=             -0.7526    Z=             -1.3406  Tot=              3.8967

 Test job not archived.
 1\1\GINC-SE344\SP\RHF\Aug-CC-pVDZ\C17H31B1O2Si1\OHZDE\09-Apr-2025\0\\#
 t hf aug-cc-pvdz iop(5/13=1,5/36=2,99/5=2) pseudo=read geom=check gues
 s=(read,tcheck) scf=(maxcycle=1)\\title\\0,1\C,0,0.128961,-3.00656,-0.
 081461\C,0,-0.113072,-1.870068,0.93147\C,0,2.190256,-0.596158,-0.69461
 \H,0,-0.550166,-2.880268,-0.933932\C,0,0.94396,-1.825309,2.05953\H,0,0
 .428518,-1.661501,3.011038\H,0,1.437439,-2.798035,2.161014\H,0,2.88065
 2,-0.02982,-1.328882\H,0,-1.072633,-2.108892,1.411099\H,0,-0.634328,0.
 371892,1.20187\C,0,1.996086,-0.717131,1.937285\H,0,1.48569,0.245742,2.

 Normal termination of Gaussian 16 at Wed Apr  9 02:18:12 2025.
