 Gaussian 16, Revision C.01,

 ----------------------------------------------------------------------
 #t hf aug-cc-pvdz symm=none int=(grid=ultrafine) guess=(read,tcheck) s
 table=(opt,rrhf)
 ----------------------------------------------------------------------
 -----
 title
 -----
 Symbolic Z-matrix:
 Charge =  0 Multiplicity = 1

 SCF Done:  E(RHF) =  -893.860482963     A.U. after   16 cycles
 Normal termination of Gaussian 16 at Wed Apr  9 02:14:40 2025.
 Gaussian 16:  ES64L-G16RevC.01  3-Jul-2019

 ----------------------------------------------------------------------
 #t hf aug-cc-pvdz iop(5/13=1,5/36=2,99/5=2) pseudo=read geom=check gue
 ss=(read,tcheck) scf=(maxcycle=1)
 ----------------------------------------------------------------------
 -----
 title
 -----
 Structure from the checkpoint file:  "BH10_91_reverse_mol2.chk"
 Charge =  0 Multiplicity = 1

                         Standard orientation:
 ---------------------------------------------------------------------
 Center     Atomic      Atomic             Coordinates (Angstroms)
 Number     Number       Type             X           Y           Z
 ---------------------------------------------------------------------
      1          6           0        0.517417   -1.137942    0.020451
      2          6           0        0.422160   -0.644457    1.440712
      3          6           0        0.877001    1.211003    0.106076
      4          6           0        0.618282    0.669283    1.486490
      5         16           0        1.943324   -0.130401   -0.657067
      6          6           0       -2.525035    0.579103    0.369694
      7          6           0       -0.624640   -0.501441   -0.813979
      8          6           0       -0.375673    1.031207   -0.783796
      9          6           0       -1.675951    1.689361   -0.257156
     10          1           0       -2.402094    0.534857    1.455096
     11          1           0       -2.211419    2.141300   -1.093606
     12          1           0       -1.458912    2.492163    0.448401
     13          1           0       -3.593335    0.661784    0.169147
     14          8           0        3.183509   -0.354850    0.140365
     15          6           0       -1.991431   -0.730285   -0.176810
     16          8           0       -2.540488   -1.796715   -0.112860
     17          1           0        0.579563    1.288519    2.371819
     18          1           0        0.187099   -1.288856    2.276106
     19          1           0        0.647056   -2.205988   -0.124397
     20          1           0       -0.635920   -0.917131   -1.822412
     21          1           0        1.345293    2.189952    0.043675
     22          1           0       -0.147464    1.407346   -1.780890
 ---------------------------------------------------------------------

 SCF Done:  E(RHF) =  -896.410861499     A.U. after    2 cycles

 The electronic state is 1-A.
 Alpha  occ. eigenvalues --  -75.78668 -21.06505 -21.00729 -13.35979 -13.25828
 Alpha  occ. eigenvalues --  -13.21490 -11.55684 -11.52406 -11.49611 -11.46551
 Alpha  occ. eigenvalues --  -11.45502 -11.44719 -11.42114 -11.40127 -11.38550
 Alpha  occ. eigenvalues --   -8.12903  -1.72558  -1.69079  -1.44248  -1.25098
 Alpha  occ. eigenvalues --   -1.13215  -1.10879  -1.03901  -0.98772  -0.86711
 Alpha  occ. eigenvalues --   -0.85811  -0.79408  -0.75875  -0.74057  -0.68582
 Alpha  occ. eigenvalues --   -0.63440  -0.61950  -0.59593  -0.56963  -0.54192
 Alpha  occ. eigenvalues --   -0.53630  -0.52729  -0.49904  -0.47832  -0.47731
 Alpha  occ. eigenvalues --   -0.45481  -0.44552  -0.41723  -0.37783  -0.34665
 Alpha  occ. eigenvalues --   -0.31774  -0.27881  -0.25932
 Alpha virt. eigenvalues --    0.03061   0.03726   0.04038   0.04640   0.05063
 Alpha virt. eigenvalues --    0.05465   0.06127   0.06320   0.07158   0.08066
 Alpha virt. eigenvalues --    0.08876   0.09812   0.10511   0.11574   0.12060

 Mulliken charges:
               1
     1  C   -3.159439
     2  C   -1.038580
     3  C   -3.663715
     4  C   -0.426081
     5  S    3.381406
     6  C   -3.740666
     7  C   -1.938919
     8  C    0.421375
     9  C   -3.455684
    10  H    1.585396
    11  H    1.242173
    12  H    1.459872
    13  H    1.293217
    14  O   -2.517756
    15  C    5.147920
    16  O   -3.852806
    17  H    1.521294
    18  H    1.516547
    19  H    1.531428
    20  H    1.526381
    21  H    1.581334
    22  H    1.585306
 Sum of Mulliken charges =   0.00000

 Dipole moment (field-independent basis, Debye):
    X=             -0.9732    Y=              1.7465    Z=             -0.5460  Tot=              2.0726

 Test job not archived.
 1\1\GINC-SE273\SP\RHF\Aug-CC-pVDZ\C9H10O2S1\OHZDE\09-Apr-2025\0\\#t hf
  aug-cc-pvdz iop(5/13=1,5/36=2,99/5=2) pseudo=read geom=check guess=(r
 ead,tcheck) scf=(maxcycle=1)\\title\\0,1\C,0,0.517417,-1.137942,0.0204
 51\C,0,0.42216,-0.644457,1.440712\C,0,0.877001,1.211003,0.106076\C,0,0
 .618282,0.669283,1.48649\S,0,1.943324,-0.130401,-0.657067\C,0,-2.52503
 5,0.579103,0.369694\C,0,-0.62464,-0.501441,-0.813979\C,0,-0.375673,1.0
 31207,-0.783796\C,0,-1.675951,1.689361,-0.257156\H,0,-2.402094,0.53485
 7,1.455096\H,0,-2.211419,2.1413,-1.093606\H,0,-1.458912,2.492163,0.448

 Normal termination of Gaussian 16 at Wed Apr  9 02:15:00 2025.
