 Gaussian 16, Revision C.01,

 ----------------------------------------------------------------------
 #t hf aug-cc-pvdz symm=none int=(grid=ultrafine) guess=(read,tcheck) s
 table=(opt,rrhf)
 ----------------------------------------------------------------------
 -----
 title
 -----
 Symbolic Z-matrix:
 Charge =  0 Multiplicity = 1

 SCF Done:  E(RHF) =  -1437.74828837     A.U. after   14 cycles
 Normal termination of Gaussian 16 at Wed Apr  9 01:49:51 2025.
 Gaussian 16:  ES64L-G16RevC.01  3-Jul-2019

 ----------------------------------------------------------------------
 #t hf aug-cc-pvdz iop(5/13=1,5/36=2,99/5=2) pseudo=read geom=check gue
 ss=(read,tcheck) scf=(maxcycle=1)
 ----------------------------------------------------------------------
 -----
 title
 -----
 Structure from the checkpoint file:  "BH10_327_forward_mol2.chk"
 Charge =  0 Multiplicity = 1

                         Standard orientation:
 ---------------------------------------------------------------------
 Center     Atomic      Atomic             Coordinates (Angstroms)
 Number     Number       Type             X           Y           Z
 ---------------------------------------------------------------------
      1         16           0        1.154888    1.738283    0.711320
      2          6           0        2.382526    0.793642   -0.279008
      3          6           0        2.685554   -0.596752    0.312875
      4          1           0        3.305006    1.373942   -0.321064
      5          1           0        1.992381    0.689390   -1.290498
      6          7           0        3.640843   -1.354823   -0.476373
      7          6           0        1.400401   -1.393491    0.447147
      8          1           0        3.078602   -0.489096    1.324147
      9          8           0        0.862634   -1.647871    1.491786
     10          8           0        0.901671   -1.716965   -0.746775
     11         16           0       -0.265786    2.325069   -0.678486
     12          6           0       -1.216577    0.796066   -0.979577
     13          6           0       -1.780842    0.124177    0.269646
     14          1           0       -0.594051    0.091105   -1.524069
     15          1           0       -2.025567    1.115105   -1.643789
     16          7           0       -2.786294    0.948820    0.936128
     17          6           0       -2.413360   -1.202626   -0.165297
     18          1           0       -0.955473   -0.132473    0.937399
     19          8           0       -1.767477   -2.120344   -0.615182
     20          8           0       -3.723065   -1.250986   -0.034063
     21          1           0       -0.011006   -2.085744   -0.647085
     22          1           0       -3.971955   -0.380069    0.357409
     23          1           0        4.538022   -0.890215   -0.534646
     24          1           0        3.292845   -1.533014   -1.411078
     25          1           0       -2.687303    0.910381    1.943569
     26          1           0       -2.705268    1.922310    0.665238
 ---------------------------------------------------------------------

 SCF Done:  E(RHF) =  -1441.03345261     A.U. after    2 cycles

 The electronic state is 1-A.
 Alpha  occ. eigenvalues --  -75.72425 -75.71734 -21.12377 -21.10099 -21.05921
 Alpha  occ. eigenvalues --  -21.04770 -15.77475 -15.74990 -13.20109 -13.16961
 Alpha  occ. eigenvalues --  -13.14054 -13.13609 -13.10268 -13.09394 -11.55031
 Alpha  occ. eigenvalues --  -11.54302 -11.48707 -11.47114 -11.43187 -11.41878
 Alpha  occ. eigenvalues --   -8.06330  -8.05684  -1.84659  -1.82486  -1.67696
 Alpha  occ. eigenvalues --   -1.65120  -1.40267  -1.37692  -1.26346  -1.17020
 Alpha  occ. eigenvalues --   -1.08651  -1.01665  -0.94770  -0.88222  -0.81445
 Alpha  occ. eigenvalues --   -0.78701  -0.73586  -0.72162  -0.68388  -0.66053
 Alpha  occ. eigenvalues --   -0.64472  -0.62040  -0.61762  -0.59444  -0.59147
 Alpha  occ. eigenvalues --   -0.58218  -0.53888  -0.52451  -0.51972  -0.50843
 Alpha  occ. eigenvalues --   -0.49934  -0.48575  -0.43504  -0.42721  -0.41064
 Alpha  occ. eigenvalues --   -0.37565  -0.35558  -0.34585  -0.33614  -0.30262
 Alpha  occ. eigenvalues --   -0.28836  -0.26890  -0.24161
 Alpha virt. eigenvalues --    0.02914   0.03480   0.03613   0.04237   0.05328
 Alpha virt. eigenvalues --    0.05866   0.06428   0.07072   0.07519   0.08374
 Alpha virt. eigenvalues --    0.08680   0.09168   0.09493   0.10403   0.11046

 Mulliken charges:
               1
     1  S   -0.326971
     2  C   -3.633585
     3  C   -0.767549
     4  H    1.339521
     5  H    1.806868
     6  N   -3.104794
     7  C    7.707268
     8  H    1.695435
     9  O   -3.782299
    10  O   -3.705125
    11  S   -0.007812
    12  C   -3.780826
    13  C   -0.572191
    14  H    1.855545
    15  H    1.319803
    16  N   -3.557788
    17  C    6.831764
    18  H    2.449183
    19  O   -3.516428
    20  O   -3.407944
    21  H    1.642905
    22  H    1.005582
    23  H    0.603011
    24  H    0.557371
    25  H    0.580771
    26  H    0.768285
 Sum of Mulliken charges =  -0.00000

 Dipole moment (field-independent basis, Debye):
    X=              0.1588    Y=              4.3888    Z=              0.2198  Tot=              4.3972

 Test job not archived.
 1\1\GINC-SE116\SP\RHF\Aug-CC-pVDZ\C6H12N2O4S2\OHZDE\09-Apr-2025\0\\#t
 hf aug-cc-pvdz iop(5/13=1,5/36=2,99/5=2) pseudo=read geom=check guess=
 (read,tcheck) scf=(maxcycle=1)\\title\\0,1\S,0,1.154888,1.738283,0.711
 32\C,0,2.382526,0.793642,-0.279008\C,0,2.685554,-0.596752,0.312875\H,0
 ,3.305006,1.373942,-0.321064\H,0,1.992381,0.68939,-1.290498\N,0,3.6408
 43,-1.354823,-0.476373\C,0,1.400401,-1.393491,0.447147\H,0,3.078602,-0
 .489096,1.324147\O,0,0.862634,-1.647871,1.491786\O,0,0.901671,-1.71696
 5,-0.746775\S,0,-0.265786,2.325069,-0.678486\C,0,-1.216577,0.796066,-0

 Normal termination of Gaussian 16 at Wed Apr  9 01:50:19 2025.
