 Gaussian 16, Revision C.01,

 ----------------------------------------------------------------------
 #t hf aug-cc-pvdz symm=none int=(grid=ultrafine) guess=(read,tcheck) s
 table=(opt,rrhf)
 ----------------------------------------------------------------------
 -----
 title
 -----
 Symbolic Z-matrix:
 Charge =  0 Multiplicity = 1

 SCF Done:  E(RHF) =  -1155.61176108     A.U. after   15 cycles
 Normal termination of Gaussian 16 at Wed Apr  9 03:12:47 2025.
 Gaussian 16:  ES64L-G16RevC.01  3-Jul-2019

 ----------------------------------------------------------------------
 #t hf aug-cc-pvdz iop(5/13=1,5/36=2,99/5=2) pseudo=read geom=check gue
 ss=(read,tcheck) scf=(maxcycle=1)
 ----------------------------------------------------------------------
 -----
 title
 -----
 Structure from the checkpoint file:  "BH10_401_reverse_mol2.chk"
 Charge =  0 Multiplicity = 1

                         Standard orientation:
 ---------------------------------------------------------------------
 Center     Atomic      Atomic             Coordinates (Angstroms)
 Number     Number       Type             X           Y           Z
 ---------------------------------------------------------------------
      1          6           0       -0.288069   -2.561065    0.162216
      2          1           0       -0.459806   -3.176339   -0.744858
      3          6           0        0.985207   -1.791261   -0.001450
      4          6           0       -0.284057    0.310431   -0.229357
      5          1           0       -0.476904    0.879251    0.685973
      6          1           0       -0.194689    1.036861   -1.038633
      7          6           0       -1.481342   -0.600092   -0.499148
      8          1           0       -1.382892   -0.991827   -1.531078
      9          7           0       -1.425849   -1.710278    0.443635
     10          6           0        2.298408    0.263500   -0.140547
     11          6           0        2.270083   -2.569684    0.040912
     12          6           0        3.400277   -0.432402   -0.457251
     13          6           0        3.350625   -1.899124   -0.801327
     14          6           0        1.002524   -0.461104   -0.122892
     15          6           0        4.706944   -2.577430   -0.647279
     16          1           0        4.656392   -3.630653   -0.933197
     17          1           0        5.462182   -2.096211   -1.273302
     18          1           0        5.050090   -2.526704    0.389781
     19          6           0       -2.662995   -2.461191    0.519032
     20          1           0       -2.971917   -2.832473   -0.475778
     21          1           0       -2.495976   -3.335571    1.152015
     22          6           0       -2.791014    0.161608   -0.427355
     23          6           0       -3.861459   -0.291183    0.342909
     24          6           0       -3.748912   -1.582570    1.108621
     25          1           0       -3.503963   -1.374077    2.154545
     26          1           0       -4.708929   -2.105052    1.096468
     27          1           0       -0.170016   -3.267896    0.991731
     28          6           0       -5.040952    0.450613    0.378642
     29          1           0       -5.869551    0.089746    0.979030
     30          6           0       -2.939987    1.335339   -1.166786
     31          1           0       -2.124273    1.683501   -1.789332
     32          6           0       -5.172944    1.624363   -0.341883
     33          1           0       -6.097923    2.186935   -0.302533
     34          6           0       -4.114926    2.065650   -1.126690
     35          1           0       -4.206838    2.974964   -1.708327
     36         14           0        2.468291    2.068890    0.382352
     37          6           0        1.877828    2.253319    2.156763
     38          1           0        2.461208    1.616223    2.825837
     39          1           0        1.985469    3.286453    2.498145
     40          1           0        0.827890    1.975401    2.269256
     41          6           0        4.278177    2.563843    0.290473
     42          1           0        4.670322    2.493624   -0.726878
     43          1           0        4.389666    3.602244    0.613793
     44          1           0        4.905723    1.948663    0.938907
     45          6           0        1.492639    3.240199   -0.722427
     46          1           0        1.679612    3.038572   -1.780116
     47          1           0        0.417153    3.175945   -0.550127
     48          1           0        1.794563    4.272521   -0.524597
     49          1           0        2.104822   -3.594455   -0.306084
     50          1           0        2.611642   -2.645973    1.084500
     51          1           0        3.042251   -1.975382   -1.855273
     52          1           0        4.373218    0.048638   -0.489292
 ---------------------------------------------------------------------

 SCF Done:  E(RHF) =  -1160.09457798     A.U. after    2 cycles

 The electronic state is 1-A.
 Alpha  occ. eigenvalues --  -76.17757 -15.69957 -11.52323 -11.50859 -11.49295
 Alpha  occ. eigenvalues --  -11.46783 -11.45792 -11.45473 -11.44900 -11.44086
 Alpha  occ. eigenvalues --  -11.43368 -11.43067 -11.41068 -11.40880 -11.40430
 Alpha  occ. eigenvalues --  -11.39712 -11.38437 -11.38332 -11.35700 -11.34973
 Alpha  occ. eigenvalues --  -11.34300 -11.34130 -11.33813  -5.51985  -2.17177
 Alpha  occ. eigenvalues --   -2.16377  -2.15673  -1.49438  -1.34838  -1.31894
 Alpha  occ. eigenvalues --   -1.20986  -1.16370  -1.13680  -1.10412  -1.06864
 Alpha  occ. eigenvalues --   -1.06090  -1.03907  -1.00300  -1.00133  -0.99799
 Alpha  occ. eigenvalues --   -0.93470  -0.90659  -0.87849  -0.85301  -0.84567
 Alpha  occ. eigenvalues --   -0.79639  -0.76739  -0.70077  -0.68907  -0.67613
 Alpha  occ. eigenvalues --   -0.65733  -0.64019  -0.63608  -0.63188  -0.60893
 Alpha  occ. eigenvalues --   -0.60041  -0.58412  -0.57538  -0.57243  -0.55990
 Alpha  occ. eigenvalues --   -0.55824  -0.55499  -0.54744  -0.54601  -0.54015
 Alpha  occ. eigenvalues --   -0.53432  -0.52817  -0.52375  -0.52139  -0.51552
 Alpha  occ. eigenvalues --   -0.50853  -0.49229  -0.47955  -0.47448  -0.46987
 Alpha  occ. eigenvalues --   -0.45858  -0.44433  -0.42199  -0.40816  -0.39601
 Alpha  occ. eigenvalues --   -0.38302  -0.37242  -0.35969  -0.34201  -0.32481
 Alpha  occ. eigenvalues --   -0.31290  -0.29964  -0.27668
 Alpha virt. eigenvalues --    0.03695   0.04123   0.04246   0.04601   0.05115
 Alpha virt. eigenvalues --    0.05129   0.05311   0.05454   0.05678   0.05910
 Alpha virt. eigenvalues --    0.06222   0.06447   0.06696   0.06730   0.06994

 Mulliken charges:
               1
     1  C   -4.079858
     2  H    1.093785
     3  C    4.504577
     4  C   -4.556542
     5  H    1.128294
     6  H    1.490194
     7  C   -5.042720
     8  H    1.584497
     9  N   -2.449319
    10  C   -2.449461
    11  C   -5.752249
    12  C   -0.546129
    13  C   -3.440167
    14  C    7.899462
    15  C   -5.385141
    16  H    1.296320
    17  H    1.319867
    18  H    1.315741
    19  C   -5.243595
    20  H    1.715886
    21  H    1.586336
    22  C    8.702321
    23  C    4.175562
    24  C   -5.929227
    25  H    0.959026
    26  H    0.996976
    27  H    1.092749
    28  C   -3.396773
    29  H    1.826704
    30  C   -2.462038
    31  H    2.159121
    32  C   -2.736064
    33  H    1.587920
    34  C   -3.359522
    35  H    1.649771
    36  Si  12.882301
    37  C   -6.493355
    38  H    0.809504
    39  H    0.958314
    40  H    1.264236
    41  C   -6.745259
    42  H    1.143486
    43  H    0.964036
    44  H    1.178890
    45  C   -6.374207
    46  H    0.767582
    47  H    1.376629
    48  H    1.013632
    49  H    1.249076
    50  H    1.088068
    51  H    1.704900
    52  H    1.955861
 Sum of Mulliken charges =  -0.00000

 Dipole moment (field-independent basis, Debye):
    X=              0.2134    Y=             -1.0309    Z=             -0.1019  Tot=              1.0577

 Test job not archived.
 1\1\GINC-SE363\SP\RHF\Aug-CC-pVDZ\C21H29N1Si1\OHZDE\09-Apr-2025\0\\#t
 hf aug-cc-pvdz iop(5/13=1,5/36=2,99/5=2) pseudo=read geom=check guess=
 (read,tcheck) scf=(maxcycle=1)\\title\\0,1\C,0,-0.288069,-2.561065,0.1
 62216\H,0,-0.459806,-3.176339,-0.744858\C,0,0.985207,-1.791261,-0.0014
 5\C,0,-0.284057,0.310431,-0.229357\H,0,-0.476904,0.879251,0.685973\H,0
 ,-0.194689,1.036861,-1.038633\C,0,-1.481342,-0.600092,-0.499148\H,0,-1
 .382892,-0.991827,-1.531078\N,0,-1.425849,-1.710278,0.443635\C,0,2.298
 408,0.2635,-0.140547\C,0,2.270083,-2.569684,0.040912\C,0,3.400277,-0.4

 Normal termination of Gaussian 16 at Wed Apr  9 03:15:46 2025.
