 Gaussian 16, Revision C.01,

 ----------------------------------------------------------------------
 #t hf aug-cc-pvdz symm=none int=(grid=ultrafine) guess=(read,tcheck) s
 table=(opt,rrhf)
 ----------------------------------------------------------------------
 -----
 title
 -----
 Symbolic Z-matrix:
 Charge =  0 Multiplicity = 1

 SCF Done:  E(RHF) =  -730.880638027     A.U. after   16 cycles
 Normal termination of Gaussian 16 at Wed Apr  9 01:11:14 2025.
 Gaussian 16:  ES64L-G16RevC.01  3-Jul-2019

 ----------------------------------------------------------------------
 #t hf aug-cc-pvdz iop(5/13=1,5/36=2,99/5=2) pseudo=read geom=check gue
 ss=(read,tcheck) scf=(maxcycle=1)
 ----------------------------------------------------------------------
 -----
 title
 -----
 Structure from the checkpoint file:  "BH10_267_forward_mol2.chk"
 Charge =  0 Multiplicity = 1

                         Standard orientation:
 ---------------------------------------------------------------------
 Center     Atomic      Atomic             Coordinates (Angstroms)
 Number     Number       Type             X           Y           Z
 ---------------------------------------------------------------------
      1          6           0       -2.518899    1.293054    0.108455
      2          6           0       -3.654872    0.551141    0.394266
      3          6           0       -3.637593   -0.828040    0.235813
      4          6           0       -2.482938   -1.459421   -0.210153
      5          6           0       -1.343465   -0.717292   -0.475264
      6          6           0       -1.345811    0.664947   -0.305011
      7          1           0       -2.533489    2.372426    0.215345
      8          1           0       -4.556049    1.048257    0.732048
      9          1           0       -4.526477   -1.409905    0.447603
     10          1           0       -2.474427   -2.532818   -0.356505
     11          1           0       -0.452267   -1.208270   -0.841533
     12          6           0       -0.149808    1.503527   -0.579916
     13          7           0        1.066950    1.204892   -0.485045
     14         14           0        2.101428   -0.079687    0.086022
     15          6           0        2.453358   -1.232724   -1.350611
     16          1           0        2.826142   -0.669428   -2.209029
     17          1           0        3.219352   -1.961675   -1.072509
     18          1           0        1.571033   -1.787918   -1.675554
     19          6           0        3.688391    0.754893    0.616829
     20          1           0        3.499814    1.468982    1.422222
     21          1           0        4.423503    0.029723    0.976208
     22          1           0        4.129543    1.306655   -0.215920
     23          6           0        1.415267   -1.011922    1.566353
     24          1           0        0.554032   -1.636173    1.328246
     25          1           0        2.192347   -1.656467    1.987341
     26          1           0        1.110274   -0.313932    2.350436
     27          1           0       -0.413743    2.522943   -0.901948
 ---------------------------------------------------------------------

 SCF Done:  E(RHF) =  -733.211700529     A.U. after    2 cycles

 The electronic state is 1-A.
 Alpha  occ. eigenvalues --  -76.18994 -15.69780 -11.52638 -11.46123 -11.44612
 Alpha  occ. eigenvalues --  -11.43637 -11.41833 -11.41579 -11.37229 -11.34288
 Alpha  occ. eigenvalues --  -11.33620 -11.32976  -5.53341  -2.18779  -2.16797
 Alpha  occ. eigenvalues --   -2.16686  -1.38485  -1.29143  -1.11353  -1.10227
 Alpha  occ. eigenvalues --   -1.06422  -1.00633  -0.99759  -0.91332  -0.87289
 Alpha  occ. eigenvalues --   -0.81416  -0.72459  -0.66979  -0.64745  -0.60802
 Alpha  occ. eigenvalues --   -0.59117  -0.57416  -0.56379  -0.55651  -0.55509
 Alpha  occ. eigenvalues --   -0.54426  -0.53346  -0.52592  -0.51999  -0.49953
 Alpha  occ. eigenvalues --   -0.46214  -0.45771  -0.44298  -0.39116  -0.38204
 Alpha  occ. eigenvalues --   -0.33963  -0.32388  -0.31264
 Alpha virt. eigenvalues --    0.03051   0.04604   0.04802   0.05051   0.05769
 Alpha virt. eigenvalues --    0.06031   0.06130   0.06439   0.06703   0.07356
 Alpha virt. eigenvalues --    0.07550   0.07858   0.08585   0.08654   0.08919

 Mulliken charges:
               1
     1  C   -2.483643
     2  C   -1.905738
     3  C   -3.234350
     4  C   -3.318864
     5  C   -0.058189
     6  C    4.929383
     7  H    1.744793
     8  H    1.514814
     9  H    1.564517
    10  H    1.489327
    11  H    2.341219
    12  C   -1.840572
    13  N   -3.989476
    14  Si   9.888979
    15  C   -6.306263
    16  H    1.060043
    17  H    1.109235
    18  H    1.133455
    19  C   -6.115198
    20  H    1.141234
    21  H    1.187830
    22  H    1.159092
    23  C   -6.253474
    24  H    1.257752
    25  H    1.192718
    26  H    1.172896
    27  H    1.618478
 Sum of Mulliken charges =  -0.00000

 Dipole moment (field-independent basis, Debye):
    X=             -1.8617    Y=             -0.7001    Z=              0.3194  Tot=              2.0144

 Test job not archived.
 1\1\GINC-SE419\SP\RHF\Aug-CC-pVDZ\C10H15N1Si1\OHZDE\09-Apr-2025\0\\#t
 hf aug-cc-pvdz iop(5/13=1,5/36=2,99/5=2) pseudo=read geom=check guess=
 (read,tcheck) scf=(maxcycle=1)\\title\\0,1\C,0,-2.518899,1.293054,0.10
 8455\C,0,-3.654872,0.551141,0.394266\C,0,-3.637593,-0.82804,0.235813\C
 ,0,-2.482938,-1.459421,-0.210153\C,0,-1.343465,-0.717292,-0.475264\C,0
 ,-1.345811,0.664947,-0.305011\H,0,-2.533489,2.372426,0.215345\H,0,-4.5
 56049,1.048257,0.732048\H,0,-4.526477,-1.409905,0.447603\H,0,-2.474427
 ,-2.532818,-0.356505\H,0,-0.452267,-1.20827,-0.841533\C,0,-0.149808,1.

 Normal termination of Gaussian 16 at Wed Apr  9 01:11:37 2025.
