 Gaussian 16, Revision C.01,

 ----------------------------------------------------------------------
 #t hf aug-cc-pvdz symm=none int=(grid=ultrafine) guess=(read,tcheck) s
 table=opt
 ----------------------------------------------------------------------
 -----
 title
 -----
 Symbolic Z-matrix:
 Charge =  0 Multiplicity = 2

 SCF Done:  E(UHF) =  -1028.97881876     A.U. after   21 cycles
 Normal termination of Gaussian 16 at Wed Apr  9 01:19:24 2025.
 Gaussian 16:  ES64L-G16RevC.01  3-Jul-2019

 ----------------------------------------------------------------------
 #t hf aug-cc-pvdz iop(5/13=1,5/36=2,99/5=2) pseudo=read geom=check gue
 ss=(read,tcheck) scf=(maxcycle=1)
 ----------------------------------------------------------------------
 -----
 title
 -----
 Structure from the checkpoint file:  "BH10_204_forward_mol2.chk"
 Charge =  0 Multiplicity = 2

                         Standard orientation:
 ---------------------------------------------------------------------
 Center     Atomic      Atomic             Coordinates (Angstroms)
 Number     Number       Type             X           Y           Z
 ---------------------------------------------------------------------
      1          7           0        0.628076    0.446540   -0.316830
      2         16           0        1.212651   -1.113952   -0.294771
      3          8           0       -0.110507   -1.926404   -0.636038
      4          6           0       -1.036608   -2.294683    0.425033
      5          6           0       -1.858162   -1.123698    0.920454
      6          1           0       -0.465154   -2.759311    1.228304
      7          1           0       -1.660178   -3.046444   -0.056660
      8          6           0       -2.644733   -0.414003   -0.174409
      9          1           0       -1.204893   -0.410415    1.430383
     10          1           0       -2.538243   -1.514112    1.685787
     11          6           0       -3.358683    0.833695    0.331959
     12          6           0        1.496071    1.537056    0.126535
     13          6           0        1.193346    1.713366    1.630355
     14          6           0        1.010068    2.766235   -0.645768
     15          6           0        2.996766    1.325242   -0.091293
     16          1           0        3.378798    0.490750    0.496812
     17          1           0        3.525616    2.227840    0.219314
     18          1           0        3.218843    1.137198   -1.141493
     19          1           0        0.126895    1.874395    1.793037
     20          1           0        1.735527    2.589708    1.990719
     21          1           0        1.512727    0.838274    2.194920
     22          1           0       -0.061078    2.910211   -0.500040
     23          1           0        1.199713    2.646926   -1.713403
     24          1           0        1.537053    3.656475   -0.297253
     25          8           0        1.639918   -1.457721    1.047265
     26          8           0        2.082573   -1.291419   -1.427354
     27          6           0       -4.133229    1.556624   -0.763396
     28          1           0       -2.616665    1.513929    0.764778
     29          1           0       -4.038133    0.564032    1.148166
     30          1           0       -3.467777    1.863583   -1.574462
     31          1           0       -4.629330    2.451195   -0.381145
     32          1           0       -4.901191    0.909291   -1.194930
     33          1           0       -1.960488   -0.134306   -0.978479
     34          1           0       -3.375874   -1.106410   -0.608004
 ---------------------------------------------------------------------

 SCF Done:  E(UHF) =  -1032.23454958     A.U. after    2 cycles

 The electronic state is 2-A.
 Alpha  occ. eigenvalues --  -75.92742 -21.09696 -21.06131 -21.06021 -15.79324
 Alpha  occ. eigenvalues --  -13.55869 -13.48666 -13.44198 -11.47506 -11.46759
 Alpha  occ. eigenvalues --  -11.42891 -11.41149 -11.40937 -11.40604 -11.37830
 Alpha  occ. eigenvalues --  -11.36743 -11.35201  -8.28132  -1.92006  -1.74382
 Alpha  occ. eigenvalues --   -1.67396  -1.44917  -1.26299  -1.20872  -1.12973
 Alpha  occ. eigenvalues --   -1.02968  -1.02737  -1.00638  -0.93281  -0.86445
 Alpha  occ. eigenvalues --   -0.83034  -0.77960  -0.69346  -0.68286  -0.66274
 Alpha  occ. eigenvalues --   -0.65211  -0.64417  -0.62093  -0.60110  -0.59146
 Alpha  occ. eigenvalues --   -0.58233  -0.57507  -0.55850  -0.54538  -0.53482
 Alpha  occ. eigenvalues --   -0.52677  -0.52208  -0.49776  -0.48949  -0.48579
 Alpha  occ. eigenvalues --   -0.46262  -0.46104  -0.45800  -0.44866  -0.43044
 Alpha  occ. eigenvalues --   -0.41394  -0.39053  -0.37815  -0.36671  -0.36012
 Alpha  occ. eigenvalues --   -0.35746
 Alpha virt. eigenvalues --    0.03938   0.04419   0.04475   0.04891   0.05123
 Alpha virt. eigenvalues --    0.05369   0.05653   0.05933   0.06255   0.06545
 Alpha virt. eigenvalues --    0.06930   0.07397   0.07684   0.08063   0.08537

  Beta  occ. eigenvalues --  -75.92815 -21.09736 -21.05991 -21.05813 -15.76252
  Beta  occ. eigenvalues --  -13.55982 -13.48742 -13.44444 -11.47549 -11.46913
  Beta  occ. eigenvalues --  -11.42889 -11.41051 -11.40895 -11.40522 -11.37829
  Beta  occ. eigenvalues --  -11.36678 -11.35202  -8.28229  -1.91861  -1.74260
  Beta  occ. eigenvalues --   -1.66965  -1.38790  -1.26284  -1.17544  -1.12607
  Beta  occ. eigenvalues --   -1.02624  -1.02291  -1.00294  -0.92691  -0.86293
  Beta  occ. eigenvalues --   -0.82947  -0.76787  -0.68926  -0.67768  -0.64934
  Beta  occ. eigenvalues --   -0.64272  -0.62348  -0.61907  -0.60010  -0.58263
  Beta  occ. eigenvalues --   -0.57330  -0.56315  -0.55548  -0.54042  -0.52797
  Beta  occ. eigenvalues --   -0.52407  -0.49771  -0.49711  -0.48230  -0.46564
  Beta  occ. eigenvalues --   -0.46053  -0.45748  -0.44992  -0.44088  -0.42660
  Beta  occ. eigenvalues --   -0.40655  -0.37578  -0.37332  -0.36032  -0.34100
  Beta virt. eigenvalues --    0.03764   0.03952   0.04427   0.04518   0.04996
  Beta virt. eigenvalues --    0.05329   0.05388   0.05784   0.06201   0.06328
  Beta virt. eigenvalues --    0.06590   0.06935   0.07409   0.07698   0.08084

 Mulliken charges and spin densities:
               1          2
     1  N   -3.988874   1.188483
     2  S    8.982836  -0.108901
     3  O   -3.484457  -0.006907
     4  C   -2.502118   0.003708
     5  C   -3.534354   0.007206
     6  H    1.589424   0.000248
     7  H    1.506383  -0.000581
     8  C   -3.005420  -0.000934
     9  H    2.447682  -0.002864
    10  H    1.277832  -0.000135
    11  C   -2.985156  -0.002735
    12  C    3.879721  -0.366303
    13  C   -4.404765   0.133323
    14  C   -4.645932   0.024497
    15  C   -4.285624   0.043940
    16  H    1.203519   0.001102
    17  H    1.151874  -0.002818
    18  H    1.395826   0.000666
    19  H    1.709917   0.002148
    20  H    1.066184  -0.002751
    21  H    1.461572   0.001587
    22  H    1.554612  -0.006036
    23  H    1.403686   0.013094
    24  H    1.127633  -0.004009
    25  O   -2.670910   0.037274
    26  O   -2.741004   0.048657
    27  C   -4.386153   0.001592
    28  H    1.759034   0.001252
    29  H    1.453444  -0.000449
    30  H    1.385484   0.000478
    31  H    1.099353   0.000127
    32  H    1.309459   0.000062
    33  H    2.371887  -0.004257
    34  H    1.497403   0.000239
 Sum of Mulliken charges =   0.00000   1.00000

 Dipole moment (field-independent basis, Debye):
    X=             -1.3866    Y=              0.9205    Z=              1.0239  Tot=              1.9541
                          Isotropic Fermi Contact Couplings
        Atom                 a.u.       MegaHertz       Gauss      10(-4) cm-1
     1  N(14)              0.21914      70.80668      25.26558      23.61856
     2  S(33)             -0.10871     -37.33832     -13.32324     -12.45472
     3  O(17)             -0.00450       2.72879       0.97370       0.91023
     4  C(13)             -0.00043      -0.48633      -0.17353      -0.16222
     5  C(13)              0.00102       1.14249       0.40767       0.38110
     6  H(1)               0.00007       0.30007       0.10707       0.10009
     7  H(1)              -0.00007      -0.32883      -0.11733      -0.10969
     8  C(13)             -0.00052      -0.58097      -0.20731      -0.19379

 1\1\GINC-SE129\SP\UHF\Aug-CC-pVDZ\C9H20N1O3S1(2)\OHZDE\09-Apr-2025\0\\
 #t hf aug-cc-pvdz iop(5/13=1,5/36=2,99/5=2) pseudo=read geom=check gue
 ss=(read,tcheck) scf=(maxcycle=1)\\title\\0,2\N,0,0.628076,0.44654,-0.
 31683\S,0,1.212651,-1.113952,-0.294771\O,0,-0.110507,-1.926404,-0.6360
 38\C,0,-1.036608,-2.294683,0.425033\C,0,-1.858162,-1.123698,0.920454\H
 ,0,-0.465154,-2.759311,1.228304\H,0,-1.660178,-3.046444,-0.05666\C,0,-
 2.644733,-0.414003,-0.174409\H,0,-1.204893,-0.410415,1.430383\H,0,-2.5
 38243,-1.514112,1.685787\C,0,-3.358683,0.833695,0.331959\C,0,1.496071,

 Normal termination of Gaussian 16 at Wed Apr  9 01:20:16 2025.
