 Gaussian 16, Revision C.01,

 ----------------------------------------------------------------------
 #t hf aug-cc-pvdz symm=none int=(grid=ultrafine) guess=(read,tcheck) s
 table=opt
 ----------------------------------------------------------------------
 -----
 title
 -----
 Symbolic Z-matrix:
 Charge =  0 Multiplicity = 2

 SCF Done:  E(UHF) =  -1028.92530245     A.U. after   20 cycles
 Normal termination of Gaussian 16 at Wed Apr  9 01:18:42 2025.
 Gaussian 16:  ES64L-G16RevC.01  3-Jul-2019

 ----------------------------------------------------------------------
 #t hf aug-cc-pvdz iop(5/13=1,5/36=2,99/5=2) pseudo=read geom=check gue
 ss=(read,tcheck) scf=(maxcycle=1)
 ----------------------------------------------------------------------
 -----
 title
 -----
 Structure from the checkpoint file:  "BH10_204_forward_mol1.chk"
 Charge =  0 Multiplicity = 2

                         Standard orientation:
 ---------------------------------------------------------------------
 Center     Atomic      Atomic             Coordinates (Angstroms)
 Number     Number       Type             X           Y           Z
 ---------------------------------------------------------------------
      1          7           0       -0.567708    0.423515   -0.476262
      2         16           0       -0.357362   -1.199621   -0.692778
      3          8           0        0.105650   -1.785441    0.753468
      4          6           0        1.488244   -1.662821    1.143176
      5          6           0        1.798075   -0.289752    1.722751
      6          1           0        2.118603   -1.904571    0.287325
      7          1           0        1.614730   -2.432479    1.902344
      8          6           0        1.710881    0.861851    0.745054
      9          1           0        2.818090   -0.333530    2.126472
     10          1           0        1.133973   -0.114083    2.572148
     11          1           0        0.588273    0.770013    0.144312
     12          6           0        2.730513    0.921075   -0.368441
     13          1           0        1.595770    1.822492    1.251232
     14          6           0       -1.740021    0.969792    0.257336
     15          6           0       -2.069747    0.249677    1.565585
     16          6           0       -1.393872    2.433503    0.537169
     17          6           0       -2.937994    0.921561   -0.701985
     18          1           0       -3.784045    1.435387   -0.240136
     19          1           0       -3.225430   -0.104024   -0.922778
     20          1           0       -2.691505    1.424819   -1.637870
     21          1           0       -2.337670   -0.792283    1.394753
     22          1           0       -2.916393    0.746040    2.044109
     23          1           0       -1.225956    0.278938    2.256545
     24          1           0       -2.269838    2.944831    0.938993
     25          1           0       -0.590090    2.520977    1.269444
     26          1           0       -1.086862    2.937976   -0.380049
     27          8           0        0.766232   -1.356198   -1.586809
     28          8           0       -1.623258   -1.834031   -0.951621
     29          6           0        2.464806    2.057884   -1.348669
     30          1           0        2.748266   -0.026704   -0.909687
     31          1           0        3.721406    1.043836    0.090442
     32          1           0        3.236877    2.099926   -2.118384
     33          1           0        1.502952    1.915279   -1.844144
     34          1           0        2.446306    3.025224   -0.838950
 ---------------------------------------------------------------------

 SCF Done:  E(UHF) =  -1032.21721970     A.U. after    2 cycles

 The electronic state is 2-A.
 Alpha  occ. eigenvalues --  -75.92098 -21.08820 -21.05254 -21.04777 -15.76707
 Alpha  occ. eigenvalues --  -13.55624 -13.47064 -13.43717 -11.49145 -11.46639
 Alpha  occ. eigenvalues --  -11.46167 -11.42777 -11.40952 -11.40072 -11.39691
 Alpha  occ. eigenvalues --  -11.36867 -11.36134  -8.27322  -1.90459  -1.73879
 Alpha  occ. eigenvalues --   -1.66442  -1.43800  -1.28084  -1.21009  -1.13552
 Alpha  occ. eigenvalues --   -1.02527  -1.02069  -1.01108  -0.93669  -0.88122
 Alpha  occ. eigenvalues --   -0.84879  -0.78133  -0.72423  -0.68443  -0.67550
 Alpha  occ. eigenvalues --   -0.64328  -0.63430  -0.62887  -0.60470  -0.60017
 Alpha  occ. eigenvalues --   -0.58145  -0.57620  -0.54827  -0.54443  -0.53242
 Alpha  occ. eigenvalues --   -0.52683  -0.51838  -0.50493  -0.49094  -0.48152
 Alpha  occ. eigenvalues --   -0.46890  -0.45761  -0.44340  -0.44027  -0.42269
 Alpha  occ. eigenvalues --   -0.39832  -0.39222  -0.36622  -0.35580  -0.34448
 Alpha  occ. eigenvalues --   -0.31488
 Alpha virt. eigenvalues --    0.03611   0.04248   0.04491   0.04620   0.04832
 Alpha virt. eigenvalues --    0.05305   0.05579   0.06065   0.06500   0.06632
 Alpha virt. eigenvalues --    0.06908   0.07274   0.07640   0.08148   0.08880

  Beta  occ. eigenvalues --  -75.92143 -21.08840 -21.05095 -21.04797 -15.74308
  Beta  occ. eigenvalues --  -13.55671 -13.47215 -13.43772 -11.49029 -11.46699
  Beta  occ. eigenvalues --  -11.45356 -11.42838 -11.40920 -11.39988 -11.39423
  Beta  occ. eigenvalues --  -11.36849 -11.36065  -8.27382  -1.90377  -1.73815
  Beta  occ. eigenvalues --   -1.66276  -1.39718  -1.26367  -1.19049  -1.13357
  Beta  occ. eigenvalues --   -1.02457  -1.01541  -0.99548  -0.92774  -0.87620
  Beta  occ. eigenvalues --   -0.82840  -0.77062  -0.70168  -0.67538  -0.65446
  Beta  occ. eigenvalues --   -0.63823  -0.62573  -0.61824  -0.59800  -0.59599
  Beta  occ. eigenvalues --   -0.57832  -0.57184  -0.54450  -0.54112  -0.52741
  Beta  occ. eigenvalues --   -0.51963  -0.51665  -0.49508  -0.48488  -0.46939
  Beta  occ. eigenvalues --   -0.46636  -0.45185  -0.43863  -0.42467  -0.41974
  Beta  occ. eigenvalues --   -0.38720  -0.38299  -0.36333  -0.35442  -0.32994
  Beta virt. eigenvalues --    0.03522   0.04128   0.04466   0.04590   0.04780
  Beta virt. eigenvalues --    0.05037   0.05583   0.06064   0.06469   0.06634
  Beta virt. eigenvalues --    0.06907   0.07206   0.07302   0.07644   0.08428

 Mulliken charges and spin densities:
               1          2
     1  N   -4.099040   0.964277
     2  S    8.586912  -0.038246
     3  O   -3.669294  -0.000764
     4  C   -2.017743   0.006749
     5  C   -4.030957  -0.173896
     6  H    1.930375   0.001090
     7  H    1.286149  -0.003415
     8  C   -3.014382   1.304834
     9  H    1.393656   0.015761
    10  H    1.497267  -0.007677
    11  H    5.704112  -0.800634
    12  C   -3.969946  -0.220883
    13  H    1.352195  -0.028169
    14  C    5.312160  -0.147799
    15  C   -5.016938   0.006718
    16  C   -4.902391   0.011222
    17  C   -5.086259   0.077975
    18  H    1.130194  -0.000727
    19  H    1.459203   0.004440
    20  H    1.318625   0.005054
    21  H    1.149768  -0.001693
    22  H    1.023992  -0.000355
    23  H    1.413374  -0.007964
    24  H    1.117157  -0.002738
    25  H    1.566586  -0.007006
    26  H    1.341524   0.000581
    27  O   -2.696355  -0.009912
    28  O   -2.800109   0.024686
    29  C   -4.523021   0.004805
    30  H    1.668563   0.013794
    31  H    1.573611   0.012284
    32  H    1.147452  -0.000881
    33  H    1.463599  -0.001666
    34  H    1.389961   0.000158
 Sum of Mulliken charges =  -0.00000   1.00000

 Dipole moment (field-independent basis, Debye):
    X=              1.3299    Y=              1.5330    Z=              2.8169  Tot=              3.4718
                          Isotropic Fermi Contact Couplings
        Atom                 a.u.       MegaHertz       Gauss      10(-4) cm-1
     1  N(14)              0.24962      80.65217      28.77870      26.90267
     2  S(33)             -0.07457     -25.61251      -9.13918      -8.54341
     3  O(17)             -0.00357       2.16253       0.77165       0.72134
     4  C(13)              0.00522       5.86674       2.09340       1.95693
     5  C(13)             -0.01390     -15.62724      -5.57619      -5.21269
     6  H(1)              -0.00022      -0.99803      -0.35612      -0.33291
     7  H(1)              -0.00041      -1.83483      -0.65471      -0.61203
     8  C(13)              0.11975     134.62227      48.03657      44.90515

 1\1\GINC-SE069\SP\UHF\Aug-CC-pVDZ\C9H20N1O3S1(2)\OHZDE\09-Apr-2025\0\\
 #t hf aug-cc-pvdz iop(5/13=1,5/36=2,99/5=2) pseudo=read geom=check gue
 ss=(read,tcheck) scf=(maxcycle=1)\\title\\0,2\N,0,-0.567708,0.423515,-
 0.476262\S,0,-0.357362,-1.199621,-0.692778\O,0,0.10565,-1.785441,0.753
 468\C,0,1.488244,-1.662821,1.143176\C,0,1.798075,-0.289752,1.722751\H,
 0,2.118603,-1.904571,0.287325\H,0,1.614731,-2.432479,1.902344\C,0,1.71
 0881,0.861851,0.745054\H,0,2.81809,-0.333529,2.126472\H,0,1.133973,-0.
 114083,2.572148\H,0,0.588273,0.770013,0.144312\C,0,2.730513,0.921076,-

 Normal termination of Gaussian 16 at Wed Apr  9 01:19:36 2025.
