 Gaussian 16, Revision C.01,

 ----------------------------------------------------------------------
 #t hf aug-cc-pvdz symm=none int=(grid=ultrafine) guess=(read,tcheck) s
 table=(opt,rrhf)
 ----------------------------------------------------------------------
 -----
 title
 -----
 Symbolic Z-matrix:
 Charge =  0 Multiplicity = 1

 SCF Done:  E(RHF) =  -681.080009221     A.U. after   16 cycles

 1\1\GINC-SE363\Stability\RHF\Aug-CC-pVDZ\C10H7F3\OHZDE\09-Apr-2025\0\\
 #t hf aug-cc-pvdz symm=none int=(grid=ultrafine) guess=(read,tcheck) s
 table=(opt,rrhf)\\title\\0,1\C,0,-4.281495,-0.738302,0.014218\C,0,-3.1
 59832,-0.099179,0.005013\C,0,-4.387588,0.761911,0.015081\H,0,-4.832577
 ,-1.661226,0.018572\C,0,-1.716928,-0.073151,-0.006904\C,0,-1.042384,1.
 146446,-0.015565\C,0,-0.979954,-1.260727,-0.013002\C,0,0.342407,1.1842
 26,-0.028584\H,0,-1.614356,2.065733,-0.014274\C,0,0.400699,-1.226974,-
 0.026458\H,0,-1.501058,-2.209913,-0.009922\C,0,1.06116,-0.002198,-0.03

 Normal termination of Gaussian 16 at Wed Apr  9 01:08:24 2025.
 Gaussian 16:  ES64L-G16RevC.01  3-Jul-2019

 ----------------------------------------------------------------------
 #t hf aug-cc-pvdz iop(5/13=1,5/36=2,99/5=2) pseudo=read geom=check gue
 ss=(read,tcheck) scf=(maxcycle=1)
 ----------------------------------------------------------------------
 -----
 title
 -----
 Structure from the checkpoint file:  "BH10_249_forward_mol2.chk"
 Charge =  0 Multiplicity = 1

                         Standard orientation:
 ---------------------------------------------------------------------
 Center     Atomic      Atomic             Coordinates (Angstroms)
 Number     Number       Type             X           Y           Z
 ---------------------------------------------------------------------
      1          6           0        4.281495    0.738302    0.014218
      2          6           0        3.159832    0.099179    0.005013
      3          6           0        4.387588   -0.761911    0.015081
      4          1           0        4.832577    1.661226    0.018572
      5          6           0        1.716928    0.073151   -0.006904
      6          6           0        1.042384   -1.146446   -0.015565
      7          6           0        0.979954    1.260727   -0.013002
      8          6           0       -0.342407   -1.184226   -0.028584
      9          1           0        1.614356   -2.065733   -0.014274
     10          6           0       -0.400699    1.226974   -0.026458
     11          1           0        1.501058    2.209913   -0.009922
     12          6           0       -1.061160    0.002198   -0.035486
     13          1           0       -0.863356   -2.132446   -0.041062
     14          1           0       -0.969998    2.147392   -0.037958
     15          6           0       -2.558599   -0.027656    0.001583
     16          9           0       -3.101631    0.998354   -0.677767
     17          9           0       -3.058957   -1.160310   -0.520235
     18          9           0       -3.029498    0.056909    1.263591
     19          1           0        4.674561   -1.278380    0.930911
     20          1           0        4.689678   -1.278296   -0.895939
 ---------------------------------------------------------------------

 SCF Done:  E(RHF) =  -683.900037915     A.U. after    2 cycles

 The electronic state is 1-A.
 Alpha  occ. eigenvalues --  -29.30651 -29.30537 -29.30105 -11.61969 -11.54733
 Alpha  occ. eigenvalues --  -11.47885 -11.46807 -11.46480 -11.46152 -11.44120
 Alpha  occ. eigenvalues --  -11.43330 -11.43039 -11.38881  -1.46511  -1.36199
 Alpha  occ. eigenvalues --   -1.28104  -1.12416  -1.12245  -0.93586  -0.92821
 Alpha  occ. eigenvalues --   -0.87692  -0.86269  -0.84280  -0.78882  -0.77217
 Alpha  occ. eigenvalues --   -0.70540  -0.64149  -0.61233  -0.60857  -0.60106
 Alpha  occ. eigenvalues --   -0.53897  -0.53522  -0.48840  -0.47285  -0.44622
 Alpha  occ. eigenvalues --   -0.43377  -0.43099  -0.41841  -0.39574  -0.36465
 Alpha  occ. eigenvalues --   -0.35460  -0.34751  -0.30174  -0.29957  -0.25086
 Alpha  occ. eigenvalues --   -0.23910  -0.20867
 Alpha virt. eigenvalues --    0.03227   0.04800   0.05080   0.06312   0.06422
 Alpha virt. eigenvalues --    0.06926   0.07270   0.08050   0.08288   0.09991
 Alpha virt. eigenvalues --    0.10564   0.10664   0.11637   0.12424   0.12554

 Mulliken charges:
               1
     1  C   -2.606293
     2  C    3.971061
     3  C   -4.017828
     4  H    0.824934
     5  C    4.923726
     6  C   -2.762702
     7  C   -2.854489
     8  C   -2.400379
     9  H    1.859791
    10  C   -3.408786
    11  H    1.834442
    12  C   -0.598177
    13  H    1.844618
    14  H    1.818460
    15  C   -0.708339
    16  F    0.202940
    17  F    0.288583
    18  F    0.125349
    19  H    0.835568
    20  H    0.827523
 Sum of Mulliken charges =   0.00000

 Dipole moment (field-independent basis, Debye):
    X=             -1.1637    Y=              0.4736    Z=              0.0947  Tot=              1.2599

 Test job not archived.
 1\1\GINC-SE363\SP\RHF\Aug-CC-pVDZ\C10H7F3\OHZDE\09-Apr-2025\0\\#t hf a
 ug-cc-pvdz iop(5/13=1,5/36=2,99/5=2) pseudo=read geom=check guess=(rea
 d,tcheck) scf=(maxcycle=1)\\title\\0,1\C,0,-4.281495,-0.738302,0.01421
 8\C,0,-3.159832,-0.099179,0.005013\C,0,-4.387588,0.761911,0.015081\H,0
 ,-4.832577,-1.661226,0.018572\C,0,-1.716928,-0.073151,-0.006904\C,0,-1
 .042384,1.146446,-0.015565\C,0,-0.979954,-1.260727,-0.013002\C,0,0.342
 407,1.184226,-0.028584\H,0,-1.614356,2.065733,-0.014274\C,0,0.400699,-
 1.226974,-0.026458\H,0,-1.501058,-2.209913,-0.009922\C,0,1.06116,-0.00

 Normal termination of Gaussian 16 at Wed Apr  9 01:08:37 2025.
