 Gaussian 16, Revision C.01,

 ----------------------------------------------------------------------
 #t hf aug-cc-pvdz symm=none int=(grid=ultrafine) guess=(read,tcheck) s
 table=(opt,rrhf)
 ----------------------------------------------------------------------
 -----
 title
 -----
 Symbolic Z-matrix:
 Charge =  0 Multiplicity = 1

 SCF Done:  E(RHF) =  -689.957673619     A.U. after   13 cycles
 Normal termination of Gaussian 16 at Wed Apr  9 00:55:47 2025.
 Gaussian 16:  ES64L-G16RevC.01  3-Jul-2019

 ----------------------------------------------------------------------
 #t hf aug-cc-pvdz iop(5/13=1,5/36=2,99/5=2) pseudo=read geom=check gue
 ss=(read,tcheck) scf=(maxcycle=1)
 ----------------------------------------------------------------------
 -----
 title
 -----
 Structure from the checkpoint file:  "BH10-RE_131_mol2.chk"
 Charge =  0 Multiplicity = 1

                         Standard orientation:
 ---------------------------------------------------------------------
 Center     Atomic      Atomic             Coordinates (Angstroms)
 Number     Number       Type             X           Y           Z
 ---------------------------------------------------------------------
      1          8           0        0.763894    1.595683    0.000028
      2          6           0        0.686758    0.420319    0.000008
      3          6           0       -0.551443   -0.426284    0.000014
      4          6           0       -1.834980    0.393107    0.000019
      5          1           0       -0.492677   -1.085721    0.871229
      6          1           0       -0.492687   -1.085732   -0.871193
      7          1           0       -1.842970    1.049479    0.873177
      8          6           0       -3.071140   -0.498267    0.000022
      9          1           0       -1.842975    1.049483   -0.873135
     10          1           0       -3.096548   -1.142647   -0.882501
     11          1           0       -3.983707    0.099818    0.000007
     12          1           0       -3.096562   -1.142623    0.882561
     13         17           0        2.197753   -0.578869   -0.000044
 ---------------------------------------------------------------------

 SCF Done:  E(RHF) =  -691.285918973     A.U. after    2 cycles

 The electronic state is 1-A.
 Alpha  occ. eigenvalues --  -99.89511 -21.09924 -11.55252 -11.44575 -11.40906
 Alpha  occ. eigenvalues --  -11.37133 -10.46876  -9.66790  -9.66017  -9.65920
 Alpha  occ. eigenvalues --   -1.76464  -1.32718  -1.23758  -1.06660  -0.89554
 Alpha  occ. eigenvalues --   -0.79138  -0.68059  -0.67887  -0.61194  -0.59591
 Alpha  occ. eigenvalues --   -0.56143  -0.54056  -0.52376  -0.48636  -0.48462
 Alpha  occ. eigenvalues --   -0.46146  -0.44538  -0.34562
 Alpha virt. eigenvalues --    0.03285   0.05003   0.05470   0.05702   0.06159
 Alpha virt. eigenvalues --    0.07090   0.07623   0.08218   0.09409   0.11035
 Alpha virt. eigenvalues --    0.12792   0.13152   0.13238   0.14283   0.14592

 Mulliken charges:
               1
     1  O   -2.676903
     2  C    1.530935
     3  C   -2.051757
     4  C   -2.566430
     5  H    1.593007
     6  H    1.593010
     7  H    1.437826
     8  C   -3.713939
     9  H    1.437825
    10  H    1.270196
    11  H    1.047803
    12  H    1.270194
    13  Cl  -0.171767
 Sum of Mulliken charges =  -0.00000

 Dipole moment (field-independent basis, Debye):
    X=             -3.1778    Y=              0.6562    Z=              0.0001  Tot=              3.2449

 Test job not archived.
 1\1\GINC-SE015\SP\RHF\Aug-CC-pVDZ\C4H7Cl1O1\OHZDE\09-Apr-2025\0\\#t hf
  aug-cc-pvdz iop(5/13=1,5/36=2,99/5=2) pseudo=read geom=check guess=(r
 ead,tcheck) scf=(maxcycle=1)\\title\\0,1\O,0,-0.763894,1.595683,-0.000
 028\C,0,-0.686758,0.420319,-0.000008\C,0,0.551443,-0.426284,-0.000014\
 C,0,1.83498,0.393107,-0.000019\H,0,0.492677,-1.085721,-0.871229\H,0,0.
 492687,-1.085732,0.871193\H,0,1.84297,1.049479,-0.873177\C,0,3.07114,-
 0.498267,-0.000022\H,0,1.842975,1.049483,0.873135\H,0,3.096548,-1.1426
 47,0.882501\H,0,3.983707,0.099818,-0.000007\H,0,3.096562,-1.142623,-0.

 Normal termination of Gaussian 16 at Wed Apr  9 00:55:51 2025.
