 Gaussian 16, Revision C.01,

 ----------------------------------------------------------------------
 #t hf aug-cc-pvdz symm=none int=(grid=ultrafine) guess=(read,tcheck) s
 table=(opt,rrhf)
 ----------------------------------------------------------------------
 -----
 title
 -----
 Symbolic Z-matrix:
 Charge =  0 Multiplicity = 1

 SCF Done:  E(RHF) =  -988.506879873     A.U. after   15 cycles
 Normal termination of Gaussian 16 at Wed Apr  9 02:12:20 2025.
 Gaussian 16:  ES64L-G16RevC.01  3-Jul-2019

 ----------------------------------------------------------------------
 #t hf aug-cc-pvdz iop(5/13=1,5/36=2,99/5=2) pseudo=read geom=check gue
 ss=(read,tcheck) scf=(maxcycle=1)
 ----------------------------------------------------------------------
 -----
 title
 -----
 Structure from the checkpoint file:  "BH10_369_reverse_mol2.chk"
 Charge =  0 Multiplicity = 1

                         Standard orientation:
 ---------------------------------------------------------------------
 Center     Atomic      Atomic             Coordinates (Angstroms)
 Number     Number       Type             X           Y           Z
 ---------------------------------------------------------------------
      1          6           0        0.351797   -1.030408   -0.099709
      2          6           0       -0.835754   -0.307131   -0.085500
      3          6           0        1.841970   -0.728326   -0.052180
      4          6           0       -1.207075    1.168981   -0.070653
      5          6           0        2.240170    0.642886   -0.594236
      6          1           0        3.319228    0.756565   -0.476687
      7          1           0        2.024826    0.712559   -1.663187
      8          6           0       -0.091358    2.069196   -0.627067
      9          1           0       -0.451819    3.097734   -0.577932
     10          7           0        0.034121   -2.352943   -0.014257
     11          7           0       -1.237831   -2.500450    0.057082
     12          7           0       -1.792379   -1.286322    0.020744
     13          6           0       -3.241516   -1.252725    0.108804
     14          1           0       -3.572286   -0.550071    0.870588
     15          1           0       -3.692176   -0.999323   -0.849169
     16          1           0       -3.544236   -2.257550    0.391763
     17         16           0        1.508220    2.087936    0.208947
     18          6           0       -2.414983    1.466094   -0.984170
     19          1           0       -3.358469    1.132718   -0.561495
     20          1           0       -2.500157    2.544889   -1.127860
     21          1           0       -2.291735    1.006724   -1.967341
     22          6           0       -1.528400    1.594087    1.370486
     23          1           0       -1.843531    2.640718    1.392963
     24          1           0       -2.332139    0.992850    1.797418
     25          1           0       -0.649889    1.486660    2.006289
     26          6           0        2.588239   -1.761180   -0.914133
     27          1           0        3.663680   -1.571885   -0.868779
     28          1           0        2.393103   -2.771809   -0.562736
     29          1           0        2.271788   -1.702035   -1.958168
     30          6           0        2.305380   -0.871441    1.406124
     31          1           0        2.059867   -1.866131    1.778977
     32          1           0        3.387857   -0.732078    1.475985
     33          1           0        1.823234   -0.131295    2.045943
     34          1           0        0.083135    1.841592   -1.681308
 ---------------------------------------------------------------------

 SCF Done:  E(RHF) =  -991.668792821     A.U. after    2 cycles

 The electronic state is 1-A.
 Alpha  occ. eigenvalues --  -75.67107 -15.79927 -15.77519 -15.73675 -13.17114
 Alpha  occ. eigenvalues --  -13.12540 -13.06649 -11.54945 -11.47647 -11.46368
 Alpha  occ. eigenvalues --  -11.44652 -11.43787 -11.43181 -11.41124 -11.40810
 Alpha  occ. eigenvalues --  -11.39279 -11.38208 -11.35727  -8.01321  -1.68988
 Alpha  occ. eigenvalues --   -1.36077  -1.35219  -1.26008  -1.18632  -1.11389
 Alpha  occ. eigenvalues --   -1.04822  -1.02794  -1.01018  -1.00050  -0.91758
 Alpha  occ. eigenvalues --   -0.88879  -0.83254  -0.78881  -0.74774  -0.69114
 Alpha  occ. eigenvalues --   -0.67877  -0.64098  -0.63222  -0.61270  -0.60398
 Alpha  occ. eigenvalues --   -0.59805  -0.59646  -0.57987  -0.57877  -0.56055
 Alpha  occ. eigenvalues --   -0.54923  -0.53613  -0.52930  -0.50387  -0.49041
 Alpha  occ. eigenvalues --   -0.47479  -0.46854  -0.44890  -0.44590  -0.41254
 Alpha  occ. eigenvalues --   -0.39965  -0.36849  -0.35310  -0.33939  -0.31428
 Alpha  occ. eigenvalues --   -0.22114
 Alpha virt. eigenvalues --    0.03623   0.04278   0.04571   0.04766   0.04880
 Alpha virt. eigenvalues --    0.05107   0.05609   0.06484   0.06646   0.06791
 Alpha virt. eigenvalues --    0.07105   0.07471   0.07598   0.07979   0.08691

 Mulliken charges:
               1
     1  C    4.527951
     2  C    5.028082
     3  C    4.916403
     4  C    5.955628
     5  C   -5.221747
     6  H    1.302749
     7  H    1.197525
     8  C   -5.423484
     9  H    1.437022
    10  N   -2.292014
    11  N   -1.455190
    12  N   -3.348034
    13  C   -4.005358
    14  H    1.750204
    15  H    1.565967
    16  H    1.502784
    17  S    0.589753
    18  C   -5.649090
    19  H    1.488382
    20  H    0.918487
    21  H    1.178236
    22  C   -6.627755
    23  H    1.400411
    24  H    1.275192
    25  H    1.246354
    26  C   -5.439246
    27  H    1.148973
    28  H    1.391771
    29  H    1.174863
    30  C   -6.604702
    31  H    1.256113
    32  H    1.309480
    33  H    1.243436
    34  H    1.260855
 Sum of Mulliken charges =  -0.00000

 Dipole moment (field-independent basis, Debye):
    X=             -2.0141    Y=              3.3156    Z=              0.4036  Tot=              3.9004

 Test job not archived.
 1\1\GINC-SE092\SP\RHF\Aug-CC-pVDZ\C11H19N3S1\OHZDE\09-Apr-2025\0\\#t h
 f aug-cc-pvdz iop(5/13=1,5/36=2,99/5=2) pseudo=read geom=check guess=(
 read,tcheck) scf=(maxcycle=1)\\title\\0,1\C,0,0.351797,-1.030408,-0.09
 9709\C,0,-0.835754,-0.307131,-0.0855\C,0,1.84197,-0.728326,-0.05218\C,
 0,-1.207075,1.168981,-0.070653\C,0,2.24017,0.642886,-0.594236\H,0,3.31
 9228,0.756566,-0.476687\H,0,2.024826,0.712559,-1.663187\C,0,-0.091358,
 2.069196,-0.627067\H,0,-0.45182,3.097734,-0.577932\N,0,0.034121,-2.352
 943,-0.014257\N,0,-1.237831,-2.50045,0.057082\N,0,-1.792379,-1.286322,

 Normal termination of Gaussian 16 at Wed Apr  9 02:13:13 2025.
