 Gaussian 16, Revision C.01,

 ----------------------------------------------------------------------
 #t hf aug-cc-pvdz symm=none int=(grid=ultrafine) guess=(read,tcheck) s
 table=(opt,rrhf)
 ----------------------------------------------------------------------
 -----
 title
 -----
 Symbolic Z-matrix:
 Charge =  0 Multiplicity = 1

 SCF Done:  E(RHF) =  -1375.46180421     A.U. after   17 cycles
 Normal termination of Gaussian 16 at Wed Apr  9 03:24:34 2025.
 Gaussian 16:  ES64L-G16RevC.01  3-Jul-2019

 ----------------------------------------------------------------------
 #t hf aug-cc-pvdz iop(5/13=1,5/36=2,99/5=2) pseudo=read geom=check gue
 ss=(read,tcheck) scf=(maxcycle=1)
 ----------------------------------------------------------------------
 -----
 title
 -----
 Structure from the checkpoint file:  "BH10_395_reverse_mol2.chk"
 Charge =  0 Multiplicity = 1

                         Standard orientation:
 ---------------------------------------------------------------------
 Center     Atomic      Atomic             Coordinates (Angstroms)
 Number     Number       Type             X           Y           Z
 ---------------------------------------------------------------------
      1          6           0       -0.102494   -2.590145    1.067154
      2          7           0        1.119239   -2.169892    0.414155
      3          6           0       -1.320783   -1.870288    0.575100
      4          6           0        0.097070   -0.278243   -0.665035
      5          1           0        0.345638   -0.644576   -1.665733
      6          1           0        0.075197    0.805568   -0.725510
      7          6           0       -2.499782   -0.145241   -0.648672
      8          6           0       -2.654481   -2.365031    1.067303
      9          6           0       -3.678031   -0.761293   -0.514771
     10          6           0       -3.757652   -2.164718    0.026852
     11          6           0       -1.242037   -0.803207   -0.226688
     12          6           0       -3.673768   -3.185044   -1.115259
     13          1           0       -2.713804   -3.108463   -1.629908
     14          1           0       -3.779714   -4.203402   -0.732330
     15          1           0       -4.463978   -3.015103   -1.849204
     16          1           0       -0.042804   -2.453544    2.167807
     17          6           0        1.186235   -0.717345    0.308694
     18          1           0       -0.229479   -3.665735    0.902603
     19         16           0       -2.464727    1.449318   -1.443430
     20          6           0        2.296096   -2.765497    1.013060
     21          6           0        2.554696   -0.219502   -0.106675
     22          1           0        0.957803   -0.261626    1.292180
     23          6           0        3.645771   -1.079377   -0.219689
     24          6           0        3.489740   -2.541994    0.103602
     25          1           0        4.401676   -2.915736    0.576310
     26          1           0        3.341667   -3.113842   -0.817540
     27          1           0        2.112292   -3.834692    1.142427
     28          1           0        2.497452   -2.345264    2.015932
     29          6           0        2.734370    1.142810   -0.349326
     30          6           0        4.882856   -0.565935   -0.605559
     31          6           0        5.048337    0.782414   -0.868930
     32          6           0        3.966582    1.643770   -0.731019
     33          1           0        4.084859    2.704599   -0.916434
     34          1           0        1.899581    1.823956   -0.229618
     35          1           0        5.728640   -1.240379   -0.689766
     36          1           0        6.017599    1.163896   -1.166856
     37          6           0       -1.656356    2.451251   -0.211115
     38          6           0       -0.899062    3.537417   -0.643697
     39          6           0       -1.756035    2.179773    1.149796
     40          6           0       -1.085598    2.978246    2.065240
     41          6           0       -0.331503    4.061985    1.636435
     42          6           0       -0.248688    4.343060    0.279037
     43          1           0       -2.349189    1.340691    1.489751
     44          1           0       -1.158824    2.752804    3.122539
     45          1           0       -0.807060    3.738704   -1.704488
     46          1           0        0.189543    4.682609    2.354782
     47          1           0        0.338284    5.185363   -0.067230
     48          1           0       -2.915542   -1.821566    1.985550
     49          1           0       -2.590482   -3.421894    1.342418
     50          1           0       -4.723736   -2.289514    0.523494
     51          1           0       -4.587563   -0.269903   -0.840407
 ---------------------------------------------------------------------

 SCF Done:  E(RHF) =  -1380.48810042     A.U. after    2 cycles

 The electronic state is 1-A.
 Alpha  occ. eigenvalues --  -75.68690 -15.69982 -13.21087 -13.18502 -13.08818
 Alpha  occ. eigenvalues --  -11.52505 -11.52103 -11.50540 -11.49715 -11.47369
 Alpha  occ. eigenvalues --  -11.47182 -11.45716 -11.44993 -11.44755 -11.44640
 Alpha  occ. eigenvalues --  -11.43911 -11.43432 -11.43172 -11.42638 -11.41473
 Alpha  occ. eigenvalues --  -11.41389 -11.41337 -11.40628 -11.40299 -11.38960
 Alpha  occ. eigenvalues --  -11.38440 -11.36774 -11.36350 -11.35214  -8.02884
 Alpha  occ. eigenvalues --   -1.49588  -1.37719  -1.34460  -1.32065  -1.21187
 Alpha  occ. eigenvalues --   -1.20023  -1.15494  -1.13704  -1.10499  -1.09621
 Alpha  occ. eigenvalues --   -1.06797  -1.04713  -1.00995  -1.00059  -0.94404
 Alpha  occ. eigenvalues --   -0.90944  -0.88020  -0.87129  -0.85955  -0.84401
 Alpha  occ. eigenvalues --   -0.82505  -0.79983  -0.76586  -0.71374  -0.70019
 Alpha  occ. eigenvalues --   -0.68423  -0.66481  -0.65673  -0.64408  -0.63797
 Alpha  occ. eigenvalues --   -0.62639  -0.61649  -0.59984  -0.59570  -0.58842
 Alpha  occ. eigenvalues --   -0.58446  -0.57677  -0.57552  -0.55659  -0.55126
 Alpha  occ. eigenvalues --   -0.53817  -0.53615  -0.52921  -0.52115  -0.51329
 Alpha  occ. eigenvalues --   -0.50713  -0.49591  -0.48385  -0.47795  -0.47184
 Alpha  occ. eigenvalues --   -0.46333  -0.45376  -0.44866  -0.42834  -0.42575
 Alpha  occ. eigenvalues --   -0.39804  -0.38831  -0.37267  -0.36093  -0.33898
 Alpha  occ. eigenvalues --   -0.33276  -0.32179  -0.31093  -0.29827  -0.28636
 Alpha  occ. eigenvalues --   -0.21381
 Alpha virt. eigenvalues --    0.03697   0.04021   0.04346   0.04519   0.04804
 Alpha virt. eigenvalues --    0.05084   0.05294   0.05439   0.05610   0.05865
 Alpha virt. eigenvalues --    0.05962   0.06420   0.06549   0.06992   0.07092

 Mulliken charges:
               1
     1  C   -5.176229
     2  N   -2.668152
     3  C    5.932722
     4  C   -6.142705
     5  H    1.060279
     6  H    2.408729
     7  C    3.626152
     8  C   -6.940790
     9  C   -4.935650
    10  C   -2.703869
    11  C    7.927159
    12  C   -4.943953
    13  H    1.698532
    14  H    1.320918
    15  H    1.298031
    16  H    1.162544
    17  C   -3.940342
    18  H    0.927903
    19  S    0.146257
    20  C   -5.198163
    21  C    7.693437
    22  H    2.027641
    23  C    5.386871
    24  C   -6.097886
    25  H    0.975063
    26  H    0.933986
    27  H    1.701513
    28  H    1.719210
    29  C    0.644274
    30  C   -3.361645
    31  C   -2.735981
    32  C   -5.030790
    33  H    1.607026
    34  H    2.081425
    35  H    1.816852
    36  H    1.592620
    37  C    2.058555
    38  C   -3.755846
    39  C   -3.043134
    40  C   -1.982582
    41  C   -2.539135
    42  C   -1.794332
    43  H    2.731467
    44  H    1.717184
    45  H    1.903128
    46  H    1.697444
    47  H    1.668639
    48  H    0.981397
    49  H    1.316161
    50  H    1.437535
    51  H    1.790531
 Sum of Mulliken charges =   0.00000

 Dipole moment (field-independent basis, Debye):
    X=             -0.6452    Y=             -0.8834    Z=              0.2012  Tot=              1.1123

 Test job not archived.
 1\1\GINC-SE150\SP\RHF\Aug-CC-pVDZ\C24H25N1S1\OHZDE\09-Apr-2025\0\\#t h
 f aug-cc-pvdz iop(5/13=1,5/36=2,99/5=2) pseudo=read geom=check guess=(
 read,tcheck) scf=(maxcycle=1)\\title\\0,1\C,0,-0.102494,-2.590145,1.06
 7154\N,0,1.119239,-2.169892,0.414155\C,0,-1.320783,-1.870288,0.5751\C,
 0,0.09707,-0.278243,-0.665035\H,0,0.345638,-0.644576,-1.665733\H,0,0.0
 75197,0.805568,-0.72551\C,0,-2.499782,-0.145241,-0.648672\C,0,-2.65448
 1,-2.365031,1.067303\C,0,-3.678031,-0.761293,-0.514771\C,0,-3.757652,-
 2.164718,0.026852\C,0,-1.242037,-0.803207,-0.226688\C,0,-3.673768,-3.1

 Normal termination of Gaussian 16 at Wed Apr  9 03:28:08 2025.
