 Gaussian 16, Revision C.01,

 ----------------------------------------------------------------------
 #t hf aug-cc-pvdz symm=none int=(grid=ultrafine) guess=(read,tcheck) s
 table=opt
 ----------------------------------------------------------------------
 -----
 title
 -----
 Symbolic Z-matrix:
 Charge =  0 Multiplicity = 2

 SCF Done:  E(UHF) =  -1247.52659526     A.U. after   19 cycles
 Normal termination of Gaussian 16 at Wed Apr  9 01:10:34 2025.
 Gaussian 16:  ES64L-G16RevC.01  3-Jul-2019

 ----------------------------------------------------------------------
 #t hf aug-cc-pvdz iop(5/13=1,5/36=2,99/5=2) pseudo=read geom=check gue
 ss=(read,tcheck) scf=(maxcycle=1)
 ----------------------------------------------------------------------
 -----
 title
 -----
 Structure from the checkpoint file:  "BH10_182_forward_mol2.chk"
 Charge =  0 Multiplicity = 2

                         Standard orientation:
 ---------------------------------------------------------------------
 Center     Atomic      Atomic             Coordinates (Angstroms)
 Number     Number       Type             X           Y           Z
 ---------------------------------------------------------------------
      1          7           0        1.371440    0.089016   -0.085823
      2         16           0        0.652350    1.600634    0.057605
      3          8           0       -0.788271    1.275184   -0.496546
      4          6           0       -1.658618    0.404434    0.287595
      5          6           0       -2.962999    0.299927   -0.462581
      6          1           0       -1.783248    0.851389    1.274505
      7          1           0       -1.164310   -0.564141    0.384208
      8          6           0       -3.953956   -0.601119    0.268119
      9          1           0       -2.765840   -0.091542   -1.464153
     10          1           0       -3.382959    1.301817   -0.585842
     11          6           0       -5.285557   -0.729885   -0.464510
     12          6           0        2.794754    0.137428    0.060434
     13          1           0        3.080847    0.566216    1.029681
     14          6           0        3.366135   -1.260337   -0.032359
     15          9           0        2.886076   -2.059541    0.927163
     16          9           0        4.701170   -1.211565    0.105212
     17          9           0        3.096840   -1.830383   -1.211634
     18          8           0        1.253303    2.518208   -0.870005
     19          8           0        0.597310    1.879083    1.474380
     20          6           0       -6.275871   -1.628954    0.265774
     21          1           0       -5.105371   -1.121190   -1.471158
     22          1           0       -5.720524    0.266180   -0.597184
     23          1           0       -5.876881   -2.639760    0.384187
     24          1           0       -7.219728   -1.706178   -0.277240
     25          1           0       -6.497289   -1.241923    1.263834
     26          1           0        3.250146    0.758211   -0.721016
     27          1           0       -4.133880   -0.209791    1.275976
     28          1           0       -3.517486   -1.597908    0.399162
 ---------------------------------------------------------------------

 SCF Done:  E(UHF) =  -1251.30649369     A.U. after    2 cycles

 The electronic state is 2-A.
 Alpha  occ. eigenvalues --  -75.94860 -29.32155 -29.32103 -29.32041 -21.11888
 Alpha  occ. eigenvalues --  -21.08196 -21.08188 -15.82939 -13.58143 -13.52148
 Alpha  occ. eigenvalues --  -13.45232 -11.62342 -11.48387 -11.46649 -11.43764
 Alpha  occ. eigenvalues --  -11.41415 -11.38476 -11.35859  -8.30315  -1.94300
 Alpha  occ. eigenvalues --   -1.76496  -1.69130  -1.50521  -1.38880  -1.27494
 Alpha  occ. eigenvalues --   -1.14221  -1.07550  -1.00536  -0.92804  -0.91015
 Alpha  occ. eigenvalues --   -0.89719  -0.85492  -0.84187  -0.76157  -0.71208
 Alpha  occ. eigenvalues --   -0.70663  -0.67314  -0.65359  -0.63824  -0.61228
 Alpha  occ. eigenvalues --   -0.58714  -0.56923  -0.55914  -0.53389  -0.52700
 Alpha  occ. eigenvalues --   -0.50440  -0.49390  -0.48951  -0.47243  -0.46885
 Alpha  occ. eigenvalues --   -0.46476  -0.45011  -0.44846  -0.43147  -0.41969
 Alpha  occ. eigenvalues --   -0.40903  -0.40290  -0.38455  -0.37782  -0.37286
 Alpha  occ. eigenvalues --   -0.37214  -0.31181  -0.26688  -0.26619  -0.22487
 Alpha virt. eigenvalues --    0.03660   0.04914   0.05025   0.05355   0.05654
 Alpha virt. eigenvalues --    0.05826   0.06012   0.06608   0.06901   0.07247
 Alpha virt. eigenvalues --    0.08905   0.08976   0.09708   0.09971   0.10373

  Beta  occ. eigenvalues --  -75.94930 -29.32163 -29.32103 -29.32042 -21.11917
  Beta  occ. eigenvalues --  -21.08108 -21.07979 -15.79805 -13.58242 -13.52195
  Beta  occ. eigenvalues --  -13.45507 -11.62347 -11.48388 -11.46901 -11.43764
  Beta  occ. eigenvalues --  -11.41415 -11.38476 -11.35859  -8.30408  -1.94164
  Beta  occ. eigenvalues --   -1.76381  -1.68764  -1.47925  -1.32847  -1.27479
  Beta  occ. eigenvalues --   -1.14202  -1.06658  -1.00055  -0.92293  -0.90767
  Beta  occ. eigenvalues --   -0.89628  -0.84580  -0.83744  -0.75253  -0.70943
  Beta  occ. eigenvalues --   -0.66767  -0.65225  -0.64087  -0.63602  -0.60976
  Beta  occ. eigenvalues --   -0.58514  -0.56858  -0.55025  -0.51678  -0.50604
  Beta  occ. eigenvalues --   -0.49617  -0.48812  -0.47490  -0.46881  -0.46757
  Beta  occ. eigenvalues --   -0.45380  -0.44959  -0.44737  -0.42640  -0.40819
  Beta  occ. eigenvalues --   -0.39360  -0.38516  -0.37662  -0.37288  -0.37120
  Beta  occ. eigenvalues --   -0.31099  -0.26655  -0.26530  -0.22514
  Beta virt. eigenvalues --    0.02925   0.03661   0.04918   0.05026   0.05360
  Beta virt. eigenvalues --    0.05663   0.05829   0.06025   0.06615   0.07001
  Beta virt. eigenvalues --    0.07268   0.08909   0.08987   0.09761   0.09979

 Mulliken charges and spin densities:
               1          2
     1  N   -2.243196   1.142572
     2  S    8.549415  -0.112065
     3  O   -3.759610  -0.005266
     4  C   -2.188405   0.005824
     5  C   -2.984229   0.000395
     6  H    1.709087  -0.004080
     7  H    1.790930   0.003047
     8  C   -1.856989   0.001671
     9  H    1.533359  -0.000094
    10  H    1.524319  -0.000178
    11  C   -2.944872  -0.000292
    12  C   -4.018654  -0.222307
    13  H    1.588549   0.048159
    14  C    0.879651   0.013995
    15  F    0.306358   0.002297
    16  F    0.296519  -0.000455
    17  F    0.282535   0.002004
    18  O   -2.562695   0.023765
    19  O   -2.642518   0.053778
    20  C   -4.513039  -0.000073
    21  H    1.437501   0.000026
    22  H    1.455318  -0.000024
    23  H    1.323083  -0.000016
    24  H    1.081129  -0.000008
    25  H    1.316958  -0.000000
    26  H    1.582066   0.046998
    27  H    1.522204   0.000538
    28  H    1.535226  -0.000210
 Sum of Mulliken charges =   0.00000   1.00000

 Dipole moment (field-independent basis, Debye):
    X=             -1.6202    Y=             -2.7412    Z=             -0.2581  Tot=              3.1946
                          Isotropic Fermi Contact Couplings
        Atom                 a.u.       MegaHertz       Gauss      10(-4) cm-1
     1  N(14)              0.21489      69.43341      24.77557      23.16049
     2  S(33)             -0.09526     -32.71956     -11.67515     -10.91407
     3  O(17)             -0.00252       1.52506       0.54418       0.50870
     4  C(13)             -0.00082      -0.92097      -0.32863      -0.30720
     5  C(13)             -0.00007      -0.07866      -0.02807      -0.02624
     6  H(1)               0.00009       0.40677       0.14515       0.13569
     7  H(1)               0.00025       1.13727       0.40581       0.37935
     8  C(13)             -0.00004      -0.04029      -0.01437      -0.01344

 Normal termination of Gaussian 16 at Wed Apr  9 01:11:04 2025.
