 Gaussian 16, Revision C.01,

 ----------------------------------------------------------------------
 #t hf aug-cc-pvdz symm=none int=(grid=ultrafine) guess=(read,tcheck) s
 table=(opt,rrhf)
 ----------------------------------------------------------------------
 -----
 title
 -----
 Symbolic Z-matrix:
 Charge =  0 Multiplicity = 1

 SCF Done:  E(RHF) =  -1000.91199748     A.U. after   17 cycles
 Normal termination of Gaussian 16 at Wed Apr  9 02:38:11 2025.
 Gaussian 16:  ES64L-G16RevC.01  3-Jul-2019

 ----------------------------------------------------------------------
 #t hf aug-cc-pvdz iop(5/13=1,5/36=2,99/5=2) pseudo=read geom=check gue
 ss=(read,tcheck) scf=(maxcycle=1)
 ----------------------------------------------------------------------
 -----
 title
 -----
 Structure from the checkpoint file:  "BH10_85_reverse_mol2.chk"
 Charge =  0 Multiplicity = 1

                         Standard orientation:
 ---------------------------------------------------------------------
 Center     Atomic      Atomic             Coordinates (Angstroms)
 Number     Number       Type             X           Y           Z
 ---------------------------------------------------------------------
      1          6           0        0.342742    0.090939    2.160585
      2          6           0       -1.592826   -0.299647    0.757385
      3          6           0        0.831975    1.159858    1.226104
      4          6           0       -1.348289    0.862489    0.066196
      5          6           0       -2.272855    1.337658   -1.021948
      6          6           0       -0.759966   -0.605231    1.906230
      7          6           0       -0.041150    2.903986   -0.302695
      8          6           0       -2.652366   -1.218886    0.378301
      9          6           0        2.113707    0.771005    0.445505
     10          6           0        3.272233    0.599590    1.439905
     11          1           0        3.163097   -0.305926    2.040662
     12          1           0        3.325217    1.446234    2.132652
     13          1           0        2.365060    1.635041   -0.185877
     14          1           0        4.232926    0.539249    0.927736
     15          7           0       -0.259693    1.619971    0.343451
     16         14           0        2.063821   -0.690851   -0.784196
     17          6           0        0.812315   -0.413598   -2.160028
     18          6           0        3.770382   -0.737873   -1.581049
     19          6           0        1.733684   -2.344370    0.033090
     20          1           0        0.850275    3.357344    0.125167
     21          1           0       -0.874074    3.588708   -0.132753
     22          1           0        0.117411    2.806238   -1.380126
     23          1           0        4.047435    0.232061   -2.003542
     24          1           0        3.785944   -1.466873   -2.395578
     25          1           0        4.548603   -1.026734   -0.871351
     26          1           0        0.861958    0.600852   -2.564236
     27          1           0       -0.204532   -0.601949   -1.816467
     28          1           0        1.014726   -1.103379   -2.983681
     29          1           0        0.701950   -2.428645    0.374995
     30          1           0        2.383762   -2.508235    0.895668
     31          1           0        1.922264   -3.153115   -0.678680
     32          6           0       -3.479305   -0.855622   -0.838218
     33          6           0       -3.632127    0.651018   -0.973616
     34          1           0       -4.439649   -1.364284   -0.753590
     35          1           0       -2.972520   -1.267019   -1.719812
     36          1           0       -4.195388    1.032828   -0.117016
     37          1           0       -4.202258    0.906087   -1.869558
     38          1           0       -1.788579    1.153769   -1.989063
     39          1           0       -2.406113    2.417541   -0.951773
     40          8           0       -2.857857   -2.260931    0.981366
     41          1           0        0.941877   -0.104225    3.040786
     42          1           0       -1.089280   -1.408498    2.553176
     43          1           0        1.108171    2.034593    1.831449
 ---------------------------------------------------------------------

 SCF Done:  E(RHF) =  -1004.58124639     A.U. after    2 cycles

 The electronic state is 1-A.
 Alpha  occ. eigenvalues --  -76.17686 -21.00765 -15.75489 -11.54175 -11.49616
 Alpha  occ. eigenvalues --  -11.49296 -11.46540 -11.44995 -11.42562 -11.42134
 Alpha  occ. eigenvalues --  -11.41097 -11.39767 -11.38293 -11.37577 -11.35955
 Alpha  occ. eigenvalues --  -11.35312 -11.34527 -11.33840  -5.51949  -2.16537
 Alpha  occ. eigenvalues --   -2.15921  -2.15725  -1.67553  -1.50514  -1.28643
 Alpha  occ. eigenvalues --   -1.23352  -1.17789  -1.09807  -1.06394  -1.05734
 Alpha  occ. eigenvalues --   -1.03228  -1.00674  -1.00194  -0.94769  -0.90165
 Alpha  occ. eigenvalues --   -0.86252  -0.82640  -0.76039  -0.69930  -0.68526
 Alpha  occ. eigenvalues --   -0.67593  -0.65557  -0.64434  -0.61717  -0.60242
 Alpha  occ. eigenvalues --   -0.59394  -0.58759  -0.58395  -0.56996  -0.56466
 Alpha  occ. eigenvalues --   -0.56132  -0.55451  -0.54519  -0.54031  -0.53404
 Alpha  occ. eigenvalues --   -0.53071  -0.52871  -0.51472  -0.50290  -0.49145
 Alpha  occ. eigenvalues --   -0.48534  -0.45744  -0.44693  -0.42267  -0.40509
 Alpha  occ. eigenvalues --   -0.39408  -0.38623  -0.37791  -0.36392  -0.35377
 Alpha  occ. eigenvalues --   -0.25210  -0.22865
 Alpha virt. eigenvalues --    0.03461   0.04028   0.04168   0.04457   0.04477
 Alpha virt. eigenvalues --    0.04571   0.05786   0.05914   0.06009   0.06182
 Alpha virt. eigenvalues --    0.06415   0.06526   0.06810   0.07087   0.07626

 Mulliken charges:
               1
     1  C   -0.955498
     2  C    0.933405
     3  C   -2.083720
     4  C    9.816729
     5  C   -4.593645
     6  C   -2.227001
     7  C   -5.245825
     8  C    5.981847
     9  C   -3.524834
    10  C   -5.665553
    11  H    1.421129
    12  H    1.238546
    13  H    1.718028
    14  H    1.123587
    15  N   -6.022025
    16  Si  14.381452
    17  C   -7.496404
    18  C   -6.444379
    19  C   -6.899149
    20  H    1.467007
    21  H    1.559238
    22  H    1.517253
    23  H    0.681437
    24  H    1.092184
    25  H    1.106733
    26  H    0.898914
    27  H    2.199247
    28  H    0.941740
    29  H    1.345065
    30  H    0.867115
    31  H    0.992090
    32  C   -5.214446
    33  C   -3.855395
    34  H    1.305446
    35  H    1.355815
    36  H    1.450357
    37  H    1.240586
    38  H    1.289207
    39  H    1.321775
    40  O   -4.391261
    41  H    1.749961
    42  H    2.083615
    43  H    1.539623
 Sum of Mulliken charges =  -0.00000

 Dipole moment (field-independent basis, Debye):
    X=              1.5222    Y=              3.9345    Z=             -1.6871  Tot=              4.5435

 Test job not archived.
 1\1\GINC-SE461\SP\RHF\Aug-CC-pVDZ\C15H25N1O1Si1\OHZDE\09-Apr-2025\0\\#
 t hf aug-cc-pvdz iop(5/13=1,5/36=2,99/5=2) pseudo=read geom=check gues
 s=(read,tcheck) scf=(maxcycle=1)\\title\\0,1\C,0,0.342742,0.090939,2.1
 60585\C,0,-1.592826,-0.299647,0.757385\C,0,0.831975,1.159858,1.226104\
 C,0,-1.348289,0.862489,0.066196\C,0,-2.272855,1.337658,-1.021948\C,0,-
 0.759966,-0.605231,1.90623\C,0,-0.04115,2.903986,-0.302695\C,0,-2.6523
 66,-1.218886,0.378301\C,0,2.113707,0.771005,0.445505\C,0,3.272233,0.59
 959,1.439905\H,0,3.163097,-0.305926,2.040662\H,0,3.325217,1.446234,2.1

 Normal termination of Gaussian 16 at Wed Apr  9 02:39:45 2025.
