 Gaussian 16, Revision C.01,

 ----------------------------------------------------------------------
 #t hf aug-cc-pvdz symm=none int=(grid=ultrafine) guess=(read,tcheck) s
 table=opt
 ----------------------------------------------------------------------
 -----
 title
 -----
 Symbolic Z-matrix:
 Charge =  0 Multiplicity = 2

 SCF Done:  E(UHF) =  -872.822078043     A.U. after   20 cycles
 Normal termination of Gaussian 16 at Wed Apr  9 00:58:24 2025.
 Gaussian 16:  ES64L-G16RevC.01  3-Jul-2019

 ----------------------------------------------------------------------
 #t hf aug-cc-pvdz iop(5/13=1,5/36=2,99/5=2) pseudo=read geom=check gue
 ss=(read,tcheck) scf=(maxcycle=1)
 ----------------------------------------------------------------------
 -----
 title
 -----
 Structure from the checkpoint file:  "BH10-RE_123_mol1.chk"
 Charge =  0 Multiplicity = 2

                         Standard orientation:
 ---------------------------------------------------------------------
 Center     Atomic      Atomic             Coordinates (Angstroms)
 Number     Number       Type             X           Y           Z
 ---------------------------------------------------------------------
      1          7           0       -0.267027    0.651264   -0.143902
      2         16           0        0.921461   -0.497541    0.051396
      3          8           0        2.131789    0.244328   -0.673659
      4          6           0        2.657335    1.438297   -0.062215
      5          6           0       -1.668592    0.257404   -0.011218
      6          8           0        1.188901   -0.572328    1.471580
      7          8           0        0.685250   -1.682971   -0.729684
      8          1           0        3.502708    1.721115   -0.682831
      9          1           0        2.982854    1.224047    0.954838
     10          1           0        1.897380    2.219424   -0.069616
     11          6           0       -1.930053   -0.825171    1.041905
     12          6           0       -2.106480   -0.233875   -1.407844
     13          6           0       -2.417038    1.542268    0.346488
     14          1           0       -1.464017   -1.773393    0.774822
     15          1           0       -3.006589   -0.986485    1.117028
     16          1           0       -1.557488   -0.518048    2.019395
     17          1           0       -1.581188   -1.147023   -1.682960
     18          1           0       -1.912649    0.528753   -2.162999
     19          1           0       -3.179800   -0.431529   -1.380030
     20          1           0       -2.103378    1.909137    1.325020
     21          1           0       -3.491338    1.351383    0.376992
     22          1           0       -2.219239    2.318670   -0.393274
 ---------------------------------------------------------------------

 SCF Done:  E(UHF) =  -875.254065262     A.U. after    2 cycles

 The electronic state is 2-A.
 Alpha  occ. eigenvalues --  -75.92931 -21.10493 -21.06358 -21.06331 -15.79722
 Alpha  occ. eigenvalues --  -13.55952 -13.48355 -13.43428 -11.46804 -11.43446
 Alpha  occ. eigenvalues --  -11.40829 -11.40448 -11.36634  -8.28348  -1.92331
 Alpha  occ. eigenvalues --   -1.74724  -1.67552  -1.45156  -1.20923  -1.04599
 Alpha  occ. eigenvalues --   -1.03012  -1.02697  -0.90943  -0.78115  -0.68396
 Alpha  occ. eigenvalues --   -0.66996  -0.66635  -0.64558  -0.63134  -0.61073
 Alpha  occ. eigenvalues --   -0.58341  -0.56798  -0.54755  -0.53574  -0.52590
 Alpha  occ. eigenvalues --   -0.50821  -0.48263  -0.46078  -0.45307  -0.42225
 Alpha  occ. eigenvalues --   -0.40164  -0.38925  -0.37413  -0.36177  -0.35826
 Alpha virt. eigenvalues --    0.03417   0.04107   0.05322   0.05476   0.05809
 Alpha virt. eigenvalues --    0.05923   0.06150   0.06808   0.07167   0.07760
 Alpha virt. eigenvalues --    0.08722   0.09323   0.09999   0.11363   0.12587

  Beta  occ. eigenvalues --  -75.93003 -21.10505 -21.06250 -21.06108 -15.76631
  Beta  occ. eigenvalues --  -13.56058 -13.48449 -13.43659 -11.47007 -11.43449
  Beta  occ. eigenvalues --  -11.40739 -11.40324 -11.36559  -8.28445  -1.92171
  Beta  occ. eigenvalues --   -1.74583  -1.67143  -1.38990  -1.17428  -1.04030
  Beta  occ. eigenvalues --   -1.02703  -1.02235  -0.90209  -0.76854  -0.67840
  Beta  occ. eigenvalues --   -0.66660  -0.64510  -0.62743  -0.62316  -0.60457
  Beta  occ. eigenvalues --   -0.56981  -0.55932  -0.54139  -0.52570  -0.51434
  Beta  occ. eigenvalues --   -0.47821  -0.46696  -0.45000  -0.44197  -0.41441
  Beta  occ. eigenvalues --   -0.39653  -0.37517  -0.36455  -0.34469
  Beta virt. eigenvalues --    0.03398   0.03884   0.04277   0.05351   0.05737
  Beta virt. eigenvalues --    0.05901   0.06082   0.06350   0.06872   0.07244
  Beta virt. eigenvalues --    0.07809   0.08726   0.09330   0.10030   0.11394

 Mulliken charges and spin densities:
               1          2
     1  N   -4.242408   1.205566
     2  S    9.000285  -0.108982
     3  O   -3.322901  -0.000444
     4  C   -3.056593   0.002136
     5  C    4.062653  -0.396548
     6  O   -2.735352   0.052741
     7  O   -2.664902   0.025018
     8  H    1.309540  -0.000190
     9  H    1.420095  -0.001417
    10  H    1.477618  -0.003618
    11  C   -4.240016   0.059412
    12  C   -4.248701   0.130493
    13  C   -4.134946   0.033394
    14  H    1.218085   0.002008
    15  H    1.129675  -0.004261
    16  H    1.333984  -0.000200
    17  H    1.447152   0.003024
    18  H    1.335437   0.001687
    19  H    1.172263   0.000261
    20  H    1.294758   0.007868
    21  H    1.167945  -0.003344
    22  H    1.276327  -0.004604
 Sum of Mulliken charges =  -0.00000   1.00000

 Dipole moment (field-independent basis, Debye):
    X=             -0.6496    Y=              1.5038    Z=             -0.3172  Tot=              1.6686
                          Isotropic Fermi Contact Couplings
        Atom                 a.u.       MegaHertz       Gauss      10(-4) cm-1
     1  N(14)              0.22101      71.40835      25.48028      23.81926
     2  S(33)             -0.10464     -35.94043     -12.82444     -11.98844
     3  O(17)             -0.00111       0.67472       0.24076       0.22506
     4  C(13)             -0.00109      -1.22009      -0.43536      -0.40698
     5  C(13)             -0.02711     -30.47292     -10.87350     -10.16467
     6  O(17)              0.01516      -9.18924      -3.27895      -3.06520
     7  O(17)              0.00298      -1.80937      -0.64563      -0.60354
     8  H(1)               0.00004       0.18883       0.06738       0.06299

 1\1\GINC-SE227\SP\UHF\Aug-CC-pVDZ\C5H12N1O3S1(2)\OHZDE\09-Apr-2025\0\\
 #t hf aug-cc-pvdz iop(5/13=1,5/36=2,99/5=2) pseudo=read geom=check gue
 ss=(read,tcheck) scf=(maxcycle=1)\\title\\0,2\N,0,-0.267027,0.651264,-
 0.143902\S,0,0.921461,-0.497541,0.051396\O,0,2.131789,0.244328,-0.6736
 59\C,0,2.657335,1.438297,-0.062215\C,0,-1.668592,0.257404,-0.011218\O,
 0,1.188901,-0.572328,1.47158\O,0,0.68525,-1.682971,-0.729684\H,0,3.502
 708,1.721115,-0.682831\H,0,2.982854,1.224047,0.954838\H,0,1.89738,2.21
 9424,-0.069616\C,0,-1.930053,-0.825171,1.041905\C,0,-2.10648,-0.233875

 Normal termination of Gaussian 16 at Wed Apr  9 00:58:39 2025.
