 Gaussian 16, Revision C.01,

 ----------------------------------------------------------------------
 #t hf aug-cc-pvdz symm=none int=(grid=ultrafine) guess=(read,tcheck) s
 table=opt
 ----------------------------------------------------------------------
 -----
 title
 -----
 Symbolic Z-matrix:
 Charge =  0 Multiplicity = 2

 SCF Done:  E(UHF) =  -1103.53867548     A.U. after   18 cycles
 Normal termination of Gaussian 16 at Wed Apr  9 02:07:04 2025.
 Gaussian 16:  ES64L-G16RevC.01  3-Jul-2019

 ----------------------------------------------------------------------
 #t hf aug-cc-pvdz iop(5/13=1,5/36=2,99/5=2) pseudo=read geom=check gue
 ss=(read,tcheck) scf=(maxcycle=1)
 ----------------------------------------------------------------------
 -----
 title
 -----
 Structure from the checkpoint file:  "BH10_46_forward_mol2.chk"
 Charge =  0 Multiplicity = 2

                         Standard orientation:
 ---------------------------------------------------------------------
 Center     Atomic      Atomic             Coordinates (Angstroms)
 Number     Number       Type             X           Y           Z
 ---------------------------------------------------------------------
      1          6           0       -1.153848   -0.847181    1.138372
      2          1           0       -1.586719   -0.092741    1.799772
      3          1           0       -1.067639   -1.759624    1.736650
      4          6           0       -2.125926   -1.110269   -0.026849
      5          1           0       -1.802353   -1.996043   -0.583298
      6          1           0       -3.111717   -1.333727    0.390479
      7          6           0       -2.243603    0.046337   -1.009489
      8          1           0       -3.012954   -0.182177   -1.749311
      9          1           0       -1.299475    0.173972   -1.550709
     10          6           0        0.207560   -0.391459    0.725600
     11          6           0        1.871339    1.184145   -0.607499
     12          6           0        2.550427   -0.165488   -0.446215
     13          1           0        1.383139    1.262742   -1.578899
     14          1           0        2.576238    2.006834   -0.489853
     15          1           0        3.133873   -0.428919   -1.328252
     16          1           0        3.197887   -0.176521    0.430582
     17          8           0       -2.628681    1.264499   -0.392401
     18          1           0       -1.837573    1.685820   -0.039534
     19         16           0        1.243515   -1.415923   -0.244368
     20         16           0        0.620301    1.317666    0.710497
 ---------------------------------------------------------------------

 SCF Done:  E(UHF) =  -1105.46353007     A.U. after    2 cycles

 The electronic state is 2-A.
 Alpha  occ. eigenvalues --  -75.69938 -75.69556 -21.05070 -13.16687 -13.15534
 Alpha  occ. eigenvalues --  -13.14490 -13.11675 -13.08565 -13.04958 -11.45547
 Alpha  occ. eigenvalues --  -11.44729 -11.43057 -11.40904 -11.40111 -11.36310
 Alpha  occ. eigenvalues --   -8.04251  -8.03746  -1.69551  -1.37100  -1.20898
 Alpha  occ. eigenvalues --   -1.12788  -1.09718  -0.98768  -0.87347  -0.86129
 Alpha  occ. eigenvalues --   -0.75865  -0.67718  -0.66901  -0.64380  -0.63776
 Alpha  occ. eigenvalues --   -0.58365  -0.55408  -0.54584  -0.52309  -0.50011
 Alpha  occ. eigenvalues --   -0.45914  -0.43504  -0.42606  -0.41962  -0.39252
 Alpha  occ. eigenvalues --   -0.34031  -0.30196  -0.25211  -0.17082
 Alpha virt. eigenvalues --    0.02739   0.04176   0.04763   0.04869   0.05815
 Alpha virt. eigenvalues --    0.06114   0.06550   0.07013   0.07535   0.08116
 Alpha virt. eigenvalues --    0.09207   0.09573   0.10185   0.11357   0.11819

  Beta  occ. eigenvalues --  -75.69922 -75.69535 -21.05068 -13.16760 -13.15881
  Beta  occ. eigenvalues --  -13.14601 -13.11910 -13.08097 -13.04435 -11.45490
  Beta  occ. eigenvalues --  -11.44313 -11.42709 -11.40864 -11.38775 -11.36089
  Beta  occ. eigenvalues --   -8.04225  -8.03719  -1.69543  -1.35425  -1.20083
  Beta  occ. eigenvalues --   -1.12400  -1.07749  -0.98637  -0.87140  -0.84952
  Beta  occ. eigenvalues --   -0.72044  -0.67187  -0.66242  -0.64044  -0.63504
  Beta  occ. eigenvalues --   -0.57077  -0.55198  -0.53560  -0.50453  -0.47968
  Beta  occ. eigenvalues --   -0.44697  -0.42717  -0.42162  -0.39184  -0.33955
  Beta  occ. eigenvalues --   -0.31880  -0.29791  -0.23398
  Beta virt. eigenvalues --    0.02748   0.04173   0.04752   0.04891   0.05830
  Beta virt. eigenvalues --    0.06120   0.06473   0.06998   0.07538   0.08132
  Beta virt. eigenvalues --    0.09277   0.09466   0.10295   0.10547   0.11526

 Mulliken charges and spin densities:
               1          2
     1  C   -2.315657  -0.369521
     2  H    1.482765  -0.005600
     3  H    1.207891  -0.002193
     4  C   -2.614816   0.108275
     5  H    1.470889  -0.007399
     6  H    1.297946  -0.005487
     7  C   -1.336551  -0.015303
     8  H    1.172719  -0.000556
     9  H    1.821860  -0.010309
    10  C   -0.700696   1.345966
    11  C   -3.663762  -0.020004
    12  C   -3.739771   0.001264
    13  H    1.626378  -0.011364
    14  H    1.351219  -0.001319
    15  H    1.346117  -0.001552
    16  H    1.579832  -0.003150
    17  O   -2.705493  -0.005423
    18  H    1.022830  -0.000383
    19  S    1.067757   0.016578
    20  S    0.628544  -0.012522
 Sum of Mulliken charges =  -0.00000   1.00000

 Dipole moment (field-independent basis, Debye):
    X=              1.4830    Y=             -0.3650    Z=             -0.2624  Tot=              1.5496
                          Isotropic Fermi Contact Couplings
        Atom                 a.u.       MegaHertz       Gauss      10(-4) cm-1
     1  C(13)             -0.03040     -34.18002     -12.19628     -11.40123
     2  H(1)               0.00262      11.71048       4.17859       3.90620
     3  H(1)               0.00751      33.55404      11.97292      11.19242
     4  C(13)              0.03196      35.92550      12.81911      11.98346
     5  H(1)              -0.00105      -4.67859      -1.66944      -1.56061
     6  H(1)              -0.00007      -0.30075      -0.10731      -0.10032
     7  C(13)             -0.00259      -2.90642      -1.03708      -0.96948
     8  H(1)               0.00001       0.03965       0.01415       0.01322

 Normal termination of Gaussian 16 at Wed Apr  9 02:07:16 2025.
