 Gaussian 16, Revision C.01,

 ----------------------------------------------------------------------
 #t hf aug-cc-pvdz symm=none int=(grid=ultrafine) guess=(read,tcheck) s
 table=(opt,rrhf)
 ----------------------------------------------------------------------
 -----
 title
 -----
 Symbolic Z-matrix:
 Charge =  0 Multiplicity = 1

 SCF Done:  E(RHF) =  -1063.90830731     A.U. after   13 cycles
 Normal termination of Gaussian 16 at Wed Apr  9 01:52:01 2025.
 Gaussian 16:  ES64L-G16RevC.01  3-Jul-2019

 ----------------------------------------------------------------------
 #t hf aug-cc-pvdz iop(5/13=1,5/36=2,99/5=2) pseudo=read geom=check gue
 ss=(read,tcheck) scf=(maxcycle=1)
 ----------------------------------------------------------------------
 -----
 title
 -----
 Structure from the checkpoint file:  "BH10_328_forward_mol2.chk"
 Charge =  0 Multiplicity = 1

                         Standard orientation:
 ---------------------------------------------------------------------
 Center     Atomic      Atomic             Coordinates (Angstroms)
 Number     Number       Type             X           Y           Z
 ---------------------------------------------------------------------
      1          8           0        2.821036   -0.933830    0.527642
      2          6           0        3.238793   -1.782040   -0.551615
      3          1           0        3.585424   -1.176654   -1.389436
      4          1           0        4.054962   -2.384560   -0.162572
      5          1           0        2.413188   -2.422802   -0.861931
      6         15           0        1.647779    0.102911    0.378947
      7          8           0        1.374017    0.906064    1.582842
      8          8           0        2.030807    0.961250   -0.915592
      9          8           0        0.425610   -0.826146   -0.102727
     10          6           0       -0.703577   -0.239907   -0.777952
     11          6           0       -1.493449    0.733443    0.126290
     12          8           0       -2.850052    0.347881    0.014402
     13          6           0       -2.884807   -1.070293   -0.172629
     14          6           0       -1.715245   -1.329460   -1.128345
     15          1           0       -2.041642   -1.211192   -2.161836
     16          1           0       -1.271287   -2.317845   -1.016142
     17          1           0       -0.326607    0.261571   -1.671004
     18          1           0        1.478419    1.768318   -0.951542
     19          6           0       -1.371996    2.195849   -0.266798
     20          1           0       -1.140090    0.605985    1.155720
     21          8           0       -0.025733    2.651242   -0.166195
     22          1           0       -2.033050    2.799775    0.359657
     23          1           0       -1.672700    2.330311   -1.306650
     24          1           0        0.292145    2.504324    0.739051
     25          6           0       -2.767700   -1.814694    1.147752
     26          1           0       -3.847935   -1.285157   -0.636454
     27          1           0       -2.889215   -2.887941    0.984297
     28          1           0       -3.543113   -1.480303    1.838310
     29          1           0       -1.792761   -1.656579    1.613151
 ---------------------------------------------------------------------

 SCF Done:  E(RHF) =  -1067.31072030     A.U. after    2 cycles

 The electronic state is 1-A.
 Alpha  occ. eigenvalues -- -105.32201 -21.09945 -21.08860 -21.07973 -21.07830
 Alpha  occ. eigenvalues --  -21.04816 -21.01880 -11.56879 -11.47500 -11.46213
 Alpha  occ. eigenvalues --  -11.43446 -11.43204 -11.40465 -11.37207  -2.95489
 Alpha  occ. eigenvalues --   -2.00629  -1.94314  -1.92247  -1.79392  -1.74961
 Alpha  occ. eigenvalues --   -1.72051  -1.44896  -1.41533  -1.27033  -1.19185
 Alpha  occ. eigenvalues --   -1.13882  -1.04429  -0.98414  -0.94248  -0.83889
 Alpha  occ. eigenvalues --   -0.83297  -0.72015  -0.71063  -0.67002  -0.64013
 Alpha  occ. eigenvalues --   -0.63310  -0.62790  -0.61434  -0.59813  -0.57667
 Alpha  occ. eigenvalues --   -0.57271  -0.55911  -0.54634  -0.50704  -0.50098
 Alpha  occ. eigenvalues --   -0.48830  -0.47566  -0.45619  -0.42765  -0.41669
 Alpha  occ. eigenvalues --   -0.40567  -0.38827  -0.36848  -0.36106  -0.34013
 Alpha  occ. eigenvalues --   -0.31867  -0.29766  -0.27046  -0.25590  -0.16425
 Alpha virt. eigenvalues --    0.03759   0.04156   0.04541   0.04596   0.04995
 Alpha virt. eigenvalues --    0.05099   0.06252   0.06895   0.07112   0.07658
 Alpha virt. eigenvalues --    0.07954   0.08332   0.09056   0.09392   0.09895

 Mulliken charges:
               1
     1  O   -3.332622
     2  C   -3.189514
     3  H    1.391286
     4  H    1.191945
     5  H    1.571252
     6  P   10.379357
     7  O   -3.084748
     8  O   -3.284114
     9  O   -5.331998
    10  C    2.066354
    11  C   -0.166769
    12  O   -4.132373
    13  C    0.449396
    14  C   -4.347117
    15  H    1.203691
    16  H    1.676010
    17  H    2.473709
    18  H    1.349777
    19  C   -1.718750
    20  H    2.336509
    21  O   -2.796380
    22  H    1.270586
    23  H    1.364781
    24  H    0.952991
    25  C   -4.210253
    26  H    1.881278
    27  H    1.230978
    28  H    1.311919
    29  H    1.492818
 Sum of Mulliken charges =  -0.00000

 Dipole moment (field-independent basis, Debye):
    X=             -0.3110    Y=             -2.3914    Z=             -2.6374  Tot=              3.5737

 Test job not archived.
 1\1\GINC-SE334\SP\RHF\Aug-CC-pVDZ\C7H15O6P1\OHZDE\09-Apr-2025\0\\#t hf
  aug-cc-pvdz iop(5/13=1,5/36=2,99/5=2) pseudo=read geom=check guess=(r
 ead,tcheck) scf=(maxcycle=1)\\title\\0,1\O,0,2.821036,-0.93383,0.52764
 2\C,0,3.238793,-1.78204,-0.551615\H,0,3.585424,-1.176654,-1.389436\H,0
 ,4.054962,-2.38456,-0.162572\H,0,2.413188,-2.422802,-0.861931\P,0,1.64
 7779,0.102911,0.378947\O,0,1.374017,0.906064,1.582842\O,0,2.030807,0.9
 6125,-0.915592\O,0,0.42561,-0.826146,-0.102727\C,0,-0.703577,-0.239907
 ,-0.777952\C,0,-1.493449,0.733443,0.12629\O,0,-2.850052,0.347881,0.014

 Normal termination of Gaussian 16 at Wed Apr  9 01:52:33 2025.
