 Gaussian 16, Revision C.01,

 ----------------------------------------------------------------------
 #t hf aug-cc-pvdz symm=none int=(grid=ultrafine) guess=(read,tcheck) s
 table=(opt,rrhf)
 ----------------------------------------------------------------------
 -----
 title
 -----
 Symbolic Z-matrix:
 Charge =  0 Multiplicity = 1

 SCF Done:  E(RHF) =  -905.640949363     A.U. after   15 cycles
 Normal termination of Gaussian 16 at Wed Apr  9 00:58:18 2025.
 Gaussian 16:  ES64L-G16RevC.01  3-Jul-2019

 ----------------------------------------------------------------------
 #t hf aug-cc-pvdz iop(5/13=1,5/36=2,99/5=2) pseudo=read geom=check gue
 ss=(read,tcheck) scf=(maxcycle=1)
 ----------------------------------------------------------------------
 -----
 title
 -----
 Structure from the checkpoint file:  "BH10_104_forward_mol2.chk"
 Charge =  0 Multiplicity = 1

                         Standard orientation:
 ---------------------------------------------------------------------
 Center     Atomic      Atomic             Coordinates (Angstroms)
 Number     Number       Type             X           Y           Z
 ---------------------------------------------------------------------
      1          6           0       -2.271412    0.007798    0.000021
      2          6           0       -2.836664   -0.614559    1.265040
      3          6           0       -0.754924    0.012642    0.000002
      4          6           0       -2.836699   -0.614947   -1.264790
      5          1           0       -2.458578   -0.088276    2.141927
      6          1           0       -2.547793   -1.663733    1.341124
      7          1           0       -3.925773   -0.551725    1.254337
      8          6           0       -0.051628   -1.189656    0.000160
      9          6           0       -0.040762    1.203969   -0.000167
     10          1           0       -2.547839   -1.664147   -1.340558
     11          1           0       -2.458633   -0.088939   -2.141850
     12          1           0       -3.925807   -0.552101   -1.254078
     13          6           0        1.347622    1.200521   -0.000179
     14          6           0        2.023428   -0.006061   -0.000020
     15          6           0        1.333404   -1.207637    0.000151
     16          1           0       -0.582884   -2.134105    0.000295
     17          1           0        1.874913   -2.144137    0.000274
     18          1           0       -0.575128    2.143521   -0.000291
     19          1           0        1.900279    2.130626   -0.000311
     20         17           0        3.770859   -0.018455   -0.000033
     21          9           0       -2.703506    1.352705   -0.000180
 ---------------------------------------------------------------------

 SCF Done:  E(RHF) =  -907.934704201     A.U. after    2 cycles

 The electronic state is 1-A.
 Alpha  occ. eigenvalues --  -99.89393 -29.24362 -11.52954 -11.50561 -11.45895
 Alpha  occ. eigenvalues --  -11.45673 -11.44527 -11.42430 -11.40742 -11.40210
 Alpha  occ. eigenvalues --  -11.37747 -10.46774  -9.66820  -9.65899  -9.65724
 Alpha  occ. eigenvalues --   -1.42311  -1.33368  -1.24312  -1.11472  -1.07957
 Alpha  occ. eigenvalues --   -1.03875  -0.93678  -0.89127  -0.84922  -0.74036
 Alpha  occ. eigenvalues --   -0.69819  -0.66301  -0.63228  -0.61687  -0.60694
 Alpha  occ. eigenvalues --   -0.59736  -0.57586  -0.56278  -0.55031  -0.52548
 Alpha  occ. eigenvalues --   -0.51009  -0.50305  -0.47872  -0.46190  -0.44880
 Alpha  occ. eigenvalues --   -0.34766  -0.34716  -0.33507  -0.24744  -0.24710
 Alpha virt. eigenvalues --    0.03252   0.04580   0.05161   0.05481   0.05792
 Alpha virt. eigenvalues --    0.06221   0.06232   0.07294   0.07724   0.08008
 Alpha virt. eigenvalues --    0.08796   0.10112   0.10405   0.11201   0.11832

 Mulliken charges:
               1
     1  C    2.350264
     2  C   -5.019979
     3  C    3.335664
     4  C   -5.019970
     5  H    1.191546
     6  H    1.234336
     7  H    1.196362
     8  C   -0.419575
     9  C   -1.877202
    10  H    1.234330
    11  H    1.191544
    12  H    1.196349
    13  C   -1.568367
    14  C   -3.171954
    15  C   -2.674797
    16  H    2.192477
    17  H    1.730104
    18  H    2.035608
    19  H    1.776199
    20  Cl  -0.881857
    21  F   -0.031083
 Sum of Mulliken charges =  -0.00000

 Dipole moment (field-independent basis, Debye):
    X=             -2.8635    Y=              1.0198    Z=             -0.0001  Tot=              3.0397

 Test job not archived.
 1\1\GINC-SE363\SP\RHF\Aug-CC-pVDZ\C9H10Cl1F1\OHZDE\09-Apr-2025\0\\#t h
 f aug-cc-pvdz iop(5/13=1,5/36=2,99/5=2) pseudo=read geom=check guess=(
 read,tcheck) scf=(maxcycle=1)\\title\\0,1\C,0,-2.271412,0.007798,0.000
 021\C,0,-2.836664,-0.614559,1.26504\C,0,-0.754924,0.012642,0.000002\C,
 0,-2.836699,-0.614947,-1.26479\H,0,-2.458578,-0.088276,2.141927\H,0,-2
 .547793,-1.663733,1.341124\H,0,-3.925773,-0.551725,1.254337\C,0,-0.051
 628,-1.189656,0.00016\C,0,-0.040762,1.203969,-0.000167\H,0,-2.547839,-
 1.664147,-1.340558\H,0,-2.458633,-0.088939,-2.14185\H,0,-3.925807,-0.5

 Normal termination of Gaussian 16 at Wed Apr  9 00:58:32 2025.
