 Gaussian 16, Revision C.01,

 ----------------------------------------------------------------------
 #t hf aug-cc-pvdz symm=none int=(grid=ultrafine) guess=(read,tcheck) s
 table=(opt,rrhf)
 ----------------------------------------------------------------------
 -----
 title
 -----
 Symbolic Z-matrix:
 Charge =  0 Multiplicity = 1

 SCF Done:  E(RHF) =  -1155.49654080     A.U. after   17 cycles
 Normal termination of Gaussian 16 at Wed Apr  9 02:59:13 2025.
 Gaussian 16:  ES64L-G16RevC.01  3-Jul-2019

 ----------------------------------------------------------------------
 #t hf aug-cc-pvdz iop(5/13=1,5/36=2,99/5=2) pseudo=read geom=check gue
 ss=(read,tcheck) scf=(maxcycle=1)
 ----------------------------------------------------------------------
 -----
 title
 -----
 Structure from the checkpoint file:  "BH10_402_forward_mol1.chk"
 Charge =  0 Multiplicity = 1

                         Standard orientation:
 ---------------------------------------------------------------------
 Center     Atomic      Atomic             Coordinates (Angstroms)
 Number     Number       Type             X           Y           Z
 ---------------------------------------------------------------------
      1          6           0       -0.072733   -2.364039   -0.954229
      2          1           0       -0.144263   -3.451906   -0.965247
      3          1           0        0.226554   -2.050967   -1.963374
      4          6           0        1.009081   -1.910167    0.031016
      5          6           0       -0.347302    0.120673    0.461314
      6          1           0       -0.762434   -0.080606    1.454435
      7          1           0       -0.280802    1.202029    0.388628
      8          6           0       -1.349433   -0.371905   -0.603647
      9          1           0       -1.003818   -0.008859   -1.577953
     10          7           0       -1.392107   -1.826935   -0.695906
     11          6           0        2.185726    0.237434    0.245491
     12          6           0        2.043650   -2.787263    0.334780
     13          1           0        2.319651   -2.908822    1.365892
     14          1           0        2.103448   -3.715502   -0.232686
     15          6           0        3.427974   -0.342797   -0.044551
     16          1           0        4.059376    0.175341   -0.764657
     17          6           0        3.870553   -1.588655    0.384798
     18          6           0        1.010934   -0.541567    0.358621
     19          6           0        5.068774   -2.245401   -0.247191
     20          1           0        5.039548   -3.328531   -0.114759
     21          1           0        5.116129   -2.040069   -1.317885
     22          1           0        5.997790   -1.890054    0.210903
     23          1           0        3.775084   -1.769885    1.442754
     24          6           0       -2.721687    0.203873   -0.340338
     25          6           0       -2.069863   -2.436053    0.438444
     26          1           0       -1.630116   -2.137119    1.403391
     27          1           0       -1.955427   -3.518978    0.362402
     28          6           0       -3.542438   -2.064317    0.394164
     29          1           0       -4.017131   -2.609842   -0.427367
     30          6           0       -3.747990   -0.586593    0.174610
     31          1           0       -4.038457   -2.376371    1.317203
     32          6           0       -4.981287    0.000689    0.451942
     33          1           0       -5.778167   -0.615467    0.855411
     34          6           0       -2.953992    1.557236   -0.576369
     35          1           0       -2.159030    2.169022   -0.989089
     36          6           0       -5.204237    1.347130    0.220023
     37          1           0       -6.170175    1.784308    0.442659
     38          6           0       -4.183286    2.131605   -0.302392
     39          1           0       -4.346459    3.184751   -0.496762
     40         14           0        2.137563    2.129861    0.083823
     41          6           0        3.891286    2.766226   -0.152913
     42          1           0        4.325008    2.451097   -1.104626
     43          1           0        3.884618    3.859726   -0.145819
     44          1           0        4.556313    2.431321    0.645855
     45          6           0        1.151369    2.707114   -1.414465
     46          1           0        0.089380    2.467697   -1.358780
     47          1           0        1.544870    2.245962   -2.323982
     48          1           0        1.240167    3.791086   -1.529072
     49          6           0        1.476569    2.910729    1.662438
     50          1           0        2.075500    2.592309    2.519422
     51          1           0        1.544205    4.000357    1.598375
     52          1           0        0.437490    2.654738    1.873283
 ---------------------------------------------------------------------

 SCF Done:  E(RHF) =  -1160.00815691     A.U. after    2 cycles

 The electronic state is 1-A.
 Alpha  occ. eigenvalues --  -76.18023 -15.69751 -11.51876 -11.50623 -11.49183
 Alpha  occ. eigenvalues --  -11.47064 -11.46055 -11.45701 -11.45378 -11.43582
 Alpha  occ. eigenvalues --  -11.42357 -11.41812 -11.40993 -11.40768 -11.40639
 Alpha  occ. eigenvalues --  -11.39316 -11.38404 -11.38154 -11.36213 -11.35588
 Alpha  occ. eigenvalues --  -11.35054 -11.34506 -11.33918  -5.52216  -2.17476
 Alpha  occ. eigenvalues --   -2.16534  -2.15975  -1.48831  -1.33589  -1.29431
 Alpha  occ. eigenvalues --   -1.19735  -1.16771  -1.15001  -1.09842  -1.07040
 Alpha  occ. eigenvalues --   -1.06136  -1.04221  -1.00716  -1.00089  -0.99055
 Alpha  occ. eigenvalues --   -0.93938  -0.90840  -0.86767  -0.85766  -0.84636
 Alpha  occ. eigenvalues --   -0.80619  -0.75479  -0.70110  -0.68744  -0.66628
 Alpha  occ. eigenvalues --   -0.66169  -0.64752  -0.63390  -0.62067  -0.61065
 Alpha  occ. eigenvalues --   -0.59457  -0.58942  -0.57498  -0.56942  -0.56410
 Alpha  occ. eigenvalues --   -0.55989  -0.55729  -0.55534  -0.55033  -0.54044
 Alpha  occ. eigenvalues --   -0.53959  -0.53253  -0.52883  -0.52585  -0.51266
 Alpha  occ. eigenvalues --   -0.51189  -0.49668  -0.48558  -0.47160  -0.46352
 Alpha  occ. eigenvalues --   -0.44888  -0.44276  -0.43207  -0.40676  -0.39029
 Alpha  occ. eigenvalues --   -0.38330  -0.38307  -0.36032  -0.32780  -0.31733
 Alpha  occ. eigenvalues --   -0.30753  -0.27330  -0.24995
 Alpha virt. eigenvalues --    0.03590   0.04078   0.04212   0.04487   0.05058
 Alpha virt. eigenvalues --    0.05224   0.05297   0.05439   0.05580   0.05994
 Alpha virt. eigenvalues --    0.06387   0.06415   0.06768   0.06774   0.07103

 Mulliken charges:
               1
     1  C   -5.036973
     2  H    1.216362
     3  H    1.445673
     4  C    3.845088
     5  C   -4.737423
     6  H    1.305324
     7  H    1.995660
     8  C    0.144468
     9  H    1.094662
    10  N   -2.226654
    11  C   -1.709779
    12  C   -7.415583
    13  H    1.266291
    14  H    1.733703
    15  C   -1.522601
    16  H    1.984747
    17  C   -2.385264
    18  C    5.308162
    19  C   -5.808926
    20  H    1.364494
    21  H    1.343998
    22  H    1.153778
    23  H    1.814110
    24  C    6.903610
    25  C   -5.652908
    26  H    1.869840
    27  H    1.417945
    28  C   -6.030040
    29  H    0.959129
    30  C    6.012390
    31  H    1.127845
    32  C   -3.384933
    33  H    1.874545
    34  C   -1.976973
    35  H    2.217271
    36  C   -2.994418
    37  H    1.597819
    38  C   -4.921565
    39  H    1.625809
    40  Si  13.126053
    41  C   -6.803352
    42  H    1.347239
    43  H    0.930529
    44  H    1.031524
    45  C   -6.926730
    46  H    2.204203
    47  H    0.605942
    48  H    0.939123
    49  C   -6.455007
    50  H    0.904040
    51  H    1.106601
    52  H    1.171155
 Sum of Mulliken charges =   0.00000

 Dipole moment (field-independent basis, Debye):
    X=              0.5893    Y=             -1.2031    Z=              0.1879  Tot=              1.3528

 Test job not archived.
 1\1\GINC-SE095\SP\RHF\Aug-CC-pVDZ\C21H29N1Si1\OHZDE\09-Apr-2025\0\\#t
 hf aug-cc-pvdz iop(5/13=1,5/36=2,99/5=2) pseudo=read geom=check guess=
 (read,tcheck) scf=(maxcycle=1)\\title\\0,1\C,0,-0.072733,-2.364039,-0.
 954229\H,0,-0.144263,-3.451906,-0.965247\H,0,0.226554,-2.050967,-1.963
 374\C,0,1.009081,-1.910167,0.031016\C,0,-0.347302,0.120673,0.461314\H,
 0,-0.762434,-0.080606,1.454435\H,0,-0.280802,1.202029,0.388628\C,0,-1.
 349433,-0.371905,-0.603647\H,0,-1.003818,-0.008859,-1.577953\N,0,-1.39
 2107,-1.826935,-0.695906\C,0,2.185726,0.237434,0.245491\C,0,2.04365,-2

 Normal termination of Gaussian 16 at Wed Apr  9 03:02:16 2025.
