 Gaussian 16, Revision C.01,

 ----------------------------------------------------------------------
 #t hf aug-cc-pvdz symm=none int=(grid=ultrafine) guess=(read,tcheck) s
 table=opt
 ----------------------------------------------------------------------
 -----
 title
 -----
 Symbolic Z-matrix:
 Charge =  0 Multiplicity = 2

 SCF Done:  E(UHF) =  -1247.47446228     A.U. after   20 cycles
 Normal termination of Gaussian 16 at Wed Apr  9 01:11:43 2025.
 Gaussian 16:  ES64L-G16RevC.01  3-Jul-2019

 ----------------------------------------------------------------------
 #t hf aug-cc-pvdz iop(5/13=1,5/36=2,99/5=2) pseudo=read geom=check gue
 ss=(read,tcheck) scf=(maxcycle=1)
 ----------------------------------------------------------------------
 -----
 title
 -----
 Structure from the checkpoint file:  "BH10_182_forward_mol1.chk"
 Charge =  0 Multiplicity = 2

                         Standard orientation:
 ---------------------------------------------------------------------
 Center     Atomic      Atomic             Coordinates (Angstroms)
 Number     Number       Type             X           Y           Z
 ---------------------------------------------------------------------
      1          7           0       -0.319081   -0.375176   -0.487895
      2         16           0        0.973748   -1.414794   -0.562597
      3          8           0        1.567574   -1.420615    0.945578
      4          6           0        2.435103   -0.339880    1.362612
      5          6           0        1.644671    0.887453    1.792896
      6          1           0        2.979721   -0.759034    2.206009
      7          1           0        3.138282   -0.125310    0.558042
      8          6           0        0.914578    1.614512    0.684024
      9          1           0        2.355370    1.581601    2.259347
     10          1           0        0.944752    0.590612    2.578241
     11          6           0        1.740349    2.307911   -0.373681
     12          1           0        0.102114    2.239560    1.060861
     13          6           0       -1.388857   -0.797332    0.395217
     14          1           0       -1.666860   -1.828439    0.163968
     15          6           0       -2.600692    0.074502    0.164781
     16          9           0       -3.067234   -0.011339   -1.081504
     17          9           0       -3.588061   -0.288177    1.000892
     18          9           0       -2.330329    1.372509    0.406224
     19          8           0        1.951396   -0.802854   -1.424530
     20          8           0        0.475713   -2.745914   -0.770825
     21          6           0        0.888524    2.889049   -1.496481
     22          1           0        2.308874    3.108015    0.120231
     23          1           0        2.473231    1.615342   -0.793018
     24          1           0        0.354892    2.096341   -2.023882
     25          1           0        1.507724    3.417399   -2.222691
     26          1           0        0.148722    3.593627   -1.108289
     27          1           0        0.247308    0.758961    0.051953
     28          1           0       -1.129427   -0.744915    1.457543
 ---------------------------------------------------------------------

 SCF Done:  E(UHF) =  -1251.28822388     A.U. after    2 cycles

 The electronic state is 2-A.
 Alpha  occ. eigenvalues --  -75.94095 -29.31832 -29.31709 -29.31615 -21.10781
 Alpha  occ. eigenvalues --  -21.07321 -21.06945 -15.79945 -13.57727 -13.48985
 Alpha  occ. eigenvalues --  -13.44374 -11.62491 -11.50094 -11.47013 -11.46217
 Alpha  occ. eigenvalues --  -11.43410 -11.40424 -11.37160  -8.29369  -1.92489
 Alpha  occ. eigenvalues --   -1.75658  -1.68351  -1.49758  -1.38414  -1.29027
 Alpha  occ. eigenvalues --   -1.14707  -1.07675  -1.01433  -0.94662  -0.90564
 Alpha  occ. eigenvalues --   -0.90169  -0.87900  -0.82517  -0.75634  -0.73611
 Alpha  occ. eigenvalues --   -0.70613  -0.69176  -0.64253  -0.62745  -0.61078
 Alpha  occ. eigenvalues --   -0.60529  -0.58704  -0.58270  -0.53647  -0.52160
 Alpha  occ. eigenvalues --   -0.50616  -0.49320  -0.48815  -0.47240  -0.45406
 Alpha  occ. eigenvalues --   -0.44756  -0.44273  -0.43939  -0.43535  -0.41986
 Alpha  occ. eigenvalues --   -0.39051  -0.37971  -0.37525  -0.37075  -0.36660
 Alpha  occ. eigenvalues --   -0.34161  -0.30541  -0.26256  -0.26183  -0.22175
 Alpha virt. eigenvalues --    0.03265   0.04349   0.04622   0.04856   0.05543
 Alpha virt. eigenvalues --    0.05773   0.06249   0.06848   0.07355   0.08268
 Alpha virt. eigenvalues --    0.08730   0.09221   0.09888   0.10333   0.11313

  Beta  occ. eigenvalues --  -75.94141 -29.31838 -29.31711 -29.31616 -21.10802
  Beta  occ. eigenvalues --  -21.07167 -21.06978 -15.77455 -13.57773 -13.49095
  Beta  occ. eigenvalues --  -13.44485 -11.62494 -11.50043 -11.46710 -11.45844
  Beta  occ. eigenvalues --  -11.43480 -11.40087 -11.37122  -8.29432  -1.92406
  Beta  occ. eigenvalues --   -1.75611  -1.68200  -1.47876  -1.34638  -1.27308
  Beta  occ. eigenvalues --   -1.14625  -1.07086  -0.99671  -0.93635  -0.90388
  Beta  occ. eigenvalues --   -0.90047  -0.86345  -0.81117  -0.74297  -0.71483
  Beta  occ. eigenvalues --   -0.69288  -0.67191  -0.63215  -0.61646  -0.60641
  Beta  occ. eigenvalues --   -0.60119  -0.58313  -0.56314  -0.53343  -0.51493
  Beta  occ. eigenvalues --   -0.49914  -0.49121  -0.47754  -0.45832  -0.44856
  Beta  occ. eigenvalues --   -0.44587  -0.44088  -0.43724  -0.42562  -0.40759
  Beta  occ. eigenvalues --   -0.38741  -0.37575  -0.37168  -0.36872  -0.36090
  Beta  occ. eigenvalues --   -0.30519  -0.26221  -0.26150  -0.22173
  Beta virt. eigenvalues --    0.03037   0.04357   0.04426   0.04696   0.05033
  Beta virt. eigenvalues --    0.05769   0.06116   0.06316   0.06864   0.07466
  Beta virt. eigenvalues --    0.08279   0.08774   0.09230   0.09892   0.10429

 Mulliken charges and spin densities:
               1          2
     1  N   -2.686723   0.936918
     2  S    8.773681  -0.066495
     3  O   -3.554315   0.002669
     4  C   -2.082928   0.012575
     5  C   -3.767752  -0.168960
     6  H    1.269211  -0.002734
     7  H    1.928583   0.000784
     8  C   -2.140812   1.172167
     9  H    1.425690   0.016444
    10  H    1.356237  -0.004303
    11  C   -3.723295  -0.206250
    12  H    1.119338  -0.020838
    13  C   -4.022470  -0.118869
    14  H    1.510342   0.028547
    15  C    0.554686   0.014640
    16  F    0.211561   0.001205
    17  F    0.243388  -0.000524
    18  F    0.299289   0.000565
    19  O   -2.692736  -0.007494
    20  O   -2.678903   0.028836
    21  C   -4.287096   0.003391
    22  H    1.570326   0.014345
    23  H    1.669602   0.013452
    24  H    1.390760   0.003721
    25  H    1.111569  -0.001591
    26  H    1.404625  -0.000628
    27  H    4.126815  -0.655328
    28  H    1.671327   0.003755
 Sum of Mulliken charges =  -0.00000   1.00000

 Dipole moment (field-independent basis, Debye):
    X=             -0.3195    Y=              3.3564    Z=              2.4520  Tot=              4.1689
                          Isotropic Fermi Contact Couplings
        Atom                 a.u.       MegaHertz       Gauss      10(-4) cm-1
     1  N(14)              0.24669      79.70819      28.44187      26.58779
     2  S(33)             -0.07265     -24.95323      -8.90393      -8.32350
     3  O(17)             -0.00345       2.09099       0.74612       0.69748
     4  C(13)              0.00477       5.36478       1.91429       1.78950
     5  C(13)             -0.01304     -14.66272      -5.23202      -4.89096
     6  H(1)              -0.00040      -1.76637      -0.63028      -0.58920
     7  H(1)              -0.00021      -0.93456      -0.33348      -0.31174
     8  C(13)              0.10554     118.64737      42.33633      39.57650

 Normal termination of Gaussian 16 at Wed Apr  9 01:12:19 2025.
