 Gaussian 16, Revision C.01,

 ----------------------------------------------------------------------
 #t hf aug-cc-pvdz symm=none int=(grid=ultrafine) guess=(read,tcheck) s
 table=(opt,rrhf)
 ----------------------------------------------------------------------
 -----
 title
 -----
 Symbolic Z-matrix:
 Charge =  1 Multiplicity = 1

 SCF Done:  E(RHF) =  -950.801866824     A.U. after   13 cycles
 Normal termination of Gaussian 16 at Wed Apr  9 01:47:05 2025.
 Gaussian 16:  ES64L-G16RevC.01  3-Jul-2019

 ----------------------------------------------------------------------
 #t hf aug-cc-pvdz iop(5/13=1,5/36=2,99/5=2) pseudo=read geom=check gue
 ss=(read,tcheck) scf=(maxcycle=1)
 ----------------------------------------------------------------------
 -----
 title
 -----
 Structure from the checkpoint file:  "BH10_325_forward_mol2.chk"
 Charge =  1 Multiplicity = 1

                         Standard orientation:
 ---------------------------------------------------------------------
 Center     Atomic      Atomic             Coordinates (Angstroms)
 Number     Number       Type             X           Y           Z
 ---------------------------------------------------------------------
      1          6           0       -2.943483   -1.188589   -0.505042
      2         16           0       -1.773104    0.183507   -0.455634
      3          6           0       -1.216424    0.164168    1.291627
      4          6           0       -2.888563    1.603460   -0.452918
      5          6           0        0.294617    0.140670    1.357148
      6          1           0       -1.662097   -0.704160    1.773956
      7          1           0       -1.601337    1.075176    1.746364
      8          6           0        0.941010   -1.158291    0.846465
      9          8           0        0.781997    1.176480    0.537158
     10          1           0        0.583227    0.306869    2.404421
     11          6           0        2.179158    0.882127    0.271312
     12          6           0        2.223423   -0.656262    0.136020
     13          8           0        2.145008   -1.074630   -1.210148
     14          1           0        3.123198   -1.054652    0.606908
     15          8           0        0.059489   -1.807595   -0.049440
     16          1           0        1.173004   -1.835494    1.670281
     17          7           0        2.681574    1.541258   -0.863703
     18          1           0        2.752505    1.191085    1.151411
     19          1           0        0.563479   -1.999234   -0.856980
     20          1           0        3.002152   -0.978797   -1.636819
     21          1           0        2.131441    1.369449   -1.695206
     22          1           0        2.835691    2.530332   -0.729009
     23          1           0       -3.369714    1.647962   -1.428833
     24          1           0       -2.273000    2.490724   -0.313339
     25          1           0       -3.632096    1.517135    0.337724
     26          1           0       -2.356332   -2.092310   -0.360497
     27          1           0       -3.402418   -1.192269   -1.492349
     28          1           0       -3.699440   -1.074471    0.269789
 ---------------------------------------------------------------------

 SCF Done:  E(RHF) =  -953.562435180     A.U. after    2 cycles

 The electronic state is 1-A.
 Alpha  occ. eigenvalues --  -75.92273 -21.20229 -21.19477 -21.17332 -15.85322
 Alpha  occ. eigenvalues --  -13.43560 -13.42704 -13.35546 -11.74710 -11.63205
 Alpha  occ. eigenvalues --  -11.60074 -11.58189 -11.57006 -11.56438 -11.52631
 Alpha  occ. eigenvalues --   -8.26489  -1.94224  -1.86365  -1.82106  -1.48741
 Alpha  occ. eigenvalues --   -1.44232  -1.29014  -1.23482  -1.20914  -1.12425
 Alpha  occ. eigenvalues --   -1.05837  -0.97240  -0.94565  -0.87156  -0.83358
 Alpha  occ. eigenvalues --   -0.80980  -0.80037  -0.78979  -0.77455  -0.76136
 Alpha  occ. eigenvalues --   -0.74764  -0.73333  -0.71130  -0.68183  -0.66900
 Alpha  occ. eigenvalues --   -0.64879  -0.61756  -0.60747  -0.59016  -0.56511
 Alpha  occ. eigenvalues --   -0.54448  -0.53199  -0.50513  -0.47860  -0.46816
 Alpha  occ. eigenvalues --   -0.43174  -0.42077
 Alpha virt. eigenvalues --   -0.07604  -0.05907  -0.05890  -0.04935  -0.04066
 Alpha virt. eigenvalues --   -0.03754  -0.02969  -0.02825  -0.02393  -0.01910
 Alpha virt. eigenvalues --   -0.01492  -0.01353  -0.00997  -0.00201   0.00064

 Mulliken charges:
               1
     1  C   -4.641543
     2  S    1.067517
     3  C   -2.747527
     4  C   -4.610049
     5  C    0.560004
     6  H    1.557585
     7  H    1.549813
     8  C    0.285043
     9  O   -4.017755
    10  H    1.650635
    11  C    2.671795
    12  C    0.160332
    13  O   -3.174693
    14  H    1.871845
    15  O   -3.235335
    16  H    1.825411
    17  N   -3.405114
    18  H    2.010931
    19  H    0.943817
    20  H    0.788247
    21  H    0.601093
    22  H    0.614570
    23  H    1.321359
    24  H    1.469317
    25  H    1.448140
    26  H    1.600893
    27  H    1.372025
    28  H    1.461644
 Sum of Mulliken charges =   1.00000

 Dipole moment (field-independent basis, Debye):
    X=             -4.4208    Y=              0.6355    Z=             -1.5306  Tot=              4.7213

 Test job not archived.
 1\1\GINC-SE045\SP\RHF\Aug-CC-pVDZ\C7H16N1O3S1(1+)\OHZDE\09-Apr-2025\0\
 \#t hf aug-cc-pvdz iop(5/13=1,5/36=2,99/5=2) pseudo=read geom=check gu
 ess=(read,tcheck) scf=(maxcycle=1)\\title\\1,1\C,0,-2.943483,-1.188589
 ,-0.505042\S,0,-1.773104,0.183507,-0.455634\C,0,-1.216424,0.164168,1.2
 91627\C,0,-2.888563,1.60346,-0.452918\C,0,0.294617,0.14067,1.357148\H,
 0,-1.662097,-0.70416,1.773956\H,0,-1.601337,1.075176,1.746364\C,0,0.94
 101,-1.158291,0.846465\O,0,0.781997,1.17648,0.537158\H,0,0.583227,0.30
 6869,2.404421\C,0,2.179158,0.882127,0.271312\C,0,2.223423,-0.656262,0.

 Normal termination of Gaussian 16 at Wed Apr  9 01:47:33 2025.
