 Gaussian 16, Revision C.01,

 ----------------------------------------------------------------------
 #t hf aug-cc-pvdz symm=none int=(grid=ultrafine) guess=(read,tcheck) s
 table=(opt,rrhf)
 ----------------------------------------------------------------------
 -----
 title
 -----
 Symbolic Z-matrix:
 Charge =  0 Multiplicity = 1

 SCF Done:  E(RHF) =  -779.051573154     A.U. after   14 cycles
 Normal termination of Gaussian 16 at Wed Apr  9 02:12:05 2025.
 Gaussian 16:  ES64L-G16RevC.01  3-Jul-2019

 ----------------------------------------------------------------------
 #t hf aug-cc-pvdz iop(5/13=1,5/36=2,99/5=2) pseudo=read geom=check gue
 ss=(read,tcheck) scf=(maxcycle=1)
 ----------------------------------------------------------------------
 -----
 title
 -----
 Structure from the checkpoint file:  "BH10_93_reverse_mol2.chk"
 Charge =  0 Multiplicity = 1

                         Standard orientation:
 ---------------------------------------------------------------------
 Center     Atomic      Atomic             Coordinates (Angstroms)
 Number     Number       Type             X           Y           Z
 ---------------------------------------------------------------------
      1          6           0        0.440083    0.111272   -1.210761
      2          6           0        1.118501    1.328748   -0.667814
      3          6           0        0.440075    0.111243    1.210766
      4          6           0        1.118496    1.328733    0.667852
      5         16           0       -0.968883   -0.011892   -0.000003
      6          6           0        1.231892   -1.142445   -0.779397
      7          6           0        1.231888   -1.142464    0.779376
      8          8           0       -1.849859    1.144356    0.000009
      9          8           0       -1.552731   -1.347687   -0.000020
     10          1           0        1.511238    2.114284   -1.297720
     11          1           0        1.511229    2.114254    1.297780
     12          1           0        0.751523   -2.040902   -1.163766
     13          1           0        2.241769   -1.087837   -1.183457
     14          1           0        0.114104    0.137724   -2.246233
     15          1           0        2.241762   -1.087866    1.183444
     16          1           0        0.751516   -2.040931    1.163720
     17          1           0        0.114091    0.137670    2.246237
 ---------------------------------------------------------------------

 SCF Done:  E(RHF) =  -781.095274864     A.U. after    2 cycles

 The electronic state is 1-A.
 Alpha  occ. eigenvalues --  -75.86913 -21.04004 -21.03982 -13.48491 -13.42832
 Alpha  occ. eigenvalues --  -13.33827 -11.51387 -11.48773 -11.45643 -11.43179
 Alpha  occ. eigenvalues --  -11.40906 -11.38634  -8.21976  -1.81819  -1.63786
 Alpha  occ. eigenvalues --   -1.42040  -1.13653  -1.12430  -1.02472  -0.89390
 Alpha  occ. eigenvalues --   -0.84123  -0.77616  -0.75341  -0.67540  -0.63343
 Alpha  occ. eigenvalues --   -0.59300  -0.56521  -0.55893  -0.51705  -0.51444
 Alpha  occ. eigenvalues --   -0.47909  -0.45711  -0.42913  -0.40228  -0.37759
 Alpha  occ. eigenvalues --   -0.35043  -0.33056  -0.32269
 Alpha virt. eigenvalues --    0.03269   0.04475   0.04877   0.04923   0.05192
 Alpha virt. eigenvalues --    0.05404   0.06088   0.08123   0.09670   0.11142
 Alpha virt. eigenvalues --    0.11324   0.12819   0.13331   0.13371   0.14089

 Mulliken charges:
               1
     1  C   -4.145848
     2  C   -0.039831
     3  C   -4.145846
     4  C   -0.039842
     5  S    7.185562
     6  C   -2.440242
     7  C   -2.440242
     8  O   -2.836894
     9  O   -2.761183
    10  H    1.414145
    11  H    1.414144
    12  H    1.393729
    13  H    1.383619
    14  H    1.640689
    15  H    1.383619
    16  H    1.393729
    17  H    1.640690
 Sum of Mulliken charges =  -0.00000

 Dipole moment (field-independent basis, Debye):
    X=              2.6395    Y=              0.1995    Z=              0.0000  Tot=              2.6470

 Test job not archived.
 1\1\GINC-SE403\SP\RHF\Aug-CC-pVDZ\C6H8O2S1\OHZDE\09-Apr-2025\0\\#t hf
 aug-cc-pvdz iop(5/13=1,5/36=2,99/5=2) pseudo=read geom=check guess=(re
 ad,tcheck) scf=(maxcycle=1)\\title\\0,1\C,0,0.440083,0.111272,-1.21076
 1\C,0,1.118501,1.328748,-0.667814\C,0,0.440075,0.111243,1.210766\C,0,1
 .118496,1.328733,0.667852\S,0,-0.968883,-0.011892,-0.000003\C,0,1.2318
 92,-1.142445,-0.779397\C,0,1.231888,-1.142464,0.779376\O,0,-1.849859,1
 .144357,0.000009\O,0,-1.552731,-1.347686,-0.00002\H,0,1.511239,2.11428
 4,-1.29772\H,0,1.51123,2.114254,1.29778\H,0,0.751522,-2.040902,-1.1637

 Normal termination of Gaussian 16 at Wed Apr  9 02:12:14 2025.
