 Gaussian 16, Revision C.01,

 ----------------------------------------------------------------------
 #t hf aug-cc-pvdz symm=none int=(grid=ultrafine) guess=(read,tcheck) s
 table=(opt,rrhf)
 ----------------------------------------------------------------------
 -----
 title
 -----
 Symbolic Z-matrix:
 Charge =  1 Multiplicity = 1

 SCF Done:  E(RHF) =  -1201.94346691     A.U. after   16 cycles
 Normal termination of Gaussian 16 at Wed Apr  9 02:13:47 2025.
 Gaussian 16:  ES64L-G16RevC.01  3-Jul-2019

 ----------------------------------------------------------------------
 #t hf aug-cc-pvdz iop(5/13=1,5/36=2,99/5=2) pseudo=read geom=check gue
 ss=(read,tcheck) scf=(maxcycle=1)
 ----------------------------------------------------------------------
 -----
 title
 -----
 Structure from the checkpoint file:  "BH10_330_forward_mol2.chk"
 Charge =  1 Multiplicity = 1

                         Standard orientation:
 ---------------------------------------------------------------------
 Center     Atomic      Atomic             Coordinates (Angstroms)
 Number     Number       Type             X           Y           Z
 ---------------------------------------------------------------------
      1          6           0        1.737334   -0.864522   -0.417892
      2          6           0        1.364871    0.460783   -0.193021
      3          6           0        2.363616    1.412212   -0.053153
      4          6           0        3.705513    1.044267   -0.131226
      5          6           0        4.033094   -0.295860   -0.359013
      6          6           0        3.054830   -1.266009   -0.515292
      7          1           0        2.103675    2.449751    0.118762
      8          1           0        5.075557   -0.582985   -0.423987
      9          1           0        3.326500   -2.296170   -0.709120
     10          6           0       -0.092146    0.641581   -0.142645
     11          6           0       -0.810331    1.812725    0.039653
     12          6           0       -0.768891   -0.558897   -0.321505
     13          6           0       -2.206118    1.736918    0.044892
     14          1           0       -0.299262    2.754340    0.168314
     15          6           0       -2.160053   -0.649073   -0.314320
     16          6           0       -2.877863    0.516753   -0.128066
     17          1           0       -3.957480    0.530464   -0.108704
     18         16           0        0.312475   -1.922839   -0.595041
     19          8           0       -2.671725   -1.880772   -0.472075
     20          8           0       -3.008421    2.792845    0.212541
     21          6           0        4.790823    2.073745   -0.002236
     22          1           0        5.184958    2.335580   -0.987489
     23          1           0        4.422249    2.987605    0.462713
     24          1           0        5.623073    1.696989    0.593324
     25          6           0       -4.091445   -2.028339   -0.547170
     26          1           0       -4.269421   -3.086739   -0.712672
     27          1           0       -4.559791   -1.716334    0.388048
     28          1           0       -4.491688   -1.451838   -1.382803
     29          6           0       -2.439604    4.084890    0.395023
     30          1           0       -1.849381    4.376824   -0.476608
     31          1           0       -3.280989    4.762430    0.506588
     32          1           0       -1.824419    4.115613    1.297299
     33          6           0        0.259198   -2.879962    0.979769
     34          6           0        0.400623   -2.047038    2.232668
     35          1           0        0.338236   -2.711490    3.096031
     36          1           0        1.361258   -1.533751    2.272790
     37          1           0       -0.398694   -1.311077    2.317926
     38          1           0       -0.698366   -3.398091    0.915946
     39          1           0        1.054831   -3.617328    0.861766
 ---------------------------------------------------------------------

 SCF Done:  E(RHF) =  -1205.96816252     A.U. after    2 cycles

 The electronic state is 1-A.
 Alpha  occ. eigenvalues --  -75.92202 -21.20891 -21.19196 -13.46991 -13.45485
 Alpha  occ. eigenvalues --  -13.39404 -11.69966 -11.65973 -11.64206 -11.62566
 Alpha  occ. eigenvalues --  -11.60297 -11.59518 -11.58282 -11.57917 -11.57715
 Alpha  occ. eigenvalues --  -11.55973 -11.54501 -11.53005 -11.52131 -11.51801
 Alpha  occ. eigenvalues --  -11.51048 -11.50532 -11.48982  -8.26443  -1.93540
 Alpha  occ. eigenvalues --   -1.90885  -1.58828  -1.43860  -1.40110  -1.30357
 Alpha  occ. eigenvalues --   -1.26773  -1.24904  -1.20197  -1.19388  -1.12095
 Alpha  occ. eigenvalues --   -1.10901  -1.10651  -1.04178  -1.02614  -0.97099
 Alpha  occ. eigenvalues --   -0.94028  -0.93891  -0.82243  -0.82045  -0.78770
 Alpha  occ. eigenvalues --   -0.77770  -0.77461  -0.75763  -0.75341  -0.73933
 Alpha  occ. eigenvalues --   -0.73810  -0.73150  -0.72919  -0.69738  -0.69389
 Alpha  occ. eigenvalues --   -0.68284  -0.68076  -0.67099  -0.65862  -0.64663
 Alpha  occ. eigenvalues --   -0.63618  -0.63556  -0.62326  -0.59226  -0.58709
 Alpha  occ. eigenvalues --   -0.57413  -0.56766  -0.55282  -0.54320  -0.52950
 Alpha  occ. eigenvalues --   -0.50465  -0.50362  -0.45284  -0.44631  -0.40185
 Alpha  occ. eigenvalues --   -0.38562
 Alpha virt. eigenvalues --   -0.06385  -0.05585  -0.04019  -0.03848  -0.03616
 Alpha virt. eigenvalues --   -0.03066  -0.02573  -0.02222  -0.02051  -0.01605
 Alpha virt. eigenvalues --   -0.01431  -0.01272  -0.01025  -0.00873  -0.00648

 Mulliken charges:
               1
     1  C    4.472801
     2  C   -3.557240
     3  C    2.045087
     4  C    2.062556
     5  C   -2.610086
     6  C   -6.659747
     7  H    1.908717
     8  H    1.898695
     9  H    1.838742
    10  C    1.489218
    11  C   -3.028254
    12  C    0.929256
    13  C    8.228525
    14  H    2.420416
    15  C    7.163950
    16  C   -5.160222
    17  H    2.276069
    18  S   -1.287891
    19  O   -5.176527
    20  O   -5.309280
    21  C   -6.873829
    22  H    1.114791
    23  H    1.264974
    24  H    1.088787
    25  C   -4.027763
    26  H    1.586082
    27  H    1.493943
    28  H    1.374528
    29  C   -3.911158
    30  H    1.401436
    31  H    1.492308
    32  H    1.395495
    33  C   -3.769106
    34  C   -4.629204
    35  H    1.023042
    36  H    1.786419
    37  H    1.826813
    38  H    1.779518
    39  H    1.638139
 Sum of Mulliken charges =   1.00000

 Dipole moment (field-independent basis, Debye):
    X=              0.2568    Y=             -3.1307    Z=             -0.3270  Tot=              3.1582

 Test job not archived.
 1\1\GINC-SE398\SP\RHF\Aug-CC-pVDZ\C17H19O2S1(1+)\OHZDE\09-Apr-2025\0\\
 #t hf aug-cc-pvdz iop(5/13=1,5/36=2,99/5=2) pseudo=read geom=check gue
 ss=(read,tcheck) scf=(maxcycle=1)\\title\\1,1\C,0,1.737334,-0.864522,-
 0.417892\C,0,1.364871,0.460783,-0.193021\C,0,2.363616,1.412212,-0.0531
 53\C,0,3.705513,1.044267,-0.131226\C,0,4.033094,-0.29586,-0.359013\C,0
 ,3.05483,-1.266009,-0.515292\H,0,2.103675,2.449751,0.118762\H,0,5.0755
 57,-0.582985,-0.423987\H,0,3.3265,-2.29617,-0.70912\C,0,-0.092146,0.64
 1581,-0.142645\C,0,-0.810331,1.812725,0.039653\C,0,-0.768891,-0.558897

 Normal termination of Gaussian 16 at Wed Apr  9 02:15:12 2025.
