 Gaussian 16, Revision C.01,

 ----------------------------------------------------------------------
 #t hf aug-cc-pvdz symm=none int=(grid=ultrafine) guess=(read,tcheck) s
 table=(opt,rrhf)
 ----------------------------------------------------------------------
 -----
 title
 -----
 Symbolic Z-matrix:
 Charge =  0 Multiplicity = 1

 SCF Done:  E(RHF) =  -912.169988378     A.U. after   13 cycles
 Normal termination of Gaussian 16 at Wed Apr  9 01:36:08 2025.
 Gaussian 16:  ES64L-G16RevC.01  3-Jul-2019

 ----------------------------------------------------------------------
 #t hf aug-cc-pvdz iop(5/13=1,5/36=2,99/5=2) pseudo=read geom=check gue
 ss=(read,tcheck) scf=(maxcycle=1)
 ----------------------------------------------------------------------
 -----
 title
 -----
 Structure from the checkpoint file:  "BH10_321_forward_mol2.chk"
 Charge =  0 Multiplicity = 1

                         Standard orientation:
 ---------------------------------------------------------------------
 Center     Atomic      Atomic             Coordinates (Angstroms)
 Number     Number       Type             X           Y           Z
 ---------------------------------------------------------------------
      1          6           0        0.017002   -1.340961    0.113846
      2         16           0        1.489084   -0.305596   -0.150637
      3         16           0       -1.504008   -0.318403    0.028260
      4          6           0        0.688534    1.238736    0.372295
      5          6           0       -0.679396    1.279110   -0.280191
      6          1           0        1.320195    2.060715    0.033047
      7          1           0        0.608918    1.276970    1.459111
      8          1           0       -0.591310    1.453121   -1.351840
      9          1           0       -1.309075    2.054062    0.158923
     10          1           0        0.050857   -1.822555    1.088718
     11          1           0        0.002359   -2.099646   -0.665627
 ---------------------------------------------------------------------

 SCF Done:  E(RHF) =  -913.221814839     A.U. after    2 cycles

 The electronic state is 1-A.
 Alpha  occ. eigenvalues --  -75.68285 -75.67916 -13.12161 -13.11612 -13.09504
 Alpha  occ. eigenvalues --  -13.08652 -13.03200 -13.00657 -11.43725 -11.41670
 Alpha  occ. eigenvalues --  -11.39489  -8.02496  -8.01921  -1.33128  -1.10545
 Alpha  occ. eigenvalues --   -1.10098  -0.86617  -0.85388  -0.65984  -0.63365
 Alpha  occ. eigenvalues --   -0.61627  -0.54215  -0.48047  -0.44334  -0.41630
 Alpha  occ. eigenvalues --   -0.33065  -0.23232  -0.22417
 Alpha virt. eigenvalues --    0.03093   0.03753   0.04607   0.05628   0.06999
 Alpha virt. eigenvalues --    0.07544   0.07947   0.08046   0.12208   0.13193
 Alpha virt. eigenvalues --    0.13600   0.14278   0.15042   0.15365   0.15815

 Mulliken charges:
               1
     1  C   -4.331296
     2  S    1.223228
     3  S    1.184336
     4  C   -3.602755
     5  C   -3.412386
     6  H    1.389070
     7  H    1.462008
     8  H    1.477839
     9  H    1.404646
    10  H    1.578358
    11  H    1.626952
 Sum of Mulliken charges =  -0.00000

 Dipole moment (field-independent basis, Debye):
    X=              0.2321    Y=              0.1065    Z=             -0.0800  Tot=              0.2676

 Test job not archived.
 1\1\GINC-SE129\SP\RHF\Aug-CC-pVDZ\C3H6S2\OHZDE\09-Apr-2025\0\\#t hf au
 g-cc-pvdz iop(5/13=1,5/36=2,99/5=2) pseudo=read geom=check guess=(read
 ,tcheck) scf=(maxcycle=1)\\title\\0,1\C,0,0.017002,-1.340961,0.113846\
 S,0,1.489084,-0.305596,-0.150637\S,0,-1.504008,-0.318402,0.02826\C,0,0
 .688534,1.238736,0.372295\C,0,-0.679396,1.27911,-0.280191\H,0,1.320196
 ,2.060715,0.033047\H,0,0.608918,1.27697,1.459111\H,0,-0.59131,1.453121
 ,-1.35184\H,0,-1.309074,2.054063,0.158923\H,0,0.050857,-1.822555,1.088
 718\H,0,0.002358,-2.099646,-0.665627\\Version=ES64L-G16RevC.01\State=1

 Normal termination of Gaussian 16 at Wed Apr  9 01:36:11 2025.
