 Gaussian 16, Revision C.01,

 ----------------------------------------------------------------------
 #t hf aug-cc-pvdz symm=none int=(grid=ultrafine) guess=(read,tcheck) s
 table=(opt,rrhf)
 ----------------------------------------------------------------------
 -----
 title
 -----
 Symbolic Z-matrix:
 Charge =  0 Multiplicity = 1

 SCF Done:  E(RHF) =  -842.581321091     A.U. after   15 cycles
 Normal termination of Gaussian 16 at Wed Apr  9 01:05:35 2025.
 Gaussian 16:  ES64L-G16RevC.01  3-Jul-2019

 ----------------------------------------------------------------------
 #t hf aug-cc-pvdz iop(5/13=1,5/36=2,99/5=2) pseudo=read geom=check gue
 ss=(read,tcheck) scf=(maxcycle=1)
 ----------------------------------------------------------------------
 -----
 title
 -----
 Structure from the checkpoint file:  "BH10_246_forward_mol2.chk"
 Charge =  0 Multiplicity = 1

                         Standard orientation:
 ---------------------------------------------------------------------
 Center     Atomic      Atomic             Coordinates (Angstroms)
 Number     Number       Type             X           Y           Z
 ---------------------------------------------------------------------
      1          6           0        2.428229    0.545421   -0.717635
      2          6           0        0.953592    0.354489   -0.448549
      3          6           0        0.152064    1.415320   -0.048638
      4          6           0        0.371358   -0.898574   -0.620487
      5          6           0       -1.208758    1.243055    0.169051
      6          1           0        0.591825    2.395224    0.101241
      7          6           0       -0.982237   -1.090196   -0.399517
      8          1           0        0.993202   -1.734124   -0.918987
      9          6           0       -1.762437   -0.012085   -0.008445
     10          1           0       -1.830895    2.071281    0.481087
     11          1           0       -1.434079   -2.064517   -0.530499
     12          8           0        3.233911   -0.476400   -0.174093
     13          6           0        3.296111   -0.451087    1.235363
     14          1           0        2.311791   -0.612058    1.688373
     15          1           0        3.965424   -1.253922    1.539736
     16          1           0        3.697270    0.505928    1.592926
     17         17           0       -3.471768   -0.246191    0.270932
     18          1           0        2.748438    1.526531   -0.341133
     19          1           0        2.618262    0.524052   -1.792708
 ---------------------------------------------------------------------

 SCF Done:  E(RHF) =  -844.635051702     A.U. after    2 cycles

 The electronic state is 1-A.
 Alpha  occ. eigenvalues --  -99.89359 -21.04989 -11.52515 -11.46158 -11.45293
 Alpha  occ. eigenvalues --  -11.45021 -11.43393 -11.42068 -11.40145 -11.37677
 Alpha  occ. eigenvalues --  -10.46742  -9.66782  -9.65862  -9.65689  -1.76055
 Alpha  occ. eigenvalues --   -1.40672  -1.28876  -1.12348  -1.11135  -1.01967
 Alpha  occ. eigenvalues --   -0.93081  -0.89028  -0.83509  -0.71937  -0.67016
 Alpha  occ. eigenvalues --   -0.66389  -0.63727  -0.61126  -0.59508  -0.58174
 Alpha  occ. eigenvalues --   -0.57532  -0.56596  -0.52478  -0.49991  -0.48116
 Alpha  occ. eigenvalues --   -0.47858  -0.45439  -0.38184  -0.34673  -0.33289
 Alpha  occ. eigenvalues --   -0.30227
 Alpha virt. eigenvalues --    0.03196   0.04598   0.05015   0.05432   0.06139
 Alpha virt. eigenvalues --    0.06210   0.06642   0.06865   0.08158   0.08707
 Alpha virt. eigenvalues --    0.10106   0.10488   0.10739   0.11713   0.12833

 Mulliken charges:
               1
     1  C   -2.076201
     2  C    1.704824
     3  C   -0.102465
     4  C   -0.482468
     5  C   -1.747073
     6  H    1.871984
     7  C   -1.770351
     8  H    2.041413
     9  C   -2.987515
    10  H    1.764763
    11  H    1.772108
    12  O   -2.980211
    13  C   -3.034857
    14  H    1.629360
    15  H    1.259288
    16  H    1.347218
    17  Cl  -0.876830
    18  H    1.435456
    19  H    1.231556
 Sum of Mulliken charges =   0.00000

 Dipole moment (field-independent basis, Debye):
    X=              2.3051    Y=              0.4678    Z=             -0.1135  Tot=              2.3548

 Test job not archived.
 1\1\GINC-SE458\SP\RHF\Aug-CC-pVDZ\C8H9Cl1O1\OHZDE\09-Apr-2025\0\\#t hf
  aug-cc-pvdz iop(5/13=1,5/36=2,99/5=2) pseudo=read geom=check guess=(r
 ead,tcheck) scf=(maxcycle=1)\\title\\0,1\C,0,2.428229,0.545421,-0.7176
 35\C,0,0.953592,0.354489,-0.448549\C,0,0.152064,1.41532,-0.048638\C,0,
 0.371358,-0.898574,-0.620487\C,0,-1.208758,1.243055,0.169051\H,0,0.591
 825,2.395224,0.101241\C,0,-0.982237,-1.090196,-0.399517\H,0,0.993202,-
 1.734124,-0.918987\C,0,-1.762437,-0.012085,-0.008445\H,0,-1.830895,2.0
 71281,0.481087\H,0,-1.434079,-2.064517,-0.530499\O,0,3.233911,-0.4764,

 Normal termination of Gaussian 16 at Wed Apr  9 01:05:46 2025.
