 Gaussian 16, Revision C.01,

 ----------------------------------------------------------------------
 #t hf aug-cc-pvdz symm=none int=(grid=ultrafine) guess=(read,tcheck) s
 table=(opt,rrhf)
 ----------------------------------------------------------------------
 -----
 title
 -----
 Symbolic Z-matrix:
 Charge =  1 Multiplicity = 1

 SCF Done:  E(RHF) =  -1529.70650044     A.U. after   18 cycles
 Normal termination of Gaussian 16 at Wed Apr  9 02:20:32 2025.
 Gaussian 16:  ES64L-G16RevC.01  3-Jul-2019

 ----------------------------------------------------------------------
 #t hf aug-cc-pvdz iop(5/13=1,5/36=2,99/5=2) pseudo=read geom=check gue
 ss=(read,tcheck) scf=(maxcycle=1)
 ----------------------------------------------------------------------
 -----
 title
 -----
 Structure from the checkpoint file:  "BH10_246_forward_mol1.chk"
 Charge =  1 Multiplicity = 1

                         Standard orientation:
 ---------------------------------------------------------------------
 Center     Atomic      Atomic             Coordinates (Angstroms)
 Number     Number       Type             X           Y           Z
 ---------------------------------------------------------------------
      1          6           0        1.139774   -0.792441   -0.472852
      2          6           0        1.904830    1.756018   -0.407639
      3          6           0        3.324359    1.243069   -0.676962
      4          6           0        3.573442   -0.139284   -0.103467
      5          6           0        2.605992   -1.121431   -0.753190
      6          1           0        3.492929    1.218800   -1.758828
      7          1           0        4.023220    1.968042   -0.255136
      8          1           0        3.412293   -0.139124    0.975911
      9          1           0        2.778189   -1.122164   -1.833794
     10          1           0        2.803814   -2.127669   -0.384116
     11          7           0        0.925723    0.667100   -0.699891
     12          8           0       -0.286548    1.034033   -0.841557
     13          6           0        0.238383   -1.557996   -1.440012
     14          1           0        0.466338   -2.621184   -1.358298
     15          1           0       -0.817487   -1.417410   -1.212033
     16          1           0        0.418460   -1.246634   -2.469578
     17          6           0        0.756309   -1.149478    0.973371
     18          1           0       -0.288827   -0.910065    1.171142
     19          1           0        0.872076   -2.226249    1.099841
     20          1           0        1.386525   -0.664188    1.715674
     21          6           0        1.598136    2.927896   -1.339073
     22          1           0        0.637325    3.385642   -1.109858
     23          1           0        2.372604    3.685637   -1.215031
     24          1           0        1.594513    2.606968   -2.381397
     25          6           0        1.742060    2.207541    1.053286
     26          1           0        2.409609    3.052315    1.227908
     27          1           0        0.727177    2.555836    1.247579
     28          1           0        1.998216    1.427832    1.768275
     29          6           0       -1.838274    1.474497    1.103890
     30          1           0       -1.276747    1.154790    1.982306
     31          1           0       -0.904739    1.149315    0.159459
     32          6           0       -2.900724    0.561029    0.679487
     33          6           0       -3.573811    0.654091   -0.547245
     34          6           0       -3.164623   -0.534042    1.513687
     35          6           0       -4.507954   -0.295500   -0.906897
     36          1           0       -3.351265    1.449818   -1.243396
     37          6           0       -4.107210   -1.480190    1.164828
     38          1           0       -2.643348   -0.630768    2.458719
     39          6           0       -4.775976   -1.355762   -0.047030
     40          1           0       -5.025970   -0.227504   -1.853884
     41          1           0       -4.327017   -2.311123    1.821347
     42          8           0       -1.886639    2.806548    1.088590
     43          6           0       -2.801902    3.539616    0.266381
     44          1           0       -3.818022    3.169071    0.399210
     45          1           0       -2.729728    4.567524    0.608870
     46          1           0       -2.502100    3.480222   -0.780837
     47         17           0       -5.945765   -2.541418   -0.499782
     48          7           0        4.951043   -0.540212   -0.295773
     49          6           0        5.486091   -1.529608    0.480972
     50          6           0        6.920900   -1.894290    0.209885
     51          1           0        7.494015   -1.751339    1.126296
     52          1           0        6.970574   -2.953315   -0.044581
     53          1           0        7.374138   -1.309949   -0.591096
     54          8           0        4.820767   -2.070733    1.344123
     55          1           0        5.494429   -0.138427   -1.042516
 ---------------------------------------------------------------------

 SCF Done:  E(RHF) =  -1535.10467272     A.U. after    2 cycles

 The electronic state is 1-A.
 Alpha  occ. eigenvalues -- -100.00339 -21.29306 -21.24305 -21.10041 -15.94014
 Alpha  occ. eigenvalues --  -15.84958 -11.68176 -11.66544 -11.62152 -11.60079
 Alpha  occ. eigenvalues --  -11.59835 -11.59544 -11.59388 -11.59011 -11.58632
 Alpha  occ. eigenvalues --  -11.57374 -11.55656 -11.55305 -11.53490 -11.52562
 Alpha  occ. eigenvalues --  -11.51982 -11.51842 -11.49826 -11.47933 -11.46496
 Alpha  occ. eigenvalues --  -10.57761  -9.77812  -9.76847  -9.76668  -2.01800
 Alpha  occ. eigenvalues --   -1.95151  -1.79095  -1.54289  -1.53441  -1.45314
 Alpha  occ. eigenvalues --   -1.41754  -1.38952  -1.27508  -1.26034  -1.24266
 Alpha  occ. eigenvalues --   -1.19543  -1.17575  -1.15847  -1.14288  -1.13434
 Alpha  occ. eigenvalues --   -1.12566  -1.06479  -1.02159  -0.99596  -0.98338
 Alpha  occ. eigenvalues --   -0.96613  -0.89959  -0.87908  -0.85459  -0.82465
 Alpha  occ. eigenvalues --   -0.81984  -0.80115  -0.79463  -0.78580  -0.76689
 Alpha  occ. eigenvalues --   -0.76270  -0.75215  -0.74039  -0.73864  -0.72672
 Alpha  occ. eigenvalues --   -0.72355  -0.71639  -0.70212  -0.69859  -0.69112
 Alpha  occ. eigenvalues --   -0.68598  -0.68369  -0.68179  -0.66624  -0.66388
 Alpha  occ. eigenvalues --   -0.64658  -0.63712  -0.63481  -0.62907  -0.62376
 Alpha  occ. eigenvalues --   -0.61870  -0.61553  -0.61391  -0.60198  -0.58895
 Alpha  occ. eigenvalues --   -0.57707  -0.57084  -0.56166  -0.55547  -0.54275
 Alpha  occ. eigenvalues --   -0.53517  -0.53078  -0.51242  -0.48552  -0.47261
 Alpha  occ. eigenvalues --   -0.45652  -0.40926  -0.39461  -0.36799
 Alpha virt. eigenvalues --   -0.08301  -0.05452  -0.04470  -0.04140  -0.03373
 Alpha virt. eigenvalues --   -0.03297  -0.03079  -0.02508  -0.02273  -0.01903
 Alpha virt. eigenvalues --   -0.01606  -0.01492  -0.01286  -0.01117  -0.00848

 Mulliken charges:
               1
     1  C    7.823216
     2  C    7.053806
     3  C   -6.193231
     4  C    2.687651
     5  C   -6.110348
     6  H    1.464737
     7  H    1.404770
     8  H    2.741049
     9  H    1.271252
    10  H    1.753228
    11  N    2.503197
    12  O   -5.552627
    13  C   -7.214383
    14  H    1.285537
    15  H    1.249052
    16  H    1.186622
    17  C   -5.780803
    18  H    1.808605
    19  H    1.085620
    20  H    1.277187
    21  C   -7.054061
    22  H    1.345201
    23  H    1.236598
    24  H    1.165019
    25  C   -5.834869
    26  H    1.147242
    27  H    1.198802
    28  H    1.379516
    29  C    0.813090
    30  H    1.939002
    31  H    4.298642
    32  C    4.013702
    33  C    0.299358
    34  C   -4.446003
    35  C   -1.603736
    36  H    2.301476
    37  C   -2.278421
    38  H    2.163397
    39  C   -3.696156
    40  H    1.793745
    41  H    1.831220
    42  O   -4.348747
    43  C   -4.071159
    44  H    1.664158
    45  H    1.365749
    46  H    1.701875
    47  Cl  -0.823214
    48  N   -3.967891
    49  C    5.475474
    50  C   -5.026018
    51  H    1.222273
    52  H    1.276744
    53  H    1.530755
    54  O   -3.513757
    55  H    0.756854
 Sum of Mulliken charges =   1.00000

 Dipole moment (field-independent basis, Debye):
    X=             -1.1396    Y=              6.0502    Z=             -0.8059  Tot=              6.2091

 Test job not archived.
 1\1\GINC-SE049\SP\RHF\Aug-CC-pVDZ\C19H30Cl1N2O3(1+)\OHZDE\09-Apr-2025\
 0\\#t hf aug-cc-pvdz iop(5/13=1,5/36=2,99/5=2) pseudo=read geom=check
 guess=(read,tcheck) scf=(maxcycle=1)\\title\\1,1\C,0,1.139774,-0.79244
 1,-0.472852\C,0,1.90483,1.756018,-0.407639\C,0,3.324359,1.243069,-0.67
 6962\C,0,3.573442,-0.139284,-0.103467\C,0,2.605992,-1.121431,-0.75319\
 H,0,3.492929,1.2188,-1.758828\H,0,4.02322,1.968042,-0.255136\H,0,3.412
 293,-0.139124,0.975911\H,0,2.778189,-1.122164,-1.833794\H,0,2.803814,-
 2.127669,-0.384116\N,0,0.925723,0.6671,-0.699891\O,0,-0.286548,1.03403

 Normal termination of Gaussian 16 at Wed Apr  9 02:24:11 2025.
