 Gaussian 16, Revision C.01,

 ----------------------------------------------------------------------
 #t hf aug-cc-pvdz symm=none int=(grid=ultrafine) guess=(read,tcheck) s
 table=(opt,rrhf)
 ----------------------------------------------------------------------
 -----
 title
 -----
 Symbolic Z-matrix:
 Charge =  0 Multiplicity = 1

 SCF Done:  E(RHF) =  -807.846128690     A.U. after   15 cycles
 Normal termination of Gaussian 16 at Wed Apr  9 00:59:50 2025.
 Gaussian 16:  ES64L-G16RevC.01  3-Jul-2019

 ----------------------------------------------------------------------
 #t hf aug-cc-pvdz iop(5/13=1,5/36=2,99/5=2) pseudo=read geom=check gue
 ss=(read,tcheck) scf=(maxcycle=1)
 ----------------------------------------------------------------------
 -----
 title
 -----
 Structure from the checkpoint file:  "BH10_138_forward_mol2.chk"
 Charge =  0 Multiplicity = 1

                         Standard orientation:
 ---------------------------------------------------------------------
 Center     Atomic      Atomic             Coordinates (Angstroms)
 Number     Number       Type             X           Y           Z
 ---------------------------------------------------------------------
      1         17           0       -2.042366   -1.579995    0.237173
      2          6           0       -1.134534   -0.021336   -0.160634
      3          6           0        0.304996   -0.444918   -0.469572
      4          6           0       -1.185284    0.804298    1.092980
      5          6           0       -1.707756    2.014736    1.211298
      6          1           0        0.282564   -1.180878   -1.278014
      7          1           0        0.710084   -0.952347    0.408668
      8          6           0        1.221358    0.714474   -0.851465
      9          1           0        0.905419    1.150578   -1.802174
     10          6           0        2.683738    0.272113   -0.996363
     11          1           0        1.161242    1.505331   -0.100094
     12          1           0        3.281713    1.106749   -1.371666
     13          1           0        2.758053   -0.524069   -1.743921
     14          6           0        3.267713   -0.197666    0.256165
     15          6           0        3.729174   -0.575047    1.294147
     16          1           0        4.144950   -0.913051    2.211880
     17          6           0       -1.833151    0.600642   -1.356102
     18          1           0       -1.361122    1.548631   -1.620432
     19          1           0       -2.885006    0.785731   -1.141987
     20          1           0       -1.769146   -0.067898   -2.214862
     21          1           0       -0.724008    0.330759    1.954841
     22          1           0       -2.180750    2.529050    0.383890
     23          1           0       -1.681286    2.537543    2.159195
 ---------------------------------------------------------------------

 SCF Done:  E(RHF) =  -809.851690149     A.U. after    2 cycles

 The electronic state is 1-A.
 Alpha  occ. eigenvalues --  -99.86387 -11.49164 -11.46343 -11.43596 -11.42833
 Alpha  occ. eigenvalues --  -11.40944 -11.40191 -11.39931 -11.38913 -11.37057
 Alpha  occ. eigenvalues --  -10.43671  -9.63726  -9.63008  -9.62991  -1.38295
 Alpha  occ. eigenvalues --   -1.25099  -1.18756  -1.10915  -1.06910  -1.01043
 Alpha  occ. eigenvalues --   -0.92361  -0.86820  -0.76759  -0.73429  -0.67644
 Alpha  occ. eigenvalues --   -0.66365  -0.65354  -0.61979  -0.61054  -0.56476
 Alpha  occ. eigenvalues --   -0.56110  -0.54377  -0.53066  -0.51293  -0.49380
 Alpha  occ. eigenvalues --   -0.48716  -0.46064  -0.43959  -0.42773  -0.36677
 Alpha  occ. eigenvalues --   -0.36383  -0.36155
 Alpha virt. eigenvalues --    0.03472   0.04516   0.04972   0.05164   0.05374
 Alpha virt. eigenvalues --    0.05826   0.06293   0.06359   0.07200   0.07610
 Alpha virt. eigenvalues --    0.08358   0.08577   0.09123   0.10113   0.10965

 Mulliken charges:
               1
     1  Cl  -0.154990
     2  C   -0.429501
     3  C   -1.961078
     4  C   -0.486750
     5  C   -3.122040
     6  H    1.439500
     7  H    1.767181
     8  C   -3.079428
     9  H    1.494573
    10  C   -4.449748
    11  H    1.886945
    12  H    1.147276
    13  H    1.343923
    14  C    4.885121
    15  C   -4.523940
    16  H    0.750518
    17  C   -4.463535
    18  H    1.456084
    19  H    1.217945
    20  H    1.096815
    21  H    1.239888
    22  H    1.511501
    23  H    1.433739
 Sum of Mulliken charges =  -0.00000

 Dipole moment (field-independent basis, Debye):
    X=              1.1982    Y=              2.5917    Z=             -0.9956  Tot=              3.0239

 Test job not archived.
 1\1\GINC-SE403\SP\RHF\Aug-CC-pVDZ\C9H13Cl1\OHZDE\09-Apr-2025\0\\#t hf
 aug-cc-pvdz iop(5/13=1,5/36=2,99/5=2) pseudo=read geom=check guess=(re
 ad,tcheck) scf=(maxcycle=1)\\title\\0,1\Cl,0,2.042366,-1.579995,-0.237
 173\C,0,1.134534,-0.021336,0.160634\C,0,-0.304996,-0.444918,0.469572\C
 ,0,1.185284,0.804298,-1.09298\C,0,1.707756,2.014736,-1.211298\H,0,-0.2
 82564,-1.180878,1.278014\H,0,-0.710084,-0.952347,-0.408668\C,0,-1.2213
 58,0.714474,0.851465\H,0,-0.905419,1.150578,1.802174\C,0,-2.683738,0.2
 72113,0.996363\H,0,-1.161242,1.505331,0.100094\H,0,-3.281713,1.106749,

 Normal termination of Gaussian 16 at Wed Apr  9 01:00:05 2025.
