 Gaussian 16, Revision C.01,

 ----------------------------------------------------------------------
 #t hf aug-cc-pvdz symm=none int=(grid=ultrafine) guess=(read,tcheck) s
 table=(opt,rrhf)
 ----------------------------------------------------------------------
 -----
 title
 -----
 Symbolic Z-matrix:
 Charge = -1 Multiplicity = 1

 SCF Done:  E(RHF) =  -1631.01883562     A.U. after   15 cycles
 Normal termination of Gaussian 16 at Wed Apr  9 01:40:39 2025.
 Gaussian 16:  ES64L-G16RevC.01  3-Jul-2019

 ----------------------------------------------------------------------
 #t hf aug-cc-pvdz iop(5/13=1,5/36=2,99/5=2) pseudo=read geom=check gue
 ss=(read,tcheck) scf=(maxcycle=1)
 ----------------------------------------------------------------------
 -----
 title
 -----
 Structure from the checkpoint file:  "BH10_321_forward_mol1.chk"
 Charge = -1 Multiplicity = 1

                         Standard orientation:
 ---------------------------------------------------------------------
 Center     Atomic      Atomic             Coordinates (Angstroms)
 Number     Number       Type             X           Y           Z
 ---------------------------------------------------------------------
      1          6           0       -1.615799    0.990391    0.010902
      2         16           0       -1.344081   -0.508329   -0.896821
      3         16           0       -3.890726    0.403885    0.830837
      4          1           0       -2.083478    1.816245   -0.483423
      5          1           0       -1.346704    1.053036    1.046968
      6          6           0       -2.322625   -1.700105    0.071524
      7          6           0       -3.776943   -1.272675    0.145543
      8          1           0       -2.187491   -2.659920   -0.438626
      9          1           0       -1.895977   -1.776225    1.073143
     10          1           0       -4.219903   -1.315557   -0.852682
     11          1           0       -4.321644   -1.972236    0.787404
     12         16           0        0.501740    2.051390   -0.505523
     13          6           0        1.565020    0.983185    0.512142
     14          6           0        2.657625    0.289501   -0.304731
     15          1           0        0.949171    0.208885    0.986914
     16          1           0        2.038135    1.553967    1.309772
     17          6           0        3.597487   -0.525319    0.593621
     18          8           0        4.124346   -0.091635    1.584269
     19          8           0        3.798052   -1.770034    0.155793
     20          1           0        3.247181   -1.809868   -0.668770
     21          7           0        2.138302   -0.588000   -1.362132
     22          1           0        3.282925    1.062153   -0.759822
     23          1           0        1.158697   -0.796645   -1.170456
     24          1           0        2.132261   -0.095504   -2.245889
 ---------------------------------------------------------------------

 SCF Done:  E(RHF) =  -1633.76438270     A.U. after    2 cycles

 The electronic state is 1-A.
 Alpha  occ. eigenvalues --  -75.57921 -75.49491 -75.48385 -20.99544 -20.93387
 Alpha  occ. eigenvalues --  -15.64071 -13.05132 -13.02810 -12.96743 -12.94808
 Alpha  occ. eigenvalues --  -12.90722 -12.89938 -12.89167 -12.85089 -12.81824
 Alpha  occ. eigenvalues --  -11.41513 -11.35387 -11.34236 -11.31585 -11.27563
 Alpha  occ. eigenvalues --  -11.26243  -7.92075  -7.83157  -7.82052  -1.71293
 Alpha  occ. eigenvalues --   -1.54228  -1.26444  -1.17213  -1.03627  -1.00009
 Alpha  occ. eigenvalues --   -0.91256  -0.88316  -0.77274  -0.73770  -0.70610
 Alpha  occ. eigenvalues --   -0.65922  -0.61383  -0.56403  -0.53247  -0.51943
 Alpha  occ. eigenvalues --   -0.50727  -0.49049  -0.45854  -0.44706  -0.41067
 Alpha  occ. eigenvalues --   -0.39102  -0.37568  -0.36939  -0.36249  -0.29165
 Alpha  occ. eigenvalues --   -0.28467  -0.26883  -0.25418  -0.22010  -0.19534
 Alpha  occ. eigenvalues --   -0.17592  -0.12282  -0.07830  -0.07191  -0.05009
 Alpha virt. eigenvalues --    0.11326   0.12272   0.12748   0.13552   0.14186
 Alpha virt. eigenvalues --    0.14367   0.15034   0.15490   0.15622   0.16618
 Alpha virt. eigenvalues --    0.17303   0.18152   0.19307   0.20075   0.20115

 Mulliken charges:
               1
     1  C   -3.487837
     2  S    1.099002
     3  S   -0.107660
     4  H    1.559903
     5  H    1.726244
     6  C   -3.683109
     7  C   -3.603719
     8  H    1.468665
     9  H    1.556113
    10  H    1.521813
    11  H    1.320613
    12  S   -0.569683
    13  C   -2.282334
    14  C   -2.871646
    15  H    1.842057
    16  H    1.415183
    17  C    6.478344
    18  O   -3.406796
    19  O   -3.220502
    20  H    1.208899
    21  N   -2.193343
    22  H    1.832385
    23  H    0.955910
    24  H    0.441499
 Sum of Mulliken charges =  -1.00000

 Dipole moment (field-independent basis, Debye):
    X=              2.4043    Y=             -2.0489    Z=             -3.4974  Tot=              4.7128

 Test job not archived.
 1\1\GINC-SE149\SP\RHF\Aug-CC-pVDZ\C6H12N1O2S3(1-)\OHZDE\09-Apr-2025\0\
 \#t hf aug-cc-pvdz iop(5/13=1,5/36=2,99/5=2) pseudo=read geom=check gu
 ess=(read,tcheck) scf=(maxcycle=1)\\title\\-1,1\C,0,-1.615799,0.990391
 ,0.010902\S,0,-1.344081,-0.508329,-0.896821\S,0,-3.890726,0.403885,0.8
 30837\H,0,-2.083478,1.816245,-0.483423\H,0,-1.346704,1.053036,1.046968
 \C,0,-2.322625,-1.700105,0.071524\C,0,-3.776943,-1.272675,0.145543\H,0
 ,-2.187491,-2.65992,-0.438626\H,0,-1.895977,-1.776225,1.073143\H,0,-4.
 219903,-1.315557,-0.852682\H,0,-4.321644,-1.972236,0.787404\S,0,0.5017

 Normal termination of Gaussian 16 at Wed Apr  9 01:40:59 2025.
