 Gaussian 16, Revision C.01,

 ----------------------------------------------------------------------
 #t hf aug-cc-pvdz symm=none int=(grid=ultrafine) guess=(read,tcheck) s
 table=(opt,rrhf)
 ----------------------------------------------------------------------
 -----
 title
 -----
 Symbolic Z-matrix:
 Charge =  1 Multiplicity = 1

 SCF Done:  E(RHF) =  -730.113031817     A.U. after   16 cycles
 Normal termination of Gaussian 16 at Wed Apr  9 01:10:24 2025.
 Gaussian 16:  ES64L-G16RevC.01  3-Jul-2019

 ----------------------------------------------------------------------
 #t hf aug-cc-pvdz iop(5/13=1,5/36=2,99/5=2) pseudo=read geom=check gue
 ss=(read,tcheck) scf=(maxcycle=1)
 ----------------------------------------------------------------------
 -----
 title
 -----
 Structure from the checkpoint file:  "BH10_267_reverse_mol2.chk"
 Charge =  1 Multiplicity = 1

                         Standard orientation:
 ---------------------------------------------------------------------
 Center     Atomic      Atomic             Coordinates (Angstroms)
 Number     Number       Type             X           Y           Z
 ---------------------------------------------------------------------
      1          6           0       -2.375677    1.221038    0.000211
      2          6           0       -3.756506    1.210191    0.000151
      3          6           0       -4.442594    0.000101    0.000123
      4          6           0       -3.758683   -1.211205    0.000153
      5          6           0       -2.377862   -1.224512    0.000223
      6          6           0       -1.692664   -0.002367    0.000274
      7          1           0       -1.828303    2.154740    0.000238
      8          1           0       -4.301392    2.144944    0.000113
      9          1           0       -5.525544    0.001073    0.000069
     10          1           0       -4.305247   -2.144969    0.000124
     11          1           0       -1.832226   -2.159207    0.000243
     12          6           0       -0.283384   -0.003410    0.000401
     13          7           0        0.865286   -0.003691    0.000446
     14         14           0        2.728636    0.000191   -0.000030
     15          6           0        3.146979   -0.814678    1.606683
     16          1           0        2.765603   -1.836276    1.656250
     17          1           0        4.233734   -0.865843    1.716400
     18          1           0        2.757432   -0.255838    2.459514
     19          6           0        3.144478   -0.981034   -1.511624
     20          1           0        2.753911   -0.515857   -2.418514
     21          1           0        4.231074   -1.043979   -1.616657
     22          1           0        2.762992   -2.002046   -1.451735
     23          6           0        3.122459    1.805039   -0.096409
     24          1           0        2.732563    2.353224    0.763235
     25          1           0        4.207607    1.939239   -0.104622
     26          1           0        2.730613    2.258998   -1.008475
 ---------------------------------------------------------------------

 SCF Done:  E(RHF) =  -732.399291249     A.U. after    2 cycles

 The electronic state is 1-A.
 Alpha  occ. eigenvalues --  -76.36984 -15.96697 -11.73283 -11.68148 -11.60180
 Alpha  occ. eigenvalues --  -11.59984 -11.57556 -11.55442 -11.52247 -11.48174
 Alpha  occ. eigenvalues --  -11.48022 -11.47821  -5.71155  -2.35480  -2.34956
 Alpha  occ. eigenvalues --   -2.34913  -1.57879  -1.49025  -1.28688  -1.25371
 Alpha  occ. eigenvalues --   -1.21844  -1.14816  -1.14738  -1.07299  -1.02259
 Alpha  occ. eigenvalues --   -0.95473  -0.88982  -0.83208  -0.75601  -0.75340
 Alpha  occ. eigenvalues --   -0.74029  -0.73688  -0.72578  -0.70304  -0.70000
 Alpha  occ. eigenvalues --   -0.68864  -0.67886  -0.66870  -0.66604  -0.65688
 Alpha  occ. eigenvalues --   -0.63897  -0.61477  -0.59906  -0.53701  -0.53431
 Alpha  occ. eigenvalues --   -0.48534  -0.48277
 Alpha virt. eigenvalues --   -0.07933  -0.07038  -0.05361  -0.03978  -0.03649
 Alpha virt. eigenvalues --   -0.03200  -0.03009  -0.02927  -0.02398  -0.02231
 Alpha virt. eigenvalues --   -0.01928  -0.01588  -0.01201  -0.00759  -0.00586

 Mulliken charges:
               1
     1  C   -2.214697
     2  C   -2.059693
     3  C   -1.888666
     4  C   -2.032322
     5  C   -2.663943
     6  C    5.008687
     7  H    1.631292
     8  H    1.479526
     9  H    1.562310
    10  H    1.488665
    11  H    1.626220
    12  C    3.255340
    13  N   -6.369004
    14  Si   9.721992
    15  C   -6.171619
    16  H    1.223118
    17  H    1.207113
    18  H    1.235848
    19  C   -6.173564
    20  H    1.229030
    21  H    1.208766
    22  H    1.227339
    23  C   -6.200904
    24  H    1.226202
    25  H    1.218398
    26  H    1.224565
 Sum of Mulliken charges =   1.00000

 Dipole moment (field-independent basis, Debye):
    X=             -0.2865    Y=              0.0034    Z=             -0.0010  Tot=              0.2866

 Test job not archived.
 1\1\GINC-SE335\SP\RHF\Aug-CC-pVDZ\C10H14N1Si1(1+)\OHZDE\09-Apr-2025\0\
 \#t hf aug-cc-pvdz iop(5/13=1,5/36=2,99/5=2) pseudo=read geom=check gu
 ess=(read,tcheck) scf=(maxcycle=1)\\title\\1,1\C,0,2.37557,1.21093,-0.
 15906\C,0,3.7564,1.20031,-0.1576\C,0,4.4426,0.00055,-0.00031\C,0,3.758
 8,-1.20055,0.15709\C,0,2.37798,-1.21388,0.15876\C,0,1.69267,-0.00217,-
 0.00012\H,0,1.82811,2.13666,-0.28043\H,0,4.3012,2.12719,-0.27905\H,0,5
 .52555,0.00162,-0.00039\H,0,4.30545,-2.12634,0.27847\H,0,1.83243,-2.14
 07,0.28022\C,0,0.28339,-0.00335,-0.0001\N,0,-0.86528,-0.00374,-0.0001\

 Normal termination of Gaussian 16 at Wed Apr  9 01:10:43 2025.
