 Gaussian 16, Revision C.01,

 ----------------------------------------------------------------------
 #t hf aug-cc-pvdz symm=none int=(grid=ultrafine) guess=(read,tcheck) s
 table=(opt,rrhf)
 ----------------------------------------------------------------------
 -----
 title
 -----
 Symbolic Z-matrix:
 Charge =  0 Multiplicity = 1

 SCF Done:  E(RHF) =  -1155.56705675     A.U. after   16 cycles
 Normal termination of Gaussian 16 at Wed Apr  9 03:17:20 2025.
 Gaussian 16:  ES64L-G16RevC.01  3-Jul-2019

 ----------------------------------------------------------------------
 #t hf aug-cc-pvdz iop(5/13=1,5/36=2,99/5=2) pseudo=read geom=check gue
 ss=(read,tcheck) scf=(maxcycle=1)
 ----------------------------------------------------------------------
 -----
 title
 -----
 Structure from the checkpoint file:  "BH10_402_forward_mol2.chk"
 Charge =  0 Multiplicity = 1

                         Standard orientation:
 ---------------------------------------------------------------------
 Center     Atomic      Atomic             Coordinates (Angstroms)
 Number     Number       Type             X           Y           Z
 ---------------------------------------------------------------------
      1          6           0        0.431736   -2.604557    0.450379
      2          1           0        0.612882   -3.664990    0.269476
      3          1           0        0.211628   -2.483275    1.529527
      4          6           0       -0.768611   -2.149803   -0.340692
      5          6           0        0.306397    0.056249   -0.599609
      6          1           0        0.612701   -0.123263   -1.635216
      7          1           0        0.177542    1.125272   -0.482417
      8          6           0        1.446120   -0.430946    0.304499
      9          1           0        1.137551   -0.256740    1.355426
     10          7           0        1.627884   -1.861149    0.086747
     11          6           0       -2.163861   -0.088172   -0.064933
     12          6           0       -1.524407   -3.010043   -1.013731
     13          6           0       -3.345318   -0.925010    0.244314
     14          6           0       -4.580723   -0.748396   -0.214793
     15          6           0       -0.980739   -0.682029   -0.325095
     16          6           0       -5.742012   -1.630397    0.118455
     17          1           0       -6.162978   -2.088067   -0.782079
     18          1           0       -5.449041   -2.430568    0.800718
     19          1           0       -6.549592   -1.060948    0.588870
     20          6           0        2.732410    0.345580    0.078323
     21          6           0        2.814305   -2.372231    0.746387
     22          1           0        2.809733   -3.461462    0.672697
     23          1           0        2.819499   -2.116685    1.822000
     24          6           0        4.043619   -1.805191    0.063845
     25          1           0        4.118836   -2.236630   -0.938852
     26          6           0        3.961618   -0.304935   -0.036094
     27          1           0        4.946913   -2.090269    0.609493
     28          6           0        5.119482    0.446304   -0.227889
     29          1           0        6.069905   -0.069588   -0.316121
     30          6           0        2.703266    1.739612    0.028370
     31          1           0        1.763971    2.265543    0.144133
     32          6           0        5.077325    1.827474   -0.296802
     33          1           0        5.988525    2.394258   -0.445209
     34          6           0        3.858634    2.478572   -0.159695
     35          1           0        3.807810    3.560025   -0.196615
     36         14           0       -2.315873    1.805070    0.093332
     37          6           0       -1.245249    2.384894    1.532221
     38          1           0       -0.197532    2.094347    1.454332
     39          1           0       -1.285332    3.474117    1.621978
     40          1           0       -1.628730    1.964114    2.465518
     41          6           0       -1.844955    2.685815   -1.502042
     42          1           0       -0.806707    2.535026   -1.799975
     43          1           0       -2.474843    2.336351   -2.324248
     44          1           0       -2.008403    3.762050   -1.396203
     45          6           0       -4.063883    2.346409    0.519841
     46          1           0       -4.474748    1.782398    1.358675
     47          1           0       -4.037843    3.402396    0.804716
     48          1           0       -4.756436    2.251893   -0.317914
     49          1           0       -2.384794   -2.683169   -1.582276
     50          1           0       -1.295349   -4.069970   -1.019206
     51          1           0       -4.784176    0.071943   -0.897011
     52          1           0       -3.164876   -1.782234    0.890359
 ---------------------------------------------------------------------

 SCF Done:  E(RHF) =  -1160.05421926     A.U. after    2 cycles

 The electronic state is 1-A.
 Alpha  occ. eigenvalues --  -76.18222 -15.70373 -11.52477 -11.50533 -11.49953
 Alpha  occ. eigenvalues --  -11.46600 -11.45953 -11.45294 -11.44460 -11.44167
 Alpha  occ. eigenvalues --  -11.43615 -11.41625 -11.41050 -11.40832 -11.39664
 Alpha  occ. eigenvalues --  -11.39001 -11.38666 -11.38111 -11.36254 -11.35758
 Alpha  occ. eigenvalues --  -11.34981 -11.34697 -11.33821  -5.52394  -2.17525
 Alpha  occ. eigenvalues --   -2.16564  -2.16167  -1.49432  -1.33903  -1.28829
 Alpha  occ. eigenvalues --   -1.20622  -1.17621  -1.15377  -1.09461  -1.07338
 Alpha  occ. eigenvalues --   -1.06369  -1.03332  -1.00794  -1.00052  -0.99037
 Alpha  occ. eigenvalues --   -0.94947  -0.90539  -0.87033  -0.85221  -0.83917
 Alpha  occ. eigenvalues --   -0.78100  -0.77371  -0.71727  -0.70097  -0.67062
 Alpha  occ. eigenvalues --   -0.65209  -0.64844  -0.64066  -0.62416  -0.61446
 Alpha  occ. eigenvalues --   -0.59465  -0.58740  -0.57534  -0.57283  -0.56405
 Alpha  occ. eigenvalues --   -0.56297  -0.55928  -0.55430  -0.54864  -0.54758
 Alpha  occ. eigenvalues --   -0.53974  -0.53294  -0.52747  -0.52628  -0.51795
 Alpha  occ. eigenvalues --   -0.50663  -0.49777  -0.48156  -0.47302  -0.46984
 Alpha  occ. eigenvalues --   -0.46548  -0.44335  -0.40917  -0.39890  -0.39695
 Alpha  occ. eigenvalues --   -0.38440  -0.37839  -0.35233  -0.33926  -0.32459
 Alpha  occ. eigenvalues --   -0.31378  -0.30662  -0.27875
 Alpha virt. eigenvalues --    0.03698   0.04236   0.04393   0.04607   0.04988
 Alpha virt. eigenvalues --    0.05155   0.05390   0.05559   0.05719   0.05859
 Alpha virt. eigenvalues --    0.06243   0.06414   0.06843   0.06872   0.07098

 Mulliken charges:
               1
     1  C   -6.967442
     2  H    1.666714
     3  H    1.520574
     4  C    4.750249
     5  C   -6.150983
     6  H    1.531072
     7  H    2.052291
     8  C   -2.672480
     9  H    1.619045
    10  N   -1.780451
    11  C   -0.750013
    12  C   -7.360686
    13  C   -2.789714
    14  C   -1.295029
    15  C    4.234757
    16  C   -5.935665
    17  H    1.148315
    18  H    1.313101
    19  H    1.154561
    20  C    7.675565
    21  C   -5.200150
    22  H    1.552793
    23  H    1.780169
    24  C   -5.907027
    25  H    0.944165
    26  C    5.421430
    27  H    0.974503
    28  C   -3.152783
    29  H    1.803392
    30  C   -0.140185
    31  H    2.630929
    32  C   -2.529016
    33  H    1.549407
    34  C   -5.105118
    35  H    1.530309
    36  Si  13.718347
    37  C   -6.762677
    38  H    1.457068
    39  H    0.982788
    40  H    0.855168
    41  C   -6.543430
    42  H    1.119921
    43  H    0.855669
    44  H    1.016416
    45  C   -6.753391
    46  H    1.212061
    47  H    0.954965
    48  H    1.266336
    49  H    1.855559
    50  H    1.702058
    51  H    1.693276
    52  H    2.253267
 Sum of Mulliken charges =  -0.00000

 Dipole moment (field-independent basis, Debye):
    X=              0.5150    Y=             -0.8761    Z=              0.1751  Tot=              1.0312

 Test job not archived.
 1\1\GINC-SE094\SP\RHF\Aug-CC-pVDZ\C21H29N1Si1\OHZDE\09-Apr-2025\0\\#t
 hf aug-cc-pvdz iop(5/13=1,5/36=2,99/5=2) pseudo=read geom=check guess=
 (read,tcheck) scf=(maxcycle=1)\\title\\0,1\C,0,0.431736,-2.604557,0.45
 0379\H,0,0.612882,-3.66499,0.269476\H,0,0.211628,-2.483275,1.529527\C,
 0,-0.768611,-2.149803,-0.340692\C,0,0.306397,0.056249,-0.599609\H,0,0.
 612701,-0.123263,-1.635216\H,0,0.177542,1.125272,-0.482417\C,0,1.44612
 ,-0.430946,0.304499\H,0,1.137551,-0.25674,1.355426\N,0,1.627884,-1.861
 149,0.086747\C,0,-2.163861,-0.088172,-0.064933\C,0,-1.524407,-3.010043

 Normal termination of Gaussian 16 at Wed Apr  9 03:20:20 2025.
