 Gaussian 16, Revision C.01,

 ----------------------------------------------------------------------
 #t hf aug-cc-pvdz symm=none int=(grid=ultrafine) guess=(read,tcheck) s
 table=(opt,rrhf)
 ----------------------------------------------------------------------
 -----
 title
 -----
 Symbolic Z-matrix:
 Charge = -1 Multiplicity = 1

 SCF Done:  E(RHF) =  -1336.40347821     A.U. after   16 cycles
 Normal termination of Gaussian 16 at Wed Apr  9 02:03:56 2025.
 Gaussian 16:  ES64L-G16RevC.01  3-Jul-2019

 ----------------------------------------------------------------------
 #t hf aug-cc-pvdz iop(5/13=1,5/36=2,99/5=2) pseudo=read geom=check gue
 ss=(read,tcheck) scf=(maxcycle=1)
 ----------------------------------------------------------------------
 -----
 title
 -----
 Structure from the checkpoint file:  "BH10_324_forward_mol1.chk"
 Charge = -1 Multiplicity = 1

                         Standard orientation:
 ---------------------------------------------------------------------
 Center     Atomic      Atomic             Coordinates (Angstroms)
 Number     Number       Type             X           Y           Z
 ---------------------------------------------------------------------
      1         16           0        3.751951   -1.742422   -0.687728
      2          6           0        4.245893   -0.699419    0.731082
      3          6           0        4.065158    0.807748    0.498886
      4          1           0        5.304471   -0.869159    0.940525
      5          1           0        3.684215   -0.982870    1.622447
      6          7           0        4.901407    1.263099   -0.597969
      7          6           0        2.596884    1.167764    0.308115
      8          1           0        4.367680    1.322425    1.423095
      9          8           0        2.198334    1.911617   -0.570930
     10          8           0        1.798262    0.634781    1.213013
     11          6           0        1.266028   -1.913422   -0.180742
     12          8           0       -0.530597   -1.998426    0.228682
     13          1           0        1.291636   -2.925452   -0.540746
     14          1           0        1.591222   -1.710705    0.819914
     15          1           0        1.180881   -1.107764   -0.883195
     16          6           0       -1.218301   -0.932895    0.175912
     17          6           0       -2.642414   -0.942927    0.102674
     18          7           0       -0.635559    0.292247    0.172284
     19          6           0       -1.367805    1.412703   -0.010942
     20          6           0       -3.264646    0.288493   -0.037143
     21          7           0       -2.691657    1.493989   -0.121791
     22          7           0       -3.579959   -1.959418    0.109979
     23          6           0       -4.722021   -1.355071   -0.013661
     24          7           0       -4.606217    0.018308   -0.115314
     25          1           0       -5.689698   -1.835514   -0.045210
     26          6           0       -5.658335    0.997457   -0.238587
     27          1           0       -5.862991    1.483487    0.718392
     28          1           0       -6.565097    0.506554   -0.592362
     29          1           0       -5.358326    1.761642   -0.955208
     30          7           0       -0.652691    2.573920   -0.062660
     31          1           0       -1.164625    3.376535   -0.386739
     32          1           0        0.330287    2.497129   -0.319035
     33          1           0        0.847901    0.584196    0.852133
     34          1           0        4.486190    2.094845   -1.004511
     35          1           0        4.847136    0.542040   -1.317227
 ---------------------------------------------------------------------

 SCF Done:  E(RHF) =  -1340.90250891     A.U. after    2 cycles

 The electronic state is 1-A.
 Alpha  occ. eigenvalues --  -75.45983 -20.96093 -20.92283 -20.91810 -15.68750
 Alpha  occ. eigenvalues --  -15.64954 -15.63320 -15.61027 -15.60003 -15.59769
 Alpha  occ. eigenvalues --  -12.91534 -12.87802 -12.82473 -11.42444 -11.41212
 Alpha  occ. eigenvalues --  -11.39316 -11.37994 -11.34658 -11.34432 -11.33897
 Alpha  occ. eigenvalues --  -11.32045 -11.28642 -11.25467  -7.79653  -1.69894
 Alpha  occ. eigenvalues --   -1.61798  -1.52774  -1.50184  -1.38932  -1.23484
 Alpha  occ. eigenvalues --   -1.22808  -1.19646  -1.17272  -1.00215  -0.98884
 Alpha  occ. eigenvalues --   -0.95534  -0.91134  -0.85829  -0.80412  -0.77341
 Alpha  occ. eigenvalues --   -0.73536  -0.69975  -0.64237  -0.63464  -0.58461
 Alpha  occ. eigenvalues --   -0.57885  -0.55681  -0.55160  -0.54750  -0.52612
 Alpha  occ. eigenvalues --   -0.51508  -0.50398  -0.49557  -0.48852  -0.48154
 Alpha  occ. eigenvalues --   -0.48049  -0.44940  -0.44234  -0.43696  -0.42592
 Alpha  occ. eigenvalues --   -0.39599  -0.39022  -0.38157  -0.36583  -0.35545
 Alpha  occ. eigenvalues --   -0.32379  -0.30721  -0.27800  -0.25695  -0.25063
 Alpha  occ. eigenvalues --   -0.24270  -0.22475  -0.21722  -0.21130  -0.20078
 Alpha  occ. eigenvalues --   -0.17529  -0.14616  -0.06223  -0.05711
 Alpha virt. eigenvalues --    0.09392   0.10894   0.11465   0.11957   0.13336
 Alpha virt. eigenvalues --    0.13400   0.13947   0.14238   0.14833   0.15246
 Alpha virt. eigenvalues --    0.15315   0.16232   0.17190   0.17490   0.17831

 Mulliken charges:
               1
     1  S   -0.762006
     2  C   -3.933027
     3  C    0.493700
     4  H    1.294477
     5  H    1.501219
     6  N   -3.138645
     7  C    6.719426
     8  H    1.631960
     9  O   -3.733315
    10  O   -3.803797
    11  C   -5.567766
    12  O   -4.657358
    13  H    1.377308
    14  H    2.316307
    15  H    2.139751
    16  C    9.515739
    17  C    0.077404
    18  N   -3.458511
    19  C    4.464815
    20  C    4.021952
    21  N   -4.018637
    22  N   -3.842330
    23  C    0.220446
    24  N   -3.986621
    25  H    1.788056
    26  C   -3.886969
    27  H    1.488463
    28  H    1.509914
    29  H    1.515698
    30  N   -2.930739
    31  H    0.616216
    32  H    0.898762
    33  H    1.924519
    34  H    0.680654
    35  H    0.522934
 Sum of Mulliken charges =  -1.00000

 Dipole moment (field-independent basis, Debye):
    X=            -10.9095    Y=              3.2563    Z=              0.0550  Tot=             11.3852

 Test job not archived.
 1\1\GINC-SE069\SP\RHF\Aug-CC-pVDZ\C10H15N6O3S1(1-)\OHZDE\09-Apr-2025\0
 \\#t hf aug-cc-pvdz iop(5/13=1,5/36=2,99/5=2) pseudo=read geom=check g
 uess=(read,tcheck) scf=(maxcycle=1)\\title\\-1,1\S,0,3.751951,-1.74242
 2,-0.687728\C,0,4.245893,-0.699419,0.731082\C,0,4.065158,0.807748,0.49
 8886\H,0,5.304471,-0.869159,0.940525\H,0,3.684215,-0.98287,1.622447\N,
 0,4.901407,1.263099,-0.597969\C,0,2.596884,1.167764,0.308115\H,0,4.367
 68,1.322425,1.423095\O,0,2.198334,1.911617,-0.57093\O,0,1.798262,0.634
 781,1.213013\C,0,1.266028,-1.913422,-0.180742\O,0,-0.530597,-1.998426,

 Normal termination of Gaussian 16 at Wed Apr  9 02:04:58 2025.
