 Gaussian 16, Revision C.01,

 ----------------------------------------------------------------------
 #t hf aug-cc-pvdz symm=none int=(grid=ultrafine) guess=(read,tcheck) s
 table=(opt,rrhf)
 ----------------------------------------------------------------------
 -----
 title
 -----
 Symbolic Z-matrix:
 Charge = -1 Multiplicity = 1

 SCF Done:  E(RHF) =  -718.908052795     A.U. after   14 cycles
 Normal termination of Gaussian 16 at Wed Apr  9 01:36:26 2025.
 Gaussian 16:  ES64L-G16RevC.01  3-Jul-2019

 ----------------------------------------------------------------------
 #t hf aug-cc-pvdz iop(5/13=1,5/36=2,99/5=2) pseudo=read geom=check gue
 ss=(read,tcheck) scf=(maxcycle=1)
 ----------------------------------------------------------------------
 -----
 title
 -----
 Structure from the checkpoint file:  "BH10_321_forward_mol3.chk"
 Charge = -1 Multiplicity = 1

                         Standard orientation:
 ---------------------------------------------------------------------
 Center     Atomic      Atomic             Coordinates (Angstroms)
 Number     Number       Type             X           Y           Z
 ---------------------------------------------------------------------
      1         16           0       -2.010852   -0.473170   -0.146556
      2          6           0       -0.922909    0.497514    0.971586
      3          6           0        0.439312    0.846559    0.363098
      4          1           0       -0.756138   -0.051547    1.902972
      5          1           0       -1.409985    1.441627    1.227812
      6          6           0        1.330941   -0.373359    0.085229
      7          8           0        2.527501   -0.332622    0.290153
      8          8           0        0.756490   -1.441350   -0.437968
      9          1           0       -0.259181   -1.305108   -0.477117
     10          7           0        0.238360    1.646879   -0.847276
     11          1           0        1.006563    1.445970    1.081022
     12          1           0        1.078856    1.668916   -1.412561
     13          1           0       -0.510992    1.210203   -1.383251
 ---------------------------------------------------------------------

 SCF Done:  E(RHF) =  -720.572029692     A.U. after    2 cycles

 The electronic state is 1-A.
 Alpha  occ. eigenvalues --  -75.44428 -20.93480 -20.89167 -15.59600 -12.86463
 Alpha  occ. eigenvalues --  -12.82640 -12.79683 -11.36805 -11.29543 -11.23512
 Alpha  occ. eigenvalues --   -7.78110  -1.66063  -1.49055  -1.21553  -0.98576
 Alpha  occ. eigenvalues --   -0.84573  -0.71198  -0.62335  -0.54300  -0.53171
 Alpha  occ. eigenvalues --   -0.45133  -0.42217  -0.38880  -0.35531  -0.33641
 Alpha  occ. eigenvalues --   -0.31201  -0.24113  -0.21793  -0.17432  -0.13332
 Alpha  occ. eigenvalues --   -0.04671  -0.04174
 Alpha virt. eigenvalues --    0.14028   0.14783   0.15365   0.15715   0.17386
 Alpha virt. eigenvalues --    0.18103   0.20335   0.21068   0.22292   0.24760
 Alpha virt. eigenvalues --    0.25848   0.25867   0.27023   0.27395   0.28159

 Mulliken charges:
               1
     1  S   -0.811674
     2  C   -3.748817
     3  C    0.199546
     4  H    1.392407
     5  H    1.314150
     6  C    5.696282
     7  O   -3.306059
     8  O   -3.301686
     9  H    1.666985
    10  N   -2.908954
    11  H    1.532011
    12  H    0.664958
    13  H    0.610852
 Sum of Mulliken charges =  -1.00000

 Dipole moment (field-independent basis, Debye):
    X=              2.4780    Y=              0.8416    Z=             -0.3130  Tot=              2.6357

 Test job not archived.
 1\1\GINC-SE364\SP\RHF\Aug-CC-pVDZ\C3H6N1O2S1(1-)\OHZDE\09-Apr-2025\0\\
 #t hf aug-cc-pvdz iop(5/13=1,5/36=2,99/5=2) pseudo=read geom=check gue
 ss=(read,tcheck) scf=(maxcycle=1)\\title\\-1,1\S,0,-2.010852,-0.473171
 ,-0.146556\C,0,-0.922909,0.497514,0.971586\C,0,0.439312,0.846559,0.363
 098\H,0,-0.756138,-0.051547,1.902972\H,0,-1.409985,1.441627,1.227812\C
 ,0,1.330941,-0.373359,0.085229\O,0,2.527501,-0.332621,0.290153\O,0,0.7
 56491,-1.44135,-0.437968\H,0,-0.259181,-1.305108,-0.477117\N,0,0.23836
 ,1.646879,-0.847276\H,0,1.006563,1.44597,1.081022\H,0,1.078856,1.66891

 Normal termination of Gaussian 16 at Wed Apr  9 01:36:30 2025.
