 Gaussian 16, Revision C.01,

 ----------------------------------------------------------------------
 #t hf aug-cc-pvdz symm=none int=(grid=ultrafine) guess=(read,tcheck) s
 table=opt
 ----------------------------------------------------------------------
 -----
 title
 -----
 Symbolic Z-matrix:
 Charge =  0 Multiplicity = 2

 SCF Done:  E(UHF) =  -950.901328892     A.U. after   17 cycles
 Normal termination of Gaussian 16 at Wed Apr  9 01:10:19 2025.
 Gaussian 16:  ES64L-G16RevC.01  3-Jul-2019

 ----------------------------------------------------------------------
 #t hf aug-cc-pvdz iop(5/13=1,5/36=2,99/5=2) pseudo=read geom=check gue
 ss=(read,tcheck) scf=(maxcycle=1)
 ----------------------------------------------------------------------
 -----
 title
 -----
 Structure from the checkpoint file:  "BH10_181_reverse_mol2.chk"
 Charge =  0 Multiplicity = 2

                         Standard orientation:
 ---------------------------------------------------------------------
 Center     Atomic      Atomic             Coordinates (Angstroms)
 Number     Number       Type             X           Y           Z
 ---------------------------------------------------------------------
      1          7           0       -0.932927   -0.200224    0.742575
      2         16           0       -0.000908   -1.272426   -0.096452
      3          8           0        1.334627   -0.430338   -0.379956
      4          6           0        2.149793   -0.049525    0.750258
      5          6           0        3.348162    0.696479    0.198080
      6          1           0        2.449275   -0.952539    1.283540
      7          1           0        1.550356    0.583354    1.408555
      8          6           0        2.996844    1.932106   -0.548259
      9          1           0        3.904786    0.003193   -0.450203
     10          1           0        4.013345    0.925706    1.036036
     11          1           0        3.685087    2.765460   -0.589162
     12          6           0       -1.847658    0.788089    0.109495
     13          6           0       -3.045091    0.097772   -0.547003
     14          6           0       -1.076440    1.626614   -0.906413
     15          6           0       -2.317818    1.674647    1.261468
     16          1           0       -2.846764    1.089029    2.018542
     17          1           0       -3.007296    2.433879    0.889057
     18          1           0       -1.472259    2.173585    1.737250
     19          1           0       -2.724355   -0.548043   -1.362900
     20          1           0       -3.736248    0.844955   -0.942891
     21          1           0       -3.586651   -0.509221    0.183049
     22          1           0       -0.718102    1.020116   -1.737957
     23          1           0       -0.223571    2.117409   -0.435374
     24          1           0       -1.737234    2.395812   -1.309527
     25          8           0       -0.518798   -1.542702   -1.411732
     26          8           0        0.300621   -2.332870    0.837923
     27          1           0        2.140100    1.938236   -1.208315
     28          1           0       -1.323813   -0.670359    1.549885
 ---------------------------------------------------------------------

 SCF Done:  E(UHF) =  -953.752946596     A.U. after    2 cycles

 The electronic state is 2-A.
 Alpha  occ. eigenvalues --  -75.92444 -21.09053 -21.05202 -21.05001 -15.76337
 Alpha  occ. eigenvalues --  -13.55657 -13.47977 -13.44564 -11.46849 -11.46565
 Alpha  occ. eigenvalues --  -11.41449 -11.40943 -11.40144 -11.37583 -11.36257
 Alpha  occ. eigenvalues --   -8.27725  -1.91274  -1.74078  -1.66473  -1.43779
 Alpha  occ. eigenvalues --   -1.21913  -1.20046  -1.03030  -1.02184  -1.00962
 Alpha  occ. eigenvalues --   -0.91911  -0.85305  -0.81281  -0.70231  -0.68431
 Alpha  occ. eigenvalues --   -0.66828  -0.64768  -0.63776  -0.59996  -0.59858
 Alpha  occ. eigenvalues --   -0.58097  -0.55875  -0.54420  -0.53841  -0.53277
 Alpha  occ. eigenvalues --   -0.52706  -0.50608  -0.49598  -0.46653  -0.46168
 Alpha  occ. eigenvalues --   -0.42879  -0.41713  -0.39549  -0.39123  -0.36635
 Alpha  occ. eigenvalues --   -0.36399  -0.34471  -0.32799
 Alpha virt. eigenvalues --    0.03446   0.04205   0.04794   0.05154   0.05321
 Alpha virt. eigenvalues --    0.05522   0.05931   0.06431   0.06580   0.06788
 Alpha virt. eigenvalues --    0.07229   0.07875   0.08091   0.09817   0.10037

  Beta  occ. eigenvalues --  -75.92443 -21.09062 -21.05203 -21.05001 -15.76338
  Beta  occ. eigenvalues --  -13.55657 -13.47975 -13.44562 -11.46835 -11.46565
  Beta  occ. eigenvalues --  -11.41008 -11.40718 -11.40126 -11.36275 -11.36233
  Beta  occ. eigenvalues --   -8.27724  -1.91273  -1.74074  -1.66473  -1.43779
  Beta  occ. eigenvalues --   -1.21459  -1.18423  -1.02922  -1.02178  -0.98165
  Beta  occ. eigenvalues --   -0.90779  -0.82922  -0.80809  -0.70112  -0.68330
  Beta  occ. eigenvalues --   -0.66389  -0.64494  -0.63586  -0.59589  -0.59365
  Beta  occ. eigenvalues --   -0.57599  -0.55737  -0.54317  -0.53146  -0.52788
  Beta  occ. eigenvalues --   -0.52039  -0.50203  -0.49167  -0.46406  -0.46130
  Beta  occ. eigenvalues --   -0.42812  -0.41672  -0.39498  -0.39100  -0.36562
  Beta  occ. eigenvalues --   -0.36360  -0.34440
  Beta virt. eigenvalues --    0.03403   0.04231   0.04810   0.05145   0.05311
  Beta virt. eigenvalues --    0.05523   0.05949   0.06274   0.06489   0.06697
  Beta virt. eigenvalues --    0.07249   0.07669   0.07970   0.08810   0.10047

 Mulliken charges and spin densities:
               1          2
     1  N   -4.186345   0.003247
     2  S    9.204957  -0.010688
     3  O   -3.461465  -0.015058
     4  C   -2.036210  -0.020829
     5  C   -3.408946  -0.350982
     6  H    1.565964   0.001662
     7  H    2.224202   0.003687
     8  C   -2.909132   1.536615
     9  H    1.463390   0.016806
    10  H    1.263243  -0.006323
    11  H    1.297703  -0.061485
    12  C    4.548875   0.008922
    13  C   -4.363950   0.000186
    14  C   -4.633234   0.001424
    15  C   -4.972648  -0.004690
    16  H    1.321524  -0.000016
    17  H    1.199638   0.000300
    18  H    1.257187  -0.005113
    19  H    1.461438   0.000213
    20  H    1.128034  -0.000083
    21  H    1.162626  -0.000023
    22  H    1.320765  -0.000185
    23  H    1.593874   0.020590
    24  H    1.030752   0.000281
    25  O   -2.721677   0.000245
    26  O   -2.662733   0.000829
    27  H    1.799575  -0.118520
    28  H    0.512591  -0.001013
 Sum of Mulliken charges =  -0.00000   1.00000

 Dipole moment (field-independent basis, Debye):
    X=              0.0957    Y=              2.6450    Z=              0.9123  Tot=              2.7995
                          Isotropic Fermi Contact Couplings
        Atom                 a.u.       MegaHertz       Gauss      10(-4) cm-1
     1  N(14)             -0.00002      -0.00676      -0.00241      -0.00225
     2  S(33)              0.00198       0.68036       0.24277       0.22694
     3  O(17)             -0.00165       0.99993       0.35680       0.33354
     4  C(13)              0.01811      20.35498       7.26316       6.78969
     5  C(13)             -0.03540     -39.80050     -14.20181     -13.27602
     6  H(1)              -0.00018      -0.82056      -0.29280      -0.27371
     7  H(1)              -0.00064      -2.85886      -1.02011      -0.95361
     8  C(13)              0.12886     144.86453      51.69127      48.32161

 1\1\GINC-SE454\SP\UHF\Aug-CC-pVDZ\C7H16N1O3S1(2)\OHZDE\09-Apr-2025\0\\
 #t hf aug-cc-pvdz iop(5/13=1,5/36=2,99/5=2) pseudo=read geom=check gue
 ss=(read,tcheck) scf=(maxcycle=1)\\title\\0,2\N,0,-0.932927,-0.200224,
 0.742575\S,0,-0.000908,-1.272426,-0.096452\O,0,1.334627,-0.430338,-0.3
 79956\C,0,2.149793,-0.049525,0.750258\C,0,3.348162,0.696479,0.19808\H,
 0,2.449275,-0.952539,1.28354\H,0,1.550356,0.583354,1.408555\C,0,2.9968
 44,1.932106,-0.548259\H,0,3.904786,0.003193,-0.450203\H,0,4.013345,0.9
 25706,1.036036\H,0,3.685087,2.76546,-0.589162\C,0,-1.847658,0.788089,0

 Normal termination of Gaussian 16 at Wed Apr  9 01:10:47 2025.
