 Gaussian 16, Revision C.01,

 ----------------------------------------------------------------------
 #t hf aug-cc-pvdz symm=none int=(grid=ultrafine) guess=(read,tcheck) s
 table=(opt,rrhf)
 ----------------------------------------------------------------------
 -----
 title
 -----
 Symbolic Z-matrix:
 Charge =  0 Multiplicity = 1

 SCF Done:  E(RHF) =  -256.193033213     A.U. after   12 cycles
 Normal termination of Gaussian 16 at Wed Apr  9 02:11:43 2025.
 Gaussian 16:  ES64L-G16RevC.01  3-Jul-2019

 ----------------------------------------------------------------------
 #t hf aug-cc-pvdz iop(5/13=1,5/36=2,99/5=2) pseudo=read geom=check gue
 ss=(read,tcheck) scf=(maxcycle=1)
 ----------------------------------------------------------------------
 -----
 title
 -----
 Structure from the checkpoint file:  "BH10_98_forward_mol2.chk"
 Charge =  0 Multiplicity = 1

                         Standard orientation:
 ---------------------------------------------------------------------
 Center     Atomic      Atomic             Coordinates (Angstroms)
 Number     Number       Type             X           Y           Z
 ---------------------------------------------------------------------
      1          6           0       -0.000001   -0.000001   -0.006963
      2          6           0        1.325645   -0.599829   -0.433795
      3          6           0       -0.143345    1.447995   -0.433661
      4          6           0       -1.182322   -0.848096   -0.433762
      5          1           0        2.153491   -0.002127   -0.049415
      6          1           0        1.396802   -0.631978   -1.523041
      7          1           0        1.423098   -1.616261   -0.049495
      8          1           0        0.688151    2.040574   -0.049233
      9          1           0       -1.074927    1.866031   -0.049307
     10          1           0       -0.151001    1.525809   -1.522898
     11          1           0       -1.078620   -1.863902   -0.049434
     12          1           0       -1.245809   -0.893600   -1.523005
     13          1           0       -2.111272   -0.424271   -0.049381
     14          9           0        0.000025   -0.000077    1.412699
 ---------------------------------------------------------------------

 SCF Done:  E(RHF) =  -257.357181554     A.U. after    2 cycles

 The electronic state is 1-A.
 Alpha  occ. eigenvalues --  -29.22567 -11.46225 -11.39579 -11.39579 -11.35534
 Alpha  occ. eigenvalues --   -1.31066  -1.02604  -1.02604  -0.87698  -0.68681
 Alpha  occ. eigenvalues --   -0.62717  -0.62717  -0.55580  -0.55580  -0.52162
 Alpha  occ. eigenvalues --   -0.51170  -0.47029  -0.47029  -0.33203  -0.23197
 Alpha  occ. eigenvalues --   -0.23197
 Alpha virt. eigenvalues --    0.03824   0.05879   0.05895   0.05895   0.06148
 Alpha virt. eigenvalues --    0.06148   0.06760   0.06760   0.09430   0.11277
 Alpha virt. eigenvalues --    0.13987   0.14497   0.14497   0.15570   0.15570

 Mulliken charges:
               1
     1  C    1.314686
     2  C   -4.101735
     3  C   -4.101760
     4  C   -4.101743
     5  H    1.226337
     6  H    1.183009
     7  H    1.226343
     8  H    1.226337
     9  H    1.226343
    10  H    1.183003
    11  H    1.226334
    12  H    1.183001
    13  H    1.226346
    14  F    0.083500
 Sum of Mulliken charges =   0.00000

 Dipole moment (field-independent basis, Debye):
    X=              0.0000    Y=             -0.0001    Z=              0.8983  Tot=              0.8983

 Test job not archived.
 1\1\GINC-SE341\SP\RHF\Aug-CC-pVDZ\C4H9F1\OHZDE\09-Apr-2025\0\\#t hf au
 g-cc-pvdz iop(5/13=1,5/36=2,99/5=2) pseudo=read geom=check guess=(read
 ,tcheck) scf=(maxcycle=1)\\title\\0,1\C,0,0.000001,0.000001,-0.006963\
 C,0,-1.335246,0.578142,-0.433795\C,0,0.166927,-1.445466,-0.433661\C,0,
 1.168342,0.867254,-0.433762\H,0,-2.15324,-0.032974,-0.049415\H,0,-1.40
 6917,0.609127,-1.523041\H,0,-1.449253,1.592851,-0.049495\H,0,-0.6548,-
 2.051519,-0.049233\H,0,1.105199,-1.848263,-0.049307\H,0,0.175851,-1.52
 3145,-1.522898\H,0,1.048097,1.881235,-0.049434\H,0,1.231079,0.913787,-

 Normal termination of Gaussian 16 at Wed Apr  9 02:11:47 2025.
