 Gaussian 16, Revision C.01,

 ----------------------------------------------------------------------
 #t hf aug-cc-pvdz symm=none int=(grid=ultrafine) guess=(read,tcheck) s
 table=(opt,rrhf)
 ----------------------------------------------------------------------
 -----
 title
 -----
 Symbolic Z-matrix:
 Charge =  0 Multiplicity = 1

 SCF Done:  E(RHF) =  -997.714412644     A.U. after   16 cycles
 Normal termination of Gaussian 16 at Wed Apr  9 02:25:53 2025.
 Gaussian 16:  ES64L-G16RevC.01  3-Jul-2019

 ----------------------------------------------------------------------
 #t hf aug-cc-pvdz iop(5/13=1,5/36=2,99/5=2) pseudo=read geom=check gue
 ss=(read,tcheck) scf=(maxcycle=1)
 ----------------------------------------------------------------------
 -----
 title
 -----
 Structure from the checkpoint file:  "BH10_82_reverse_mol2.chk"
 Charge =  0 Multiplicity = 1

                         Standard orientation:
 ---------------------------------------------------------------------
 Center     Atomic      Atomic             Coordinates (Angstroms)
 Number     Number       Type             X           Y           Z
 ---------------------------------------------------------------------
      1          6           0       -0.014285   -0.112511    2.016472
      2          6           0       -1.920039   -0.370631    0.602299
      3          6           0        0.500411    1.053005    1.201300
      4          6           0       -1.580044    0.755934   -0.065234
      5          6           0       -2.601022    1.009616   -1.132694
      6          6           0       -1.123228   -0.794882    1.726801
      7          6           0       -3.145130   -0.899349    0.041109
      8          6           0        1.889278    0.790829    0.567977
      9          6           0        2.949553    0.685135    1.673936
     10          1           0        2.836848   -0.224972    2.266132
     11          1           0        2.888149    1.534855    2.361730
     12          1           0        2.138359    1.688782   -0.011990
     13          1           0        3.957941    0.678303    1.257675
     14          7           0       -0.497727    1.497909    0.200214
     15          6           0       -0.229067    2.734471   -0.501819
     16          1           0        0.213676    3.453329    0.191594
     17          1           0        0.460328    2.598351   -1.340325
     18          1           0       -1.155515    3.162572   -0.882743
     19          8           0       -3.798368   -1.859390    0.331384
     20          8           0       -3.522668   -0.061418   -1.003094
     21          1           0       -2.162296    0.992599   -2.134057
     22          1           0       -3.131659    1.955346   -0.992929
     23         14           0        2.065693   -0.647341   -0.678612
     24          6           0        0.736712   -0.614439   -2.005974
     25          6           0        3.730433   -0.394508   -1.519421
     26          6           0        2.055236   -2.319409    0.169863
     27          1           0        1.000992   -1.315205   -2.802417
     28          1           0       -0.235367   -0.916670   -1.614373
     29          1           0        0.635781    0.372960   -2.463716
     30          1           0        3.790602    0.582378   -2.007055
     31          1           0        4.562935   -0.466971   -0.815983
     32          1           0        3.887835   -1.154701   -2.289016
     33          1           0        2.819271   -2.385935    0.947949
     34          1           0        1.088127   -2.528882    0.628435
     35          1           0        2.260432   -3.109104   -0.558054
     36          1           0        0.639847    1.907340    1.883022
     37          1           0        0.588430   -0.383558    2.873577
     38          1           0       -1.444893   -1.636503    2.327605
 ---------------------------------------------------------------------

 SCF Done:  E(RHF) =  -1001.25738100     A.U. after    2 cycles

 The electronic state is 1-A.
 Alpha  occ. eigenvalues --  -76.18455 -21.07482 -21.02258 -15.77089 -11.56032
 Alpha  occ. eigenvalues --  -11.52119 -11.50568 -11.47116 -11.46668 -11.43410
 Alpha  occ. eigenvalues --  -11.42303 -11.40925 -11.39146 -11.37232 -11.35693
 Alpha  occ. eigenvalues --  -11.35314 -11.34712  -5.52734  -2.17253  -2.16721
 Alpha  occ. eigenvalues --   -2.16510  -1.83547  -1.65026  -1.50904  -1.24835
 Alpha  occ. eigenvalues --   -1.23560  -1.12718  -1.07099  -1.05511  -1.03563
 Alpha  occ. eigenvalues --   -1.01281  -1.01090  -0.96838  -0.88242  -0.85007
 Alpha  occ. eigenvalues --   -0.78491  -0.70912  -0.69695  -0.68990  -0.65869
 Alpha  occ. eigenvalues --   -0.65228  -0.65055  -0.61274  -0.60598  -0.59718
 Alpha  occ. eigenvalues --   -0.58582  -0.57314  -0.56983  -0.55859  -0.55195
 Alpha  occ. eigenvalues --   -0.54267  -0.54004  -0.53842  -0.53447  -0.52300
 Alpha  occ. eigenvalues --   -0.50514  -0.48915  -0.47077  -0.44955  -0.43337
 Alpha  occ. eigenvalues --   -0.41905  -0.39667  -0.38880  -0.38728  -0.36708
 Alpha  occ. eigenvalues --   -0.30600  -0.27401  -0.24364
 Alpha virt. eigenvalues --    0.02927   0.03836   0.04114   0.04449   0.04508
 Alpha virt. eigenvalues --    0.04718   0.05653   0.05952   0.06053   0.06267
 Alpha virt. eigenvalues --    0.06452   0.06645   0.07131   0.07466   0.07895

 Mulliken charges:
               1
     1  C   -0.755862
     2  C    2.800498
     3  C   -2.317430
     4  C    2.188612
     5  C   -1.706637
     6  C   -0.764772
     7  C    4.256619
     8  C   -3.451960
     9  C   -5.505394
    10  H    1.543795
    11  H    1.238926
    12  H    1.800223
    13  H    1.110854
    14  N   -4.221072
    15  C   -4.919555
    16  H    1.510959
    17  H    1.659875
    18  H    1.551969
    19  O   -3.967927
    20  O   -3.514990
    21  H    1.217073
    22  H    1.262677
    23  Si  14.118484
    24  C   -7.235480
    25  C   -6.437937
    26  C   -6.551389
    27  H    0.952268
    28  H    1.815670
    29  H    1.011199
    30  H    0.832410
    31  H    0.972127
    32  H    1.137869
    33  H    0.977106
    34  H    1.030492
    35  H    1.040802
    36  H    1.552106
    37  H    1.836190
    38  H    1.931601
 Sum of Mulliken charges =  -0.00000

 Dipole moment (field-independent basis, Debye):
    X=              3.8170    Y=              3.9979    Z=             -0.6618  Tot=              5.5669

 Test job not archived.
 1\1\GINC-SE112\SP\RHF\Aug-CC-pVDZ\C13H21N1O2Si1\OHZDE\09-Apr-2025\0\\#
 t hf aug-cc-pvdz iop(5/13=1,5/36=2,99/5=2) pseudo=read geom=check gues
 s=(read,tcheck) scf=(maxcycle=1)\\title\\0,1\C,0,-0.014285,-0.112511,2
 .016472\C,0,-1.920039,-0.370631,0.602299\C,0,0.500411,1.053005,1.2013\
 C,0,-1.580044,0.755934,-0.065234\C,0,-2.601022,1.009616,-1.132694\C,0,
 -1.123228,-0.794882,1.726801\C,0,-3.14513,-0.899349,0.041109\C,0,1.889
 278,0.790829,0.567977\C,0,2.949553,0.685135,1.673936\H,0,2.836848,-0.2
 24972,2.266132\H,0,2.888149,1.534855,2.36173\H,0,2.138359,1.688782,-0.

 Normal termination of Gaussian 16 at Wed Apr  9 02:27:06 2025.
