 Gaussian 16, Revision C.01,

 ----------------------------------------------------------------------
 #t hf aug-cc-pvdz symm=none int=(grid=ultrafine) guess=(read,tcheck) s
 table=(opt,rrhf)
 ----------------------------------------------------------------------
 -----
 title
 -----
 Symbolic Z-matrix:
 Charge =  0 Multiplicity = 1

 SCF Done:  E(RHF) =  -650.918896874     A.U. after   13 cycles
 Normal termination of Gaussian 16 at Wed Apr  9 00:56:04 2025.
 Gaussian 16:  ES64L-G16RevC.01  3-Jul-2019

 ----------------------------------------------------------------------
 #t hf aug-cc-pvdz iop(5/13=1,5/36=2,99/5=2) pseudo=read geom=check gue
 ss=(read,tcheck) scf=(maxcycle=1)
 ----------------------------------------------------------------------
 -----
 title
 -----
 Structure from the checkpoint file:  "BH10_101_reverse_mol3.chk"
 Charge =  0 Multiplicity = 1

                         Standard orientation:
 ---------------------------------------------------------------------
 Center     Atomic      Atomic             Coordinates (Angstroms)
 Number     Number       Type             X           Y           Z
 ---------------------------------------------------------------------
      1          8           0        0.097064    1.505759   -0.000109
      2          6           0       -0.078181    0.340958   -0.000036
      3          6           0        0.953957   -0.749306    0.000119
      4          6           0        2.375359   -0.209268    0.000208
      5          1           0        0.753805   -1.379177   -0.870721
      6          1           0        0.753656   -1.379079    0.870994
      7          1           0        2.562884    0.405812   -0.880212
      8          1           0        3.087380   -1.035381    0.000322
      9          1           0        2.562731    0.405924    0.880582
     10         17           0       -1.764928   -0.315205   -0.000108
 ---------------------------------------------------------------------

 SCF Done:  E(RHF) =  -652.042785176     A.U. after    2 cycles

 The electronic state is 1-A.
 Alpha  occ. eigenvalues --  -99.89629 -21.09999 -11.55119 -11.43839 -11.38585
 Alpha  occ. eigenvalues --  -10.46999  -9.66898  -9.66130  -9.66037  -1.76516
 Alpha  occ. eigenvalues --   -1.32641  -1.20104  -0.97747  -0.79025  -0.69026
 Alpha  occ. eigenvalues --   -0.66659  -0.59392  -0.56945  -0.55527  -0.51047
 Alpha  occ. eigenvalues --   -0.51000  -0.48551  -0.44604  -0.34702
 Alpha virt. eigenvalues --    0.03063   0.05372   0.05946   0.06034   0.06609
 Alpha virt. eigenvalues --    0.07905   0.09408   0.11758   0.11992   0.12293
 Alpha virt. eigenvalues --    0.13104   0.13591   0.14686   0.15571   0.17523

 Mulliken charges:
               1
     1  O   -2.607373
     2  C    1.946629
     3  C   -2.621946
     4  C   -3.246245
     5  H    1.533080
     6  H    1.533081
     7  H    1.229996
     8  H    1.129660
     9  H    1.229995
    10  Cl  -0.126877
 Sum of Mulliken charges =   0.00000

 Dipole moment (field-independent basis, Debye):
    X=              3.0316    Y=             -0.0916    Z=              0.0002  Tot=              3.0330

 Test job not archived.
 1\1\GINC-SE129\SP\RHF\Aug-CC-pVDZ\C3H5Cl1O1\OHZDE\09-Apr-2025\0\\#t hf
  aug-cc-pvdz iop(5/13=1,5/36=2,99/5=2) pseudo=read geom=check guess=(r
 ead,tcheck) scf=(maxcycle=1)\\title\\0,1\O,0,-0.097064,1.505759,0.0001
 09\C,0,0.078181,0.340958,0.000036\C,0,-0.953957,-0.749306,-0.000119\C,
 0,-2.375359,-0.209268,-0.000208\H,0,-0.753805,-1.379177,0.870721\H,0,-
 0.753656,-1.379079,-0.870994\H,0,-2.562884,0.405812,0.880212\H,0,-3.08
 738,-1.035382,-0.000322\H,0,-2.562731,0.405924,-0.880582\Cl,0,1.764928
 ,-0.315204,0.000108\\Version=ES64L-G16RevC.01\State=1-A\HF=-652.042785

 Normal termination of Gaussian 16 at Wed Apr  9 00:56:07 2025.
