 Gaussian 16, Revision C.01,

 ----------------------------------------------------------------------
 #t hf aug-cc-pvdz symm=none int=(grid=ultrafine) guess=(read,tcheck) s
 table=(opt,rrhf)
 ----------------------------------------------------------------------
 -----
 title
 -----
 Symbolic Z-matrix:
 Charge =  0 Multiplicity = 1

 SCF Done:  E(RHF) =  -857.019087439     A.U. after   15 cycles
 Normal termination of Gaussian 16 at Wed Apr  9 02:05:37 2025.
 Gaussian 16:  ES64L-G16RevC.01  3-Jul-2019

 ----------------------------------------------------------------------
 #t hf aug-cc-pvdz iop(5/13=1,5/36=2,99/5=2) pseudo=read geom=check gue
 ss=(read,tcheck) scf=(maxcycle=1)
 ----------------------------------------------------------------------
 -----
 title
 -----
 Structure from the checkpoint file:  "BH10_414_forward_mol1.chk"
 Charge =  0 Multiplicity = 1

                         Standard orientation:
 ---------------------------------------------------------------------
 Center     Atomic      Atomic             Coordinates (Angstroms)
 Number     Number       Type             X           Y           Z
 ---------------------------------------------------------------------
      1         16           0       -1.560370   -0.038043    0.105175
      2          6           0       -0.646804   -1.170853   -0.974775
      3          6           0        0.692245   -1.717514   -0.455824
      4          6           0        1.372160   -0.880834    0.604392
      5          6           0        1.547226    0.888472   -0.653926
      6          6           0        0.674933    1.735431    0.249577
      7          6           0       -0.804256    1.594790   -0.095424
      8          6           0        2.741613   -0.490012    0.615038
      9          6           0        2.869482    0.433201   -0.382062
     10          1           0        1.299870    1.093763   -1.704570
     11          1           0        0.867780   -0.991324    1.564777
     12          8           0       -1.404346   -0.459654    1.495877
     13          8           0       -2.897713    0.074410   -0.470676
     14          1           0       -1.380124   -1.956332   -1.165635
     15          1           0       -0.514804   -0.612222   -1.902608
     16          1           0        1.360213   -1.840651   -1.309555
     17          1           0        0.517323   -2.712592   -0.032894
     18          1           0        0.912554    2.795705    0.083615
     19          1           0        0.850869    1.529623    1.303991
     20          1           0       -1.003138    1.863427   -1.134626
     21          1           0       -1.433099    2.223520    0.537576
     22          1           0        3.466694   -0.779367    1.370131
     23          1           0        3.758649    0.721004   -0.936599
 ---------------------------------------------------------------------

 SCF Done:  E(RHF) =  -859.479221419     A.U. after    2 cycles

 The electronic state is 1-A.
 Alpha  occ. eigenvalues --  -75.86993 -21.03138 -21.02905 -13.48920 -13.41120
 Alpha  occ. eigenvalues --  -13.34654 -11.48912 -11.48646 -11.46193 -11.44428
 Alpha  occ. eigenvalues --  -11.44228 -11.40547 -11.40228 -11.38286  -8.22010
 Alpha  occ. eigenvalues --   -1.81184  -1.63433  -1.35189  -1.21436  -1.20200
 Alpha  occ. eigenvalues --   -1.03806  -1.02957  -0.90997  -0.88058  -0.80882
 Alpha  occ. eigenvalues --   -0.75139  -0.71331  -0.67343  -0.65610  -0.64332
 Alpha  occ. eigenvalues --   -0.61178  -0.60134  -0.54784  -0.54395  -0.51984
 Alpha  occ. eigenvalues --   -0.51675  -0.50332  -0.48799  -0.46853  -0.41997
 Alpha  occ. eigenvalues --   -0.38163  -0.36727  -0.34458  -0.33614  -0.33182
 Alpha  occ. eigenvalues --   -0.30545
 Alpha virt. eigenvalues --    0.03416   0.04383   0.04490   0.04832   0.05030
 Alpha virt. eigenvalues --    0.05497   0.05811   0.06265   0.06638   0.07944
 Alpha virt. eigenvalues --    0.08186   0.08405   0.10155   0.10920   0.11273

 Mulliken charges:
               1
     1  S    7.650518
     2  C   -3.913250
     3  C   -3.639066
     4  C   -0.659156
     5  C   -0.308773
     6  C   -3.419789
     7  C   -4.107603
     8  C   -1.539682
     9  C   -1.218926
    10  H    1.268711
    11  H    1.579435
    12  O   -2.905905
    13  O   -2.834579
    14  H    1.474810
    15  H    1.655730
    16  H    1.582031
    17  H    1.176241
    18  H    1.128413
    19  H    1.603076
    20  H    1.451534
    21  H    1.481041
    22  H    1.247603
    23  H    1.247588
 Sum of Mulliken charges =   0.00000

 Dipole moment (field-independent basis, Debye):
    X=              2.8129    Y=              0.3292    Z=             -0.7442  Tot=              2.9283

 Test job not archived.
 1\1\GINC-SE249\SP\RHF\Aug-CC-pVDZ\C8H12O2S1\OHZDE\09-Apr-2025\0\\#t hf
  aug-cc-pvdz iop(5/13=1,5/36=2,99/5=2) pseudo=read geom=check guess=(r
 ead,tcheck) scf=(maxcycle=1)\\title\\0,1\S,0,-1.56037,-0.038043,0.1051
 75\C,0,-0.646804,-1.170853,-0.974775\C,0,0.692245,-1.717514,-0.455824\
 C,0,1.37216,-0.880834,0.604392\C,0,1.547226,0.888472,-0.653926\C,0,0.6
 74933,1.735431,0.249577\C,0,-0.804256,1.59479,-0.095424\C,0,2.741613,-
 0.490012,0.615038\C,0,2.869482,0.433201,-0.382062\H,0,1.29987,1.093763
 ,-1.70457\H,0,0.86778,-0.991324,1.564777\O,0,-1.404346,-0.459654,1.495

 Normal termination of Gaussian 16 at Wed Apr  9 02:05:55 2025.
