 Gaussian 16, Revision C.01,

 ----------------------------------------------------------------------
 #t hf aug-cc-pvdz symm=none int=(grid=ultrafine) guess=(read,tcheck) s
 table=(opt,rrhf)
 ----------------------------------------------------------------------
 -----
 title
 -----
 Symbolic Z-matrix:
 Charge =  0 Multiplicity = 1

 SCF Done:  E(RHF) =  -727.123485622     A.U. after   15 cycles
 Normal termination of Gaussian 16 at Wed Apr  9 01:00:32 2025.
 Gaussian 16:  ES64L-G16RevC.01  3-Jul-2019

 ----------------------------------------------------------------------
 #t hf aug-cc-pvdz iop(5/13=1,5/36=2,99/5=2) pseudo=read geom=check gue
 ss=(read,tcheck) scf=(maxcycle=1)
 ----------------------------------------------------------------------
 -----
 title
 -----
 Structure from the checkpoint file:  "BH10_173_reverse_mol3.chk"
 Charge =  0 Multiplicity = 1

                         Standard orientation:
 ---------------------------------------------------------------------
 Center     Atomic      Atomic             Coordinates (Angstroms)
 Number     Number       Type             X           Y           Z
 ---------------------------------------------------------------------
      1          6           0       -1.815315    0.000000    0.005602
      2          6           0       -1.150887   -1.209639   -0.001488
      3          6           0        0.236097   -1.202484   -0.013530
      4          6           0        0.936100    0.000002   -0.007742
      5          6           0        0.236096    1.202485   -0.013497
      6          6           0       -1.150890    1.209638   -0.001474
      7         16           0        2.727776    0.000028   -0.071307
      8          1           0       -1.714646   -2.133159   -0.002616
      9          1           0        0.781079   -2.137321   -0.027009
     10          1           0        0.781079    2.137322   -0.026925
     11          1           0       -1.714650    2.133158   -0.002585
     12          9           0       -3.162355   -0.000003    0.014986
     13          1           0        2.936707   -0.000437    1.257938
 ---------------------------------------------------------------------

 SCF Done:  E(RHF) =  -728.780780051     A.U. after    2 cycles

 The electronic state is 1-A.
 Alpha  occ. eigenvalues --  -75.69845 -29.29115 -13.17967 -13.12660 -13.06975
 Alpha  occ. eigenvalues --  -11.54087 -11.47800 -11.44828 -11.44150 -11.42012
 Alpha  occ. eigenvalues --  -11.38853  -8.03754  -1.39570  -1.20764  -1.12225
 Alpha  occ. eigenvalues --   -1.07691  -0.90491  -0.89634  -0.77703  -0.66573
 Alpha  occ. eigenvalues --   -0.62445  -0.60676  -0.60657  -0.56599  -0.50996
 Alpha  occ. eigenvalues --   -0.48786  -0.43469  -0.39740  -0.38108  -0.35408
 Alpha  occ. eigenvalues --   -0.28200  -0.25015  -0.24260
 Alpha virt. eigenvalues --    0.02979   0.04675   0.05050   0.05780   0.06765
 Alpha virt. eigenvalues --    0.07418   0.09484   0.10078   0.11308   0.12236
 Alpha virt. eigenvalues --    0.12457   0.12989   0.13521   0.13713   0.14152

 Mulliken charges:
               1
     1  C    2.849284
     2  C   -4.629763
     3  C   -1.375921
     4  C    1.113358
     5  C   -1.376150
     6  C   -4.629808
     7  S   -0.683825
     8  H    1.679979
     9  H    1.790012
    10  H    1.789974
    11  H    1.679988
    12  F    0.656034
    13  H    1.136837
 Sum of Mulliken charges =  -0.00000

 Dipole moment (field-independent basis, Debye):
    X=             -2.4643    Y=              0.0003    Z=             -0.8468  Tot=              2.6057

 Test job not archived.
 1\1\GINC-SE461\SP\RHF\Aug-CC-pVDZ\C6H5F1S1\OHZDE\09-Apr-2025\0\\#t hf
 aug-cc-pvdz iop(5/13=1,5/36=2,99/5=2) pseudo=read geom=check guess=(re
 ad,tcheck) scf=(maxcycle=1)\\title\\0,1\C,0,1.815315,0.,0.005602\C,0,1
 .150887,1.209639,-0.001488\C,0,-0.236097,1.202484,-0.01353\C,0,-0.9361
 ,-0.000002,-0.007742\C,0,-0.236096,-1.202485,-0.013497\C,0,1.15089,-1.
 209638,-0.001474\S,0,-2.727776,-0.000028,-0.071307\H,0,1.714646,2.1331
 59,-0.002616\H,0,-0.781079,2.137321,-0.027009\H,0,-0.781079,-2.137322,
 -0.026925\H,0,1.71465,-2.133158,-0.002585\F,0,3.162355,0.000003,0.0149

 Normal termination of Gaussian 16 at Wed Apr  9 01:00:36 2025.
