 Gaussian 16, Revision C.01,

 ----------------------------------------------------------------------
 #t hf aug-cc-pvdz symm=none int=(grid=ultrafine) guess=(read,tcheck) s
 table=(opt,rrhf)
 ----------------------------------------------------------------------
 -----
 title
 -----
 Symbolic Z-matrix:
 Charge =  0 Multiplicity = 1

 SCF Done:  E(RHF) =  -932.198171120     A.U. after   15 cycles
 Normal termination of Gaussian 16 at Wed Apr  9 00:56:29 2025.
 Gaussian 16:  ES64L-G16RevC.01  3-Jul-2019

 ----------------------------------------------------------------------
 #t hf aug-cc-pvdz iop(5/13=1,5/36=2,99/5=2) pseudo=read geom=check gue
 ss=(read,tcheck) scf=(maxcycle=1)
 ----------------------------------------------------------------------
 -----
 title
 -----
 Structure from the checkpoint file:  "BH10-RE_114_mol3.chk"
 Charge =  0 Multiplicity = 1

                         Standard orientation:
 ---------------------------------------------------------------------
 Center     Atomic      Atomic             Coordinates (Angstroms)
 Number     Number       Type             X           Y           Z
 ---------------------------------------------------------------------
      1          6           0       -2.677808    0.000122    0.790560
      2          6           0       -1.204243    0.000081    0.534264
      3          6           0       -0.513579    1.202702    0.410968
      4          6           0       -0.513625   -1.202580    0.411088
      5          1           0       -1.047825    2.140849    0.501120
      6          6           0        0.848905    1.212315    0.168863
      7          6           0        0.848857   -1.212270    0.168982
      8          6           0        1.505919    0.000004    0.052512
      9          1           0       -1.047909   -2.140697    0.501333
     10          1           0        1.404487    2.133894    0.071743
     11          1           0        1.404403   -2.133880    0.071951
     12          7           0        2.958581   -0.000036   -0.200374
     13          8           0        3.513066    1.076900   -0.296743
     14          8           0        3.513016   -1.077004   -0.296681
     15          1           0       -2.991655    0.887434    1.333661
     16          1           0       -2.991661   -0.887033    1.333917
     17         17           0       -3.612653   -0.000101   -0.758068
 ---------------------------------------------------------------------

 SCF Done:  E(RHF) =  -934.574038217     A.U. after    2 cycles

 The electronic state is 1-A.
 Alpha  occ. eigenvalues --  -99.89421 -21.09770 -21.09652 -16.00569 -11.55866
 Alpha  occ. eigenvalues --  -11.48792 -11.47765 -11.47755 -11.46510 -11.44660
 Alpha  occ. eigenvalues --  -11.40723 -10.46672  -9.66639  -9.65903  -9.65811
 Alpha  occ. eigenvalues --   -2.01194  -1.69867  -1.41730  -1.32888  -1.20221
 Alpha  occ. eigenvalues --   -1.13878  -1.06851  -0.95496  -0.91723  -0.83570
 Alpha  occ. eigenvalues --   -0.75293  -0.69338  -0.68857  -0.68591  -0.64958
 Alpha  occ. eigenvalues --   -0.63209  -0.63045  -0.61959  -0.57087  -0.54081
 Alpha  occ. eigenvalues --   -0.52949  -0.49625  -0.47698  -0.47113  -0.37036
 Alpha  occ. eigenvalues --   -0.36695  -0.36210  -0.31762  -0.31535
 Alpha virt. eigenvalues --    0.02471   0.04111   0.04851   0.05094   0.06396
 Alpha virt. eigenvalues --    0.06669   0.07760   0.07779   0.08504   0.09612
 Alpha virt. eigenvalues --    0.09915   0.11506   0.11767   0.12467   0.12631

 Mulliken charges:
               1
     1  C   -5.361044
     2  C    2.754260
     3  C   -0.207182
     4  C   -0.207316
     5  H    1.791987
     6  C   -3.085586
     7  C   -3.085494
     8  C    1.852014
     9  H    1.791965
    10  H    1.854172
    11  H    1.854181
    12  N    3.331845
    13  O   -3.046933
    14  O   -3.046931
    15  H    1.311961
    16  H    1.311866
    17  Cl   0.186235
 Sum of Mulliken charges =  -0.00000

 Dipole moment (field-independent basis, Debye):
    X=             -1.6970    Y=              0.0003    Z=              2.1712  Tot=              2.7557

 Test job not archived.
 1\1\GINC-SE009\SP\RHF\Aug-CC-pVDZ\C7H6Cl1N1O2\OHZDE\09-Apr-2025\0\\#t
 hf aug-cc-pvdz iop(5/13=1,5/36=2,99/5=2) pseudo=read geom=check guess=
 (read,tcheck) scf=(maxcycle=1)\\title\\0,1\C,0,-2.677808,0.000122,0.79
 056\C,0,-1.204243,0.000081,0.534264\C,0,-0.513579,1.202702,0.410968\C,
 0,-0.513625,-1.20258,0.411088\H,0,-1.047825,2.140849,0.50112\C,0,0.848
 905,1.212315,0.168863\C,0,0.848857,-1.21227,0.168982\C,0,1.505919,0.00
 0004,0.052512\H,0,-1.047909,-2.140697,0.501333\H,0,1.404487,2.133894,0
 .071743\H,0,1.404403,-2.13388,0.071951\N,0,2.958581,-0.000036,-0.20037

 Normal termination of Gaussian 16 at Wed Apr  9 00:56:38 2025.
