 Gaussian 16, Revision C.01,

 ----------------------------------------------------------------------
 #t hf aug-cc-pvdz symm=none int=(grid=ultrafine) guess=(read,tcheck) s
 table=(opt,rrhf)
 ----------------------------------------------------------------------
 -----
 title
 -----
 Symbolic Z-matrix:
 Charge =  0 Multiplicity = 1

 SCF Done:  E(RHF) =  -498.870905975     A.U. after   14 cycles
 Normal termination of Gaussian 16 at Wed Apr  9 00:57:11 2025.
 Gaussian 16:  ES64L-G16RevC.01  3-Jul-2019

 ----------------------------------------------------------------------
 #t hf aug-cc-pvdz iop(5/13=1,5/36=2,99/5=2) pseudo=read geom=check gue
 ss=(read,tcheck) scf=(maxcycle=1)
 ----------------------------------------------------------------------
 -----
 title
 -----
 Structure from the checkpoint file:  "BH10_107_forward_mol2.chk"
 Charge =  0 Multiplicity = 1

                         Standard orientation:
 ---------------------------------------------------------------------
 Center     Atomic      Atomic             Coordinates (Angstroms)
 Number     Number       Type             X           Y           Z
 ---------------------------------------------------------------------
      1          6           0        0.272587    0.436301   -0.493132
      2          6           0        1.458203   -0.458749   -0.090540
      3          8           0        2.579185    0.223737    0.121540
      4          8           0        1.398465   -1.653247   -0.005949
      5          6           0       -1.086187   -0.087798    0.013207
      6          1           0        0.244913    0.397666   -1.586353
      7          7           0        0.573657    1.816886   -0.123441
      8          1           0        2.337353    1.170273    0.020348
      9          6           0       -1.140502   -0.258333    1.517490
     10          6           0       -1.553208   -1.318942   -0.731103
     11          1           0        0.283117    2.018736    0.827506
     12          1           0        0.082568    2.466194   -0.723983
     13          1           0       -0.839595    0.651775    2.040813
     14          1           0       -2.161601   -0.491533    1.819482
     15          1           0       -2.559536   -1.583063   -0.403091
     16          1           0       -0.877130   -2.150818   -0.542423
     17          1           0       -1.580214   -1.122824   -1.804496
     18          1           0       -0.488060   -1.075229    1.826172
     19          9           0       -1.998219    0.951314   -0.314462
 ---------------------------------------------------------------------

 SCF Done:  E(RHF) =  -501.040529039     A.U. after    2 cycles

 The electronic state is 1-A.
 Alpha  occ. eigenvalues --  -29.24831 -21.11146 -21.04741 -15.77002 -11.53815
 Alpha  occ. eigenvalues --  -11.51599 -11.46220 -11.40791 -11.37726  -1.82997
 Alpha  occ. eigenvalues --   -1.65977  -1.40951  -1.27051  -1.05019  -1.03450
 Alpha  occ. eigenvalues --   -0.92427  -0.78362  -0.74777  -0.70956  -0.68313
 Alpha  occ. eigenvalues --   -0.63842  -0.60804  -0.59216  -0.55759  -0.55241
 Alpha  occ. eigenvalues --   -0.53790  -0.51408  -0.49959  -0.48622  -0.46072
 Alpha  occ. eigenvalues --   -0.39229  -0.35524  -0.33359  -0.29547  -0.25193
 Alpha  occ. eigenvalues --   -0.24695
 Alpha virt. eigenvalues --    0.03729   0.04444   0.04873   0.05381   0.05596
 Alpha virt. eigenvalues --    0.06612   0.07469   0.07768   0.08454   0.09118
 Alpha virt. eigenvalues --    0.10045   0.12295   0.12843   0.13218   0.13692

 Mulliken charges:
               1
     1  C   -2.288037
     2  C    6.295053
     3  O   -3.304244
     4  O   -3.378357
     5  C    4.110819
     6  H    1.802046
     7  N   -2.701417
     8  H    1.063903
     9  C   -4.887679
    10  C   -4.876495
    11  H    0.694486
    12  H    0.456676
    13  H    1.167433
    14  H    1.164371
    15  H    1.105886
    16  H    1.287042
    17  H    1.145570
    18  H    1.216828
    19  F   -0.073882
 Sum of Mulliken charges =   0.00000

 Dipole moment (field-independent basis, Debye):
    X=             -2.5616    Y=              3.2909    Z=             -0.3691  Tot=              4.1867

 Test job not archived.
 1\1\GINC-SE455\SP\RHF\Aug-CC-pVDZ\C5H10F1N1O2\OHZDE\09-Apr-2025\0\\#t
 hf aug-cc-pvdz iop(5/13=1,5/36=2,99/5=2) pseudo=read geom=check guess=
 (read,tcheck) scf=(maxcycle=1)\\title\\0,1\C,0,0.272587,0.436301,-0.49
 3132\C,0,1.458203,-0.458749,-0.09054\O,0,2.579185,0.223737,0.12154\O,0
 ,1.398465,-1.653247,-0.005949\C,0,-1.086187,-0.087798,0.013207\H,0,0.2
 44913,0.397666,-1.586353\N,0,0.573657,1.816886,-0.123441\H,0,2.337353,
 1.170273,0.020348\C,0,-1.140502,-0.258333,1.51749\C,0,-1.553208,-1.318
 942,-0.731103\H,0,0.283117,2.018736,0.827506\H,0,0.082568,2.466194,-0.

 Normal termination of Gaussian 16 at Wed Apr  9 00:57:21 2025.
