 Gaussian 16, Revision C.01,

 ----------------------------------------------------------------------
 #t hf aug-cc-pvdz symm=none int=(grid=ultrafine) guess=(read,tcheck) s
 table=opt
 ----------------------------------------------------------------------
 -----
 title
 -----
 Symbolic Z-matrix:
 Charge =  0 Multiplicity = 2

 SCF Done:  E(UHF) =  -1159.73715181     A.U. after   22 cycles
 Normal termination of Gaussian 16 at Wed Apr  9 01:06:34 2025.
 Gaussian 16:  ES64L-G16RevC.01  3-Jul-2019

 ----------------------------------------------------------------------
 #t hf aug-cc-pvdz iop(5/13=1,5/36=2,99/5=2) pseudo=read geom=check gue
 ss=(read,tcheck) scf=(maxcycle=1)
 ----------------------------------------------------------------------
 -----
 title
 -----
 Structure from the checkpoint file:  "BH10_169_forward_mol1.chk"
 Charge =  0 Multiplicity = 2

                         Standard orientation:
 ---------------------------------------------------------------------
 Center     Atomic      Atomic             Coordinates (Angstroms)
 Number     Number       Type             X           Y           Z
 ---------------------------------------------------------------------
      1          6           0       -3.002690    0.170699   -0.938358
      2         16           0       -2.476460   -1.179728    0.152689
      3          6           0       -0.658318   -1.109488   -0.039375
      4          6           0       -0.022428    0.090817    0.601391
      5          6           0       -0.203347    0.254072    2.087262
      6          6           0        0.038983    1.303312   -0.274605
      7          8           0        0.044415    1.207826   -1.491659
      8         16           0        2.827270   -0.622963    0.435593
      9          6           0        2.812408   -0.799568   -1.374204
     10          1           0       -2.779138    1.148886   -0.515535
     11          1           0       -2.531554    0.082480   -1.915536
     12          1           0       -4.082305    0.072391   -1.046559
     13          1           0        0.572515    0.885441    2.526836
     14          1           0       -0.151214   -0.716818    2.581170
     15          1           0       -1.181664    0.683494    2.320587
     16          1           0       -0.299403   -2.021959    0.438643
     17          1           0       -0.414375   -1.147854   -1.099168
     18          1           0        3.850174   -0.777107   -1.706560
     19          1           0        2.364612   -1.744561   -1.676630
     20          1           0        2.276799    0.029355   -1.834057
     21          1           0        1.351817   -0.261947    0.541189
     22          7           0        0.113107    2.509987    0.346167
     23          1           0        0.274096    3.319060   -0.231675
     24          1           0        0.201959    2.600610    1.342213
 ---------------------------------------------------------------------

 SCF Done:  E(UHF) =  -1161.95072452     A.U. after    2 cycles

 The electronic state is 2-A.
 Alpha  occ. eigenvalues --  -75.68325 -75.67580 -21.03380 -15.78912 -13.14149
 Alpha  occ. eigenvalues --  -13.12460 -13.10047 -13.09501 -13.04271 -13.02021
 Alpha  occ. eigenvalues --  -11.54801 -11.46874 -11.42486 -11.40348 -11.39174
 Alpha  occ. eigenvalues --  -11.38827  -8.01997  -8.01632  -1.72389  -1.37061
 Alpha  occ. eigenvalues --   -1.28536  -1.18413  -1.16124  -1.03305  -0.96821
 Alpha  occ. eigenvalues --   -0.92759  -0.88381  -0.77598  -0.73110  -0.69060
 Alpha  occ. eigenvalues --   -0.65940  -0.59201  -0.59027  -0.58288  -0.58170
 Alpha  occ. eigenvalues --   -0.57850  -0.56216  -0.54466  -0.51496  -0.50795
 Alpha  occ. eigenvalues --   -0.47470  -0.44219  -0.40774  -0.36601  -0.34480
 Alpha  occ. eigenvalues --   -0.30412  -0.23765  -0.23537  -0.20967
 Alpha virt. eigenvalues --    0.03157   0.03693   0.04080   0.04787   0.05517
 Alpha virt. eigenvalues --    0.05607   0.05831   0.06430   0.06778   0.08304
 Alpha virt. eigenvalues --    0.08880   0.09101   0.09630   0.09834   0.10382

  Beta  occ. eigenvalues --  -75.67763 -75.67500 -21.02933 -15.78915 -13.12484
  Beta  occ. eigenvalues --  -13.10744 -13.09653 -13.09036 -13.04227 -13.01652
  Beta  occ. eigenvalues --  -11.54786 -11.45985 -11.42562 -11.40100 -11.39178
  Beta  occ. eigenvalues --  -11.38874  -8.01559  -8.01354  -1.71636  -1.36442
  Beta  occ. eigenvalues --   -1.27041  -1.16708  -1.14081  -1.03316  -0.95401
  Beta  occ. eigenvalues --   -0.90581  -0.88085  -0.76579  -0.72319  -0.65725
  Beta  occ. eigenvalues --   -0.64704  -0.59055  -0.58657  -0.58168  -0.57791
  Beta  occ. eigenvalues --   -0.57526  -0.56076  -0.53822  -0.50981  -0.49970
  Beta  occ. eigenvalues --   -0.47106  -0.44167  -0.39859  -0.36291  -0.32877
  Beta  occ. eigenvalues --   -0.29747  -0.22997  -0.22171
  Beta virt. eigenvalues --    0.03136   0.03659   0.04062   0.04777   0.04916
  Beta virt. eigenvalues --    0.05609   0.05763   0.06013   0.06766   0.07830
  Beta virt. eigenvalues --    0.08340   0.08962   0.09290   0.09665   0.10140

 Mulliken charges and spin densities:
               1          2
     1  C   -5.249989  -0.003252
     2  S    0.818648   0.077391
     3  C   -4.979205  -0.249196
     4  C    3.219561   1.626182
     5  C   -6.029085  -0.259463
     6  C    5.969029  -0.375556
     7  O   -3.705299   0.141503
     8  S   -0.348131   0.610240
     9  C   -5.127969  -0.068079
    10  H    1.543969   0.008532
    11  H    1.544894  -0.002253
    12  H    1.295772   0.000106
    13  H    1.083671   0.013708
    14  H    1.067744   0.001244
    15  H    1.304327   0.030153
    16  H    1.254284   0.009728
    17  H    1.333701   0.010970
    18  H    1.258347   0.004942
    19  H    1.565772  -0.000491
    20  H    1.477730   0.013424
    21  H    3.376754  -0.601356
    22  N   -4.387497   0.008374
    23  H    0.869098  -0.000152
    24  H    0.843876   0.003299
 Sum of Mulliken charges =   0.00000   1.00000

 Dipole moment (field-independent basis, Debye):
    X=             -0.1992    Y=              0.6807    Z=              1.8695  Tot=              1.9995
                          Isotropic Fermi Contact Couplings
        Atom                 a.u.       MegaHertz       Gauss      10(-4) cm-1
     1  C(13)             -0.00082      -0.92101      -0.32864      -0.30722
     2  S(33)              0.02826       9.70743       3.46385       3.23805
     3  C(13)             -0.02881     -32.38987     -11.55751     -10.80410
     4  C(13)              0.14420     162.10592      57.84342      54.07271
     5  C(13)             -0.02281     -25.64779      -9.15177      -8.55518
     6  C(13)             -0.02940     -33.05548     -11.79502     -11.02612
     7  O(17)              0.02651     -16.06976      -5.73409      -5.36030
     8  S(33)              0.10049      34.51417      12.31551      11.51269

 1\1\GINC-SE127\SP\UHF\Aug-CC-pVDZ\C6H14N1O1S2(2)\OHZDE\09-Apr-2025\0\\
 #t hf aug-cc-pvdz iop(5/13=1,5/36=2,99/5=2) pseudo=read geom=check gue
 ss=(read,tcheck) scf=(maxcycle=1)\\title\\0,2\C,0,-3.00269,0.170699,-0
 .938358\S,0,-2.47646,-1.179728,0.152689\C,0,-0.658318,-1.109488,-0.039
 375\C,0,-0.022428,0.090817,0.601391\C,0,-0.203347,0.254072,2.087262\C,
 0,0.038983,1.303312,-0.274605\O,0,0.044415,1.207826,-1.491659\S,0,2.82
 727,-0.622963,0.435593\C,0,2.812408,-0.799568,-1.374204\H,0,-2.779138,
 1.148886,-0.515535\H,0,-2.531554,0.08248,-1.915536\H,0,-4.082305,0.072

 Normal termination of Gaussian 16 at Wed Apr  9 01:06:54 2025.
