 Gaussian 16, Revision C.01,

 ----------------------------------------------------------------------
 #t hf aug-cc-pvdz symm=none int=(grid=ultrafine) guess=(read,tcheck) s
 table=(opt,rrhf)
 ----------------------------------------------------------------------
 -----
 title
 -----
 Symbolic Z-matrix:
 Charge =  0 Multiplicity = 1

 SCF Done:  E(RHF) =  -1035.30771551     A.U. after   16 cycles
 Normal termination of Gaussian 16 at Wed Apr  9 01:50:34 2025.
 Gaussian 16:  ES64L-G16RevC.01  3-Jul-2019

 ----------------------------------------------------------------------
 #t hf aug-cc-pvdz iop(5/13=1,5/36=2,99/5=2) pseudo=read geom=check gue
 ss=(read,tcheck) scf=(maxcycle=1)
 ----------------------------------------------------------------------
 -----
 title
 -----
 Structure from the checkpoint file:  "BH10_288_forward_mol2.chk"
 Charge =  0 Multiplicity = 1

                         Standard orientation:
 ---------------------------------------------------------------------
 Center     Atomic      Atomic             Coordinates (Angstroms)
 Number     Number       Type             X           Y           Z
 ---------------------------------------------------------------------
      1          6           0       -1.818134    3.190624   -0.333852
      2          1           0       -2.043497    3.948716    0.413211
      3          1           0       -0.998937    1.968089    1.248595
      4          6           0       -1.022616   -0.362533   -0.249253
      5          1           0        0.076810   -0.555340   -2.013337
      6          6           0        1.369029   -2.661969   -1.590669
      7          1           0        2.838868   -1.571949   -0.373255
      8          1           0        2.985954   -1.438923   -3.438046
      9          5           0       -2.160740   -1.934436    1.232731
     10          6           0       -2.782400   -2.764236    0.064969
     11          1           0       -3.568306   -3.438596    0.409398
     12          6           0       -2.369105   -2.272475    2.747159
     13          1           0       -1.794508   -1.633600    3.419889
     14          6           0       -2.772552    1.189310   -0.841477
     15          8           0       -3.590614    0.396963   -1.202322
     16          1           0        0.752646    3.459073    0.098470
     17          6           0        1.665014    1.585196    0.495077
     18          6           0        2.489723    0.013987    2.134172
     19          6           0        4.024868    1.052735    0.617292
     20          1           0        3.167099    2.414309   -0.792747
     21          1           0        4.604884   -0.360598    2.130746
     22          1           0        0.436386    0.536790    1.922314
     23          1           0       -1.426329    3.667498   -1.236708
     24          6           0       -0.871458    2.101548    0.168991
     25          7           0       -1.440596    0.949999   -0.539887
     26          6           0       -0.215905   -1.011886   -1.076312
     27          8           0        0.259684   -2.244110   -0.791518
     28          6           0        2.561409   -1.778412   -1.402749
     29          6           0        3.256258   -1.258311   -2.402266
     30          1           0        4.124231   -0.636936   -2.220582
     31          8           0       -1.383082   -0.818003    0.988234
     32          1           0       -1.999065   -3.372897   -0.399319
     33          1           0       -3.185601   -2.115435   -0.716805
     34          1           0       -2.110358   -3.317373    2.946531
     35          1           0       -3.430295   -2.177743    3.003019
     36          8           0       -3.028611    2.508799   -0.668663
     37          6           0        0.578721    2.408849   -0.166067
     38          1           0        0.692116    2.348706   -1.252651
     39          6           0        1.437541    0.711414    1.552314
     40          6           0        3.786416    0.182386    1.673806
     41          6           0        2.972683    1.741418    0.036127
     42          1           0        5.032840    1.193687    0.245094
     43          1           0        2.286589   -0.669096    2.950224
     44          1           0        1.577498   -3.677793   -1.252994
     45          1           0        1.072882   -2.703473   -2.644909
 ---------------------------------------------------------------------

 SCF Done:  E(RHF) =  -1040.08300638     A.U. after    2 cycles

 The electronic state is 1-A.
 Alpha  occ. eigenvalues --  -21.09296 -21.07594 -21.04176 -21.03376 -15.75617
 Alpha  occ. eigenvalues --  -11.56196 -11.53774 -11.53383 -11.50989 -11.47923
 Alpha  occ. eigenvalues --  -11.46704 -11.45335 -11.43934 -11.43258 -11.42417
 Alpha  occ. eigenvalues --  -11.42093 -11.41590 -11.41108 -11.38324 -11.36989
 Alpha  occ. eigenvalues --  -11.32511 -11.31167  -7.60600  -1.86744  -1.82093
 Alpha  occ. eigenvalues --   -1.77719  -1.67384  -1.44678  -1.35666  -1.20618
 Alpha  occ. eigenvalues --   -1.19542  -1.12222  -1.09973  -1.09321  -1.06725
 Alpha  occ. eigenvalues --   -1.00221  -0.99676  -0.97561  -0.89562  -0.86754
 Alpha  occ. eigenvalues --   -0.85913  -0.83469  -0.80640  -0.77668  -0.73796
 Alpha  occ. eigenvalues --   -0.71328  -0.69933  -0.67822  -0.65534  -0.64570
 Alpha  occ. eigenvalues --   -0.63286  -0.61821  -0.61602  -0.59463  -0.59180
 Alpha  occ. eigenvalues --   -0.58544  -0.58026  -0.57123  -0.56502  -0.56281
 Alpha  occ. eigenvalues --   -0.54926  -0.54758  -0.52432  -0.51854  -0.51570
 Alpha  occ. eigenvalues --   -0.50837  -0.50201  -0.49487  -0.48920  -0.46732
 Alpha  occ. eigenvalues --   -0.45781  -0.44339  -0.42540  -0.41098  -0.40257
 Alpha  occ. eigenvalues --   -0.39430  -0.36751  -0.35777  -0.33966  -0.33290
 Alpha  occ. eigenvalues --   -0.32475  -0.31624  -0.29892  -0.25851
 Alpha virt. eigenvalues --    0.03171   0.03796   0.03900   0.04261   0.04605
 Alpha virt. eigenvalues --    0.05160   0.05600   0.05743   0.05881   0.06025
 Alpha virt. eigenvalues --    0.06317   0.06658   0.06865   0.07030   0.07791

 Mulliken charges:
               1
     1  C   -1.532542
     2  H    1.460938
     3  H    1.974991
     4  C    6.878172
     5  H    2.614111
     6  C   -3.582322
     7  H    2.140624
     8  H    1.463465
     9  B   10.515009
    10  C   -6.973621
    11  H    1.317187
    12  C   -6.780672
    13  H    1.311127
    14  C    7.002964
    15  O   -3.718767
    16  H    1.299344
    17  C    6.719773
    18  C   -2.731671
    19  C   -2.401496
    20  H    1.965452
    21  H    1.701025
    22  H    2.844917
    23  H    1.527394
    24  C   -2.024957
    25  N   -3.232153
    26  C    1.533509
    27  O   -4.721099
    28  C   -0.629022
    29  C   -3.750158
    30  H    1.628265
    31  O   -8.143538
    32  H    1.248476
    33  H    0.987042
    34  H    0.920325
    35  H    0.925437
    36  O   -3.620726
    37  C   -5.607517
    38  H    1.256400
    39  C   -0.438162
    40  C   -3.718022
    41  C   -4.321251
    42  H    1.617390
    43  H    1.634366
    44  H    1.664255
    45  H    1.775739
 Sum of Mulliken charges =  -0.00000

 Dipole moment (field-independent basis, Debye):
    X=              3.6630    Y=              0.4916    Z=              0.0978  Tot=              3.6972

 Test job not archived.
 1\1\GINC-SE454\SP\RHF\Aug-CC-pVDZ\C17H22B1N1O4\OHZDE\09-Apr-2025\0\\#t
  hf aug-cc-pvdz iop(5/13=1,5/36=2,99/5=2) pseudo=read geom=check guess
 =(read,tcheck) scf=(maxcycle=1)\\title\\0,1\C,0,-1.818134,3.190624,-0.
 333852\H,0,-2.043497,3.948716,0.413211\H,0,-0.998937,1.968089,1.248595
 \C,0,-1.022616,-0.362533,-0.249253\H,0,0.07681,-0.55534,-2.013337\C,0,
 1.369029,-2.661969,-1.590669\H,0,2.838868,-1.571949,-0.373255\H,0,2.98
 5954,-1.438923,-3.438046\B,0,-2.16074,-1.934436,1.232731\C,0,-2.7824,-
 2.764236,0.064969\H,0,-3.568306,-3.438596,0.409398\C,0,-2.369105,-2.27

 Normal termination of Gaussian 16 at Wed Apr  9 01:52:44 2025.
