 Gaussian 16, Revision C.01,

 ----------------------------------------------------------------------
 #t hf aug-cc-pvdz symm=none int=(grid=ultrafine) guess=(read,tcheck) s
 table=(opt,rrhf)
 ----------------------------------------------------------------------
 -----
 title
 -----
 Symbolic Z-matrix:
 Charge =  0 Multiplicity = 1

 SCF Done:  E(RHF) =  -614.646163018     A.U. after   14 cycles
 Normal termination of Gaussian 16 at Wed Apr  9 00:55:05 2025.
 Gaussian 16:  ES64L-G16RevC.01  3-Jul-2019

 ----------------------------------------------------------------------
 #t hf aug-cc-pvdz iop(5/13=1,5/36=2,99/5=2) pseudo=read geom=check gue
 ss=(read,tcheck) scf=(maxcycle=1)
 ----------------------------------------------------------------------
 -----
 title
 -----
 Structure from the checkpoint file:  "BH10-RE_127_mol2.chk"
 Charge =  0 Multiplicity = 1

                         Standard orientation:
 ---------------------------------------------------------------------
 Center     Atomic      Atomic             Coordinates (Angstroms)
 Number     Number       Type             X           Y           Z
 ---------------------------------------------------------------------
      1         16           0        1.408561   -0.519481   -0.164514
      2          6           0       -0.300181   -0.594014    0.379620
      3          6           0       -1.266297    0.265291   -0.424372
      4          6           0       -2.693944    0.151790    0.099656
      5          1           0       -3.373899    0.775523   -0.483053
      6          1           0       -2.760173    0.473564    1.141984
      7          1           0       -3.057845   -0.877677    0.044881
      8          1           0       -0.934048    1.304778   -0.378255
      9          1           0       -1.221216   -0.033405   -1.474649
     10          1           0       -0.540850   -1.659893    0.283108
     11          1           0       -0.336140   -0.352400    1.444356
     12          9           0        1.694414    1.082534    0.191603
 ---------------------------------------------------------------------

 SCF Done:  E(RHF) =  -615.823829679     A.U. after    2 cycles

 The electronic state is 1-A.
 Alpha  occ. eigenvalues --  -75.74724 -29.26117 -13.18612 -13.16335 -13.07259
 Alpha  occ. eigenvalues --  -11.43392 -11.40270 -11.36371  -8.08737  -1.29236
 Alpha  occ. eigenvalues --   -1.15218  -0.98471  -0.86299  -0.68722  -0.63596
 Alpha  occ. eigenvalues --   -0.58911  -0.56452  -0.55463  -0.48938  -0.48278
 Alpha  occ. eigenvalues --   -0.43890  -0.38938  -0.32923  -0.27265  -0.16755
 Alpha virt. eigenvalues --    0.03442   0.04826   0.05460   0.06086   0.06498
 Alpha virt. eigenvalues --    0.07030   0.07069   0.08411   0.10964   0.12983
 Alpha virt. eigenvalues --    0.14408   0.14847   0.14990   0.15912   0.17248

 Mulliken charges:
               1
     1  S    0.817553
     2  C   -3.813942
     3  C   -2.875102
     4  C   -3.424674
     5  H    1.214362
     6  H    1.242002
     7  H    1.228250
     8  H    1.432816
     9  H    1.408259
    10  H    1.581387
    11  H    1.510699
    12  F   -0.321610
 Sum of Mulliken charges =  -0.00000

 Dipole moment (field-independent basis, Debye):
    X=              0.3554    Y=              1.9888    Z=              0.3178  Tot=              2.0451

 Test job not archived.
 1\1\GINC-SE367\SP\RHF\Aug-CC-pVDZ\C3H7F1S1\OHZDE\09-Apr-2025\0\\#t hf
 aug-cc-pvdz iop(5/13=1,5/36=2,99/5=2) pseudo=read geom=check guess=(re
 ad,tcheck) scf=(maxcycle=1)\\title\\0,1\S,0,1.408561,-0.519481,-0.1645
 14\C,0,-0.300181,-0.594014,0.37962\C,0,-1.266297,0.265291,-0.424372\C,
 0,-2.693944,0.15179,0.099656\H,0,-3.373899,0.775523,-0.483053\H,0,-2.7
 60173,0.473564,1.141984\H,0,-3.057845,-0.877677,0.044881\H,0,-0.934048
 ,1.304778,-0.378255\H,0,-1.221216,-0.033405,-1.474649\H,0,-0.54085,-1.
 659893,0.283108\H,0,-0.33614,-0.3524,1.444356\F,0,1.694414,1.082534,0.

 Normal termination of Gaussian 16 at Wed Apr  9 00:55:08 2025.
