 Gaussian 16, Revision C.01,

 ----------------------------------------------------------------------
 #t hf aug-cc-pvdz symm=none int=(grid=ultrafine) guess=(read,tcheck) s
 table=opt
 ----------------------------------------------------------------------
 -----
 title
 -----
 Symbolic Z-matrix:
 Charge =  0 Multiplicity = 2

 SCF Done:  E(UHF) =  -1698.75750868     A.U. after   30 cycles
 Normal termination of Gaussian 16 at Wed Apr  9 02:41:13 2025.
 Gaussian 16:  ES64L-G16RevC.01  3-Jul-2019

 ----------------------------------------------------------------------
 #t hf aug-cc-pvdz iop(5/13=1,5/36=2,99/5=2) pseudo=read geom=check gue
 ss=(read,tcheck) scf=(maxcycle=1)
 ----------------------------------------------------------------------
 -----
 title
 -----
 Structure from the checkpoint file:  "BH10_223_forward_mol1.chk"
 Charge =  0 Multiplicity = 2

                         Standard orientation:
 ---------------------------------------------------------------------
 Center     Atomic      Atomic             Coordinates (Angstroms)
 Number     Number       Type             X           Y           Z
 ---------------------------------------------------------------------
      1          8           0        1.138493   -0.526179   -0.526241
      2          6           0       -0.172127    0.080708   -0.507390
      3          6           0        0.038458    1.559178   -0.112569
      4          6           0        1.539989    1.757178   -0.339668
      5          6           0        2.078874    0.374950    0.039351
      6          6           0       -1.038508   -0.710009    0.428945
      7          1           0       -0.553994    0.018685   -1.530396
      8          1           0       -0.769565   -0.613053    1.476998
      9          1           0       -1.196941   -1.739294    0.114120
     10          8           0       -0.194754    1.815266    1.254191
     11          8           0        2.086705    2.812128    0.385673
     12          7           0        3.384297    0.063416   -0.461950
     13          1           0        2.135350    0.271816    1.126472
     14          6           0        4.442513   -0.400810    0.285684
     15          6           0        3.828122    0.096311   -1.767310
     16          1           0        1.737417    1.937327   -1.399120
     17          1           0       -0.566245    2.226852   -0.728538
     18          1           0       -1.125641    2.079975    1.350366
     19          1           0        1.572337    2.878131    1.202746
     20          8           0       -2.828087    2.339686    0.761155
     21          6           0       -3.601681    1.594883    0.199016
     22          8           0       -4.424018    2.067751   -0.727755
     23          6           0       -3.597446    0.128393    0.497605
     24          6           0       -4.290394   -0.869343   -0.413131
     25          1           0       -2.322785   -0.199365    0.424386
     26          1           0       -3.772587   -0.043431    1.558458
     27          6           0       -5.798880   -0.763247   -0.371261
     28          1           0       -3.977494   -1.877552   -0.137326
     29          1           0       -3.991414   -0.707027   -1.453118
     30         16           0       -6.637113   -2.164956    0.253089
     31          6           0       -8.345675   -1.580950    0.144498
     32          1           0       -8.477057   -0.692868    0.757946
     33          1           0       -8.973003   -2.388767    0.516316
     34          1           0       -8.599104   -1.356331   -0.888704
     35          8           0       -6.379376    0.240016   -0.739094
     36          7           0        5.061387   -0.289547   -1.906651
     37          6           0        5.467911   -0.604794   -0.624274
     38          6           0        6.678939   -1.075819   -0.097370
     39          7           0        6.762606   -1.296052    1.216895
     40          6           0        5.687910   -1.059587    1.975932
     41          7           0        4.497771   -0.614465    1.598930
     42          7           0        7.754100   -1.318677   -0.874349
     43          1           0        7.722408   -1.111769   -1.857473
     44          1           0        8.612014   -1.611468   -0.439824
     45          1           0        5.812558   -1.258294    3.035264
     46          1           0        3.181224    0.405362   -2.573578
     47          1           0       -5.174525    1.456051   -0.906312
 ---------------------------------------------------------------------

 SCF Done:  E(UHF) =  -1704.78035467     A.U. after    2 cycles

 The electronic state is 2-A.
 Alpha  occ. eigenvalues --  -75.73723 -21.11943 -21.10199 -21.06589 -21.06410
 Alpha  occ. eigenvalues --  -21.05904 -21.05730 -15.77641 -15.76932 -15.72802
 Alpha  occ. eigenvalues --  -15.71755 -15.70952 -13.19715 -13.15809 -13.07067
 Alpha  occ. eigenvalues --  -11.56336 -11.55730 -11.55263 -11.52617 -11.52132
 Alpha  occ. eigenvalues --  -11.49914 -11.49069 -11.48088 -11.45990 -11.44800
 Alpha  occ. eigenvalues --  -11.44173 -11.43456 -11.43063 -11.40627 -11.38574
 Alpha  occ. eigenvalues --   -8.08166  -1.87691  -1.82164  -1.81620  -1.73298
 Alpha  occ. eigenvalues --   -1.69330  -1.66856  -1.60725  -1.59558  -1.46604
 Alpha  occ. eigenvalues --   -1.37556  -1.30888  -1.29052  -1.24788  -1.22782
 Alpha  occ. eigenvalues --   -1.17160  -1.12473  -1.09955  -1.06516  -1.01328
 Alpha  occ. eigenvalues --   -0.99040  -0.92246  -0.89474  -0.88743  -0.83658
 Alpha  occ. eigenvalues --   -0.82776  -0.80254  -0.78913  -0.76261  -0.75879
 Alpha  occ. eigenvalues --   -0.73249  -0.72151  -0.69851  -0.68936  -0.67938
 Alpha  occ. eigenvalues --   -0.66395  -0.65963  -0.65142  -0.64556  -0.63846
 Alpha  occ. eigenvalues --   -0.62512  -0.60667  -0.60251  -0.59966  -0.58783
 Alpha  occ. eigenvalues --   -0.57828  -0.57513  -0.56039  -0.55520  -0.55151
 Alpha  occ. eigenvalues --   -0.54512  -0.54122  -0.52673  -0.51520  -0.50417
 Alpha  occ. eigenvalues --   -0.49462  -0.48682  -0.47605  -0.46012  -0.44057
 Alpha  occ. eigenvalues --   -0.43746  -0.43375  -0.41749  -0.38888  -0.38131
 Alpha  occ. eigenvalues --   -0.37550  -0.36144  -0.34482  -0.33704  -0.33068
 Alpha  occ. eigenvalues --   -0.32855  -0.32146  -0.30366  -0.28910  -0.28721
 Alpha virt. eigenvalues --   -0.27296  -0.26766   0.01631   0.02889   0.03268
 Alpha virt. eigenvalues --    0.03559   0.04686   0.04887   0.05109   0.05573
 Alpha virt. eigenvalues --    0.05822   0.06584   0.06787   0.07129   0.07266

  Beta  occ. eigenvalues --  -75.73720 -21.11914 -21.10166 -21.06589 -21.06412
  Beta  occ. eigenvalues --  -21.05691 -21.05489 -15.77631 -15.76932 -15.72805
  Beta  occ. eigenvalues --  -15.71753 -15.70950 -13.19701 -13.15805 -13.07071
  Beta  occ. eigenvalues --  -11.56287 -11.55741 -11.55270 -11.52600 -11.52125
  Beta  occ. eigenvalues --  -11.49893 -11.48439 -11.47744 -11.45380 -11.44795
  Beta  occ. eigenvalues --  -11.43560 -11.43410 -11.43055 -11.39923 -11.38568
  Beta  occ. eigenvalues --   -8.08163  -1.87595  -1.82007  -1.81393  -1.73158
  Beta  occ. eigenvalues --   -1.69313  -1.66543  -1.60700  -1.59521  -1.46593
  Beta  occ. eigenvalues --   -1.37552  -1.30795  -1.28419  -1.24733  -1.21430
  Beta  occ. eigenvalues --   -1.15660  -1.11634  -1.09749  -1.05208  -0.99629
  Beta  occ. eigenvalues --   -0.97857  -0.92244  -0.89175  -0.88488  -0.83080
  Beta  occ. eigenvalues --   -0.82150  -0.80183  -0.78719  -0.76148  -0.75623
  Beta  occ. eigenvalues --   -0.72666  -0.72030  -0.69459  -0.67850  -0.66992
  Beta  occ. eigenvalues --   -0.66231  -0.65556  -0.64805  -0.64278  -0.62863
  Beta  occ. eigenvalues --   -0.62009  -0.60552  -0.59966  -0.59659  -0.58429
  Beta  occ. eigenvalues --   -0.57500  -0.57095  -0.55452  -0.55146  -0.54845
  Beta  occ. eigenvalues --   -0.54443  -0.52865  -0.52133  -0.51419  -0.49831
  Beta  occ. eigenvalues --   -0.49221  -0.48356  -0.47597  -0.45768  -0.43958
  Beta  occ. eigenvalues --   -0.43539  -0.43226  -0.41647  -0.38700  -0.38097
  Beta  occ. eigenvalues --   -0.37389  -0.34546  -0.33749  -0.33594  -0.32837
  Beta  occ. eigenvalues --   -0.32021  -0.31525  -0.30045  -0.28656
  Beta virt. eigenvalues --   -0.28465  -0.27059   0.01602   0.02755   0.03273
  Beta virt. eigenvalues --    0.03574   0.04690   0.04709   0.05049   0.05550
  Beta virt. eigenvalues --    0.05596   0.06402   0.06615   0.07120   0.07161

 Mulliken charges and spin densities:
               1          2
     1  O   -3.672148   0.020508
     2  C    0.281791  -0.181498
     3  C    0.829070   0.046179
     4  C    0.518415  -0.016836
     5  C    1.699211  -0.029841
     6  C   -4.630522   1.390607
     7  H    2.172527   0.013420
     8  H    1.082346  -0.012545
     9  H    1.069172  -0.028557
    10  O   -3.935248   0.042267
    11  O   -3.055084   0.321834
    12  N   -4.027685   0.019599
    13  H    2.430853  -0.003607
    14  C    4.880434   0.020147
    15  C    0.644279   0.022500
    16  H    1.960161   0.006507
    17  H    2.076722   0.001500
    18  H    1.322066  -0.004741
    19  H    0.698095   0.007040
    20  O   -3.409505   0.046302
    21  C    4.824928  -0.311825
    22  O   -3.637037  -0.012495
    23  C   -3.153779   1.078080
    24  C   -3.190378  -0.219895
    25  H    6.101722  -1.165763
    26  H    1.140141  -0.041501
    27  C    0.508291  -0.014561
    28  H    1.198338   0.008419
    29  H    1.146905   0.012289
    30  S    1.758055  -0.008725
    31  C   -4.701455  -0.007495
    32  H    0.271868   0.001660
    33  H    1.258768  -0.001278
    34  H    1.391519  -0.000502
    35  O   -2.259815  -0.067035
    36  N   -4.315747   0.003822
    37  C   -1.971506   0.048680
    38  C    6.271159  -0.001571
    39  N   -4.822492   0.003317
    40  C    1.001811   0.005309
    41  N   -3.402358  -0.001486
    42  N   -2.744462   0.019257
    43  H    1.275352   0.000188
    44  H    1.407450   0.000039
    45  H    1.949549   0.000034
    46  H    2.022972  -0.002599
    47  H    1.735250  -0.005149
 Sum of Mulliken charges =  -0.00000   1.00000

 Dipole moment (field-independent basis, Debye):
    X=             60.3634    Y=             15.2813    Z=              0.4017  Tot=             62.2689
                          Isotropic Fermi Contact Couplings
        Atom                 a.u.       MegaHertz       Gauss      10(-4) cm-1
     1  O(17)              0.03524     -21.36270      -7.62274      -7.12583
     2  C(13)             -0.01689     -18.99175      -6.77673      -6.33497
     3  C(13)              0.00178       2.00143       0.71416       0.66761
     4  C(13)              0.00003       0.03720       0.01327       0.01241
     5  C(13)              0.00965      10.84451       3.86959       3.61734
     6  C(13)              0.17338     194.91772      69.55149      65.01755
     7  H(1)               0.00072       3.22853       1.15202       1.07692
     8  H(1)              -0.00973     -43.49196     -15.51901     -14.50736

 Normal termination of Gaussian 16 at Wed Apr  9 02:43:55 2025.
