 Gaussian 16, Revision C.01,

 ----------------------------------------------------------------------
 #t hf aug-cc-pvdz symm=none int=(grid=ultrafine) guess=(read,tcheck) s
 table=opt
 ----------------------------------------------------------------------
 -----
 title
 -----
 Symbolic Z-matrix:
 Charge =  0 Multiplicity = 2

 SCF Done:  E(UHF) =  -780.885723561     A.U. after   23 cycles
 Normal termination of Gaussian 16 at Wed Apr  9 01:00:27 2025.
 Gaussian 16:  ES64L-G16RevC.01  3-Jul-2019

 ----------------------------------------------------------------------
 #t hf aug-cc-pvdz iop(5/13=1,5/36=2,99/5=2) pseudo=read geom=check gue
 ss=(read,tcheck) scf=(maxcycle=1)
 ----------------------------------------------------------------------
 -----
 title
 -----
 Structure from the checkpoint file:  "BH10_158_forward_mol2.chk"
 Charge =  0 Multiplicity = 2

                         Standard orientation:
 ---------------------------------------------------------------------
 Center     Atomic      Atomic             Coordinates (Angstroms)
 Number     Number       Type             X           Y           Z
 ---------------------------------------------------------------------
      1          6           0        0.179417    1.279402   -0.493731
      2          1           0        0.401427    0.663040   -1.367983
      3          6           0        2.058703    0.093792    0.810005
      4          1           0        2.902500    0.271567    1.484325
      5          1           0       -0.116435    2.266777   -0.856255
      6          1           0        1.356090   -0.538695    1.356637
      7          6           0        1.414235    1.413751    0.393782
      8          1           0        1.153532    1.969293    1.302613
      9          1           0        2.156590    2.016674   -0.134563
     10          6           0       -1.022592    0.690822    0.200661
     11          6           0       -3.008340   -0.276436   -0.151444
     12          6           0       -2.041918   -1.380321    0.278576
     13          1           0       -3.582581    0.108107    0.700277
     14          1           0       -3.690932   -0.570359   -0.946250
     15          1           0       -2.365744   -1.898979    1.183102
     16          1           0       -1.871991   -2.110063   -0.516003
     17         16           0        2.696937   -0.917489   -0.537011
     18          8           0       -2.139174    0.724106   -0.649247
     19          8           0       -0.825128   -0.681337    0.527702
     20          1           0       -1.256075    1.234259    1.131546
 ---------------------------------------------------------------------

 SCF Done:  E(UHF) =  -782.841408932     A.U. after    2 cycles

 The electronic state is 2-A.
 Alpha  occ. eigenvalues --  -75.69115 -21.05489 -21.04610 -13.11465 -13.05510
 Alpha  occ. eigenvalues --  -13.03504 -11.49665 -11.46887 -11.43328 -11.41079
 Alpha  occ. eigenvalues --  -11.39621 -11.36473  -8.02737  -1.86639  -1.66740
 Alpha  occ. eigenvalues --   -1.26412  -1.15295  -1.08507  -0.97533  -0.88299
 Alpha  occ. eigenvalues --   -0.86344  -0.81837  -0.69705  -0.69114  -0.63877
 Alpha  occ. eigenvalues --   -0.63403  -0.60879  -0.56664  -0.55073  -0.52740
 Alpha  occ. eigenvalues --   -0.49919  -0.46352  -0.44146  -0.42195  -0.39153
 Alpha  occ. eigenvalues --   -0.37380  -0.31380  -0.30696  -0.27753  -0.23310
 Alpha virt. eigenvalues --    0.03716   0.04299   0.04688   0.05028   0.05279
 Alpha virt. eigenvalues --    0.05964   0.06454   0.06657   0.07303   0.08314
 Alpha virt. eigenvalues --    0.08706   0.08942   0.11059   0.12600   0.13624

  Beta  occ. eigenvalues --  -75.68133 -21.05489 -21.04606 -13.10820 -13.03184
  Beta  occ. eigenvalues --  -12.99388 -11.49665 -11.46887 -11.43362 -11.41092
  Beta  occ. eigenvalues --  -11.39671 -11.36492  -8.01638  -1.86636  -1.66735
  Beta  occ. eigenvalues --   -1.25414  -1.13879  -1.06496  -0.94462  -0.88286
  Beta  occ. eigenvalues --   -0.85018  -0.80625  -0.69689  -0.69058  -0.63702
  Beta  occ. eigenvalues --   -0.62816  -0.60705  -0.56601  -0.54429  -0.52659
  Beta  occ. eigenvalues --   -0.49740  -0.46297  -0.44010  -0.42143  -0.38428
  Beta  occ. eigenvalues --   -0.37320  -0.31365  -0.30347  -0.21759
  Beta virt. eigenvalues --    0.03675   0.04085   0.04685   0.04759   0.05263
  Beta virt. eigenvalues --    0.05953   0.06284   0.06558   0.06706   0.07383
  Beta virt. eigenvalues --    0.08464   0.08780   0.09565   0.11146   0.12626

 Mulliken charges and spin densities:
               1          2
     1  C   -2.400516  -0.010385
     2  H    1.441583  -0.009577
     3  C   -4.227711  -0.127361
     4  H    1.361833   0.012384
     5  H    1.381052  -0.000668
     6  H    1.829354   0.004321
     7  C   -2.260037  -0.017495
     8  H    1.373934   0.004597
     9  H    1.278663   0.002285
    10  C    2.405120  -0.008320
    11  C   -2.422386  -0.008046
    12  C   -1.418663   0.010897
    13  H    1.428560   0.000110
    14  H    1.339954  -0.000657
    15  H    1.413834   0.000844
    16  H    1.474251  -0.001106
    17  S    0.516510   1.161074
    18  O   -3.307990  -0.000225
    19  O   -3.074428  -0.010096
    20  H    1.867082  -0.002573
 Sum of Mulliken charges =  -0.00000   1.00000

 Dipole moment (field-independent basis, Debye):
    X=             -1.0470    Y=             -0.3590    Z=              0.1202  Tot=              1.1133
                          Isotropic Fermi Contact Couplings
        Atom                 a.u.       MegaHertz       Gauss      10(-4) cm-1
     1  C(13)             -0.00046      -0.51311      -0.18309      -0.17115
     2  H(1)               0.00019       0.84545       0.30168       0.28201
     3  C(13)             -0.01637     -18.39870      -6.56512      -6.13715
     4  H(1)               0.01104      49.32867      17.60170      16.45427
     5  H(1)              -0.00002      -0.09165      -0.03270      -0.03057
     6  H(1)               0.00979      43.78097      15.62214      14.60376
     7  C(13)             -0.00077      -0.86883      -0.31002      -0.28981
     8  H(1)              -0.00041      -1.83123      -0.65343      -0.61083

 Normal termination of Gaussian 16 at Wed Apr  9 01:00:39 2025.
