 Gaussian 16, Revision C.01,

 ----------------------------------------------------------------------
 #t hf aug-cc-pvdz symm=none int=(grid=ultrafine) guess=(read,tcheck) s
 table=(opt,rrhf)
 ----------------------------------------------------------------------
 -----
 title
 -----
 Symbolic Z-matrix:
 Charge =  0 Multiplicity = 1

 SCF Done:  E(RHF) =  -722.655610468     A.U. after   14 cycles
 Normal termination of Gaussian 16 at Wed Apr  9 01:01:08 2025.
 Gaussian 16:  ES64L-G16RevC.01  3-Jul-2019

 ----------------------------------------------------------------------
 #t hf aug-cc-pvdz iop(5/13=1,5/36=2,99/5=2) pseudo=read geom=check gue
 ss=(read,tcheck) scf=(maxcycle=1)
 ----------------------------------------------------------------------
 -----
 title
 -----
 Structure from the checkpoint file:  "BH10_169_forward_mol2.chk"
 Charge =  0 Multiplicity = 1

                         Standard orientation:
 ---------------------------------------------------------------------
 Center     Atomic      Atomic             Coordinates (Angstroms)
 Number     Number       Type             X           Y           Z
 ---------------------------------------------------------------------
      1          6           0       -2.183175    0.812360    0.706271
      2         16           0       -1.870532   -0.562660   -0.436564
      3          6           0       -0.322553   -1.246710    0.236400
      4          6           0        0.962646   -0.671086   -0.364408
      5          6           0        2.184495   -1.425042    0.158479
      6          6           0        1.088224    0.803485   -0.006490
      7          8           0        1.299116    1.170446    1.132832
      8          1           0       -2.258556    0.447569    1.730117
      9          1           0       -1.413781    1.578806    0.647478
     10          1           0       -3.140528    1.243333    0.415257
     11          1           0        2.102608   -2.489773   -0.069253
     12          1           0        2.268661   -1.300652    1.238622
     13          1           0        3.103047   -1.048997   -0.295939
     14          1           0       -0.321515   -1.113147    1.319769
     15          1           0       -0.359481   -2.318272    0.035460
     16          1           0        0.907489   -0.776877   -1.451367
     17          7           0        0.958263    1.677291   -1.038981
     18          1           0        0.959586    2.662756   -0.826635
     19          1           0        0.602389    1.375172   -1.929794
 ---------------------------------------------------------------------

 SCF Done:  E(RHF) =  -724.429907603     A.U. after    2 cycles

 The electronic state is 1-A.
 Alpha  occ. eigenvalues --  -75.67281 -21.02201 -15.77989 -13.12950 -13.09034
 Alpha  occ. eigenvalues --  -13.03039 -11.52164 -11.45115 -11.41154 -11.39016
 Alpha  occ. eigenvalues --  -11.37412  -8.01377  -1.70804  -1.35616  -1.26874
 Alpha  occ. eigenvalues --   -1.15980  -1.01965  -0.93917  -0.87839  -0.77532
 Alpha  occ. eigenvalues --   -0.71121  -0.68268  -0.61364  -0.60104  -0.58149
 Alpha  occ. eigenvalues --   -0.56541  -0.55455  -0.53643  -0.49778  -0.47710
 Alpha  occ. eigenvalues --   -0.46336  -0.42270  -0.35838  -0.32742  -0.28568
 Alpha  occ. eigenvalues --   -0.22138
 Alpha virt. eigenvalues --    0.03644   0.04075   0.04697   0.05404   0.05528
 Alpha virt. eigenvalues --    0.05923   0.06745   0.06917   0.07793   0.08937
 Alpha virt. eigenvalues --    0.09147   0.10273   0.11686   0.12599   0.13132

 Mulliken charges:
               1
     1  C   -4.952191
     2  S    0.859401
     3  C   -4.154963
     4  C   -1.934885
     5  C   -3.930579
     6  C    7.101335
     7  O   -3.622918
     8  H    1.379291
     9  H    1.469648
    10  H    1.403794
    11  H    1.156057
    12  H    1.366586
    13  H    1.224965
    14  H    1.564190
    15  H    1.482151
    16  H    2.007203
    17  N   -3.866038
    18  H    0.772431
    19  H    0.674522
 Sum of Mulliken charges =  -0.00000

 Dipole moment (field-independent basis, Debye):
    X=             -0.9609    Y=             -0.1117    Z=             -2.1184  Tot=              2.3288

 Test job not archived.
 1\1\GINC-SE149\SP\RHF\Aug-CC-pVDZ\C5H11N1O1S1\OHZDE\09-Apr-2025\0\\#t
 hf aug-cc-pvdz iop(5/13=1,5/36=2,99/5=2) pseudo=read geom=check guess=
 (read,tcheck) scf=(maxcycle=1)\\title\\0,1\C,0,-2.183175,0.81236,0.706
 271\S,0,-1.870532,-0.56266,-0.436564\C,0,-0.322553,-1.24671,0.2364\C,0
 ,0.962646,-0.671086,-0.364408\C,0,2.184495,-1.425042,0.158479\C,0,1.08
 8224,0.803485,-0.00649\O,0,1.299116,1.170446,1.132832\H,0,-2.258556,0.
 447569,1.730117\H,0,-1.413781,1.578806,0.647478\H,0,-3.140528,1.243333
 ,0.415257\H,0,2.102608,-2.489773,-0.069253\H,0,2.268661,-1.300652,1.23

 Normal termination of Gaussian 16 at Wed Apr  9 01:01:17 2025.
