 Gaussian 16, Revision C.01,

 ----------------------------------------------------------------------
 #t hf aug-cc-pvdz symm=none int=(grid=ultrafine) guess=(read,tcheck) s
 table=(opt,rrhf)
 ----------------------------------------------------------------------
 -----
 title
 -----
 Symbolic Z-matrix:
 Charge =  0 Multiplicity = 1

 SCF Done:  E(RHF) =  -631.981292709     A.U. after   14 cycles
 Normal termination of Gaussian 16 at Wed Apr  9 01:00:25 2025.
 Gaussian 16:  ES64L-G16RevC.01  3-Jul-2019

 ----------------------------------------------------------------------
 #t hf aug-cc-pvdz iop(5/13=1,5/36=2,99/5=2) pseudo=read geom=check gue
 ss=(read,tcheck) scf=(maxcycle=1)
 ----------------------------------------------------------------------
 -----
 title
 -----
 Structure from the checkpoint file:  "BH10-RE_121_mol3.chk"
 Charge =  0 Multiplicity = 1

                         Standard orientation:
 ---------------------------------------------------------------------
 Center     Atomic      Atomic             Coordinates (Angstroms)
 Number     Number       Type             X           Y           Z
 ---------------------------------------------------------------------
      1          6           0        2.282669    0.501780   -0.067957
      2          6           0        2.666425   -0.968414   -0.282045
      3          8           0        3.432548   -1.466427    0.683492
      4          8           0        2.325169   -1.597322   -1.243890
      5          6           0        0.874373    0.768781   -0.590944
      6          1           0        2.968706    1.071376   -0.701446
      7          7           0        2.540900    0.891493    1.314488
      8          1           0        3.531195   -0.746696    1.343051
      9          6           0       -0.243060    0.102129    0.180035
     10          1           0        1.736331    0.735067    1.911133
     11          1           0        2.787925    1.869714    1.385072
     12          1           0       -0.040593   -0.973007    0.208786
     13          6           0       -1.615731    0.348597   -0.437287
     14          1           0       -0.244161    0.463894    1.214035
     15          1           0       -1.617632   -0.033904   -1.463830
     16          1           0       -1.789997    1.426165   -0.504826
     17          6           0       -2.738627   -0.305664    0.357902
     18          1           0       -2.556879   -1.385342    0.425945
     19          6           0       -4.111772   -0.069987   -0.252149
     20          1           0       -2.746878    0.072510    1.384642
     21          1           0       -4.106934   -0.421398   -1.295097
     22          1           0       -4.310463    1.005204   -0.282935
     23          7           0       -5.150324   -0.692918    0.563484
     24          1           0       -5.056771   -1.702129    0.565564
     25          1           0       -6.076425   -0.472901    0.218895
     26          9           0        0.689686    2.162849   -0.541635
     27          1           0        0.833974    0.482450   -1.642222
 ---------------------------------------------------------------------

 SCF Done:  E(RHF) =  -634.802315617     A.U. after    2 cycles

 The electronic state is 1-A.
 Alpha  occ. eigenvalues --  -29.25502 -21.11380 -21.04844 -15.77267 -15.72757
 Alpha  occ. eigenvalues --  -11.53640 -11.51595 -11.46851 -11.43457 -11.42418
 Alpha  occ. eigenvalues --  -11.39554 -11.35822  -1.82949  -1.66002  -1.40704
 Alpha  occ. eigenvalues --   -1.34665  -1.26396  -1.15585  -1.04760  -0.98184
 Alpha  occ. eigenvalues --   -0.89869  -0.84163  -0.78278  -0.74907  -0.72398
 Alpha  occ. eigenvalues --   -0.69663  -0.67073  -0.63823  -0.63405  -0.61484
 Alpha  occ. eigenvalues --   -0.58996  -0.57787  -0.56287  -0.52212  -0.51261
 Alpha  occ. eigenvalues --   -0.50595  -0.50000  -0.47388  -0.46879  -0.46115
 Alpha  occ. eigenvalues --   -0.42766  -0.39911  -0.35926  -0.34932  -0.33380
 Alpha  occ. eigenvalues --   -0.30741  -0.25594  -0.24272
 Alpha virt. eigenvalues --    0.03846   0.04233   0.04555   0.05190   0.05472
 Alpha virt. eigenvalues --    0.05751   0.06004   0.06371   0.07106   0.07704
 Alpha virt. eigenvalues --    0.08196   0.09193   0.09810   0.10196   0.10562

 Mulliken charges:
               1
     1  C   -2.828418
     2  C    6.627475
     3  O   -3.244600
     4  O   -3.415721
     5  C    1.142795
     6  H    1.824805
     7  N   -2.668567
     8  H    1.086865
     9  C   -3.189629
    10  H    0.652134
    11  H    0.525435
    12  H    1.641065
    13  C   -2.870379
    14  H    1.507889
    15  H    1.437716
    16  H    1.554185
    17  C   -3.136281
    18  H    1.509058
    19  C   -3.030739
    20  H    1.512790
    21  H    1.461870
    22  H    1.472396
    23  N   -2.555566
    24  H    0.626273
    25  H    0.592249
    26  F   -0.080469
    27  H    1.845369
 Sum of Mulliken charges =  -0.00000

 Dipole moment (field-independent basis, Debye):
    X=             -1.3091    Y=              3.3690    Z=              0.6961  Tot=              3.6808

 Test job not archived.
 1\1\GINC-SE179\SP\RHF\Aug-CC-pVDZ\C7H15F1N2O2\OHZDE\09-Apr-2025\0\\#t
 hf aug-cc-pvdz iop(5/13=1,5/36=2,99/5=2) pseudo=read geom=check guess=
 (read,tcheck) scf=(maxcycle=1)\\title\\0,1\C,0,2.282669,0.50178,-0.067
 957\C,0,2.666425,-0.968414,-0.282045\O,0,3.432548,-1.466427,0.683492\O
 ,0,2.325169,-1.597322,-1.24389\C,0,0.874373,0.768781,-0.590944\H,0,2.9
 68706,1.071376,-0.701446\N,0,2.5409,0.891493,1.314488\H,0,3.531195,-0.
 746696,1.343051\C,0,-0.24306,0.102129,0.180035\H,0,1.736331,0.735067,1
 .911133\H,0,2.787925,1.869714,1.385072\H,0,-0.040593,-0.973007,0.20878

 Normal termination of Gaussian 16 at Wed Apr  9 01:00:46 2025.
