 Gaussian 16, Revision C.01,

 ----------------------------------------------------------------------
 #t hf aug-cc-pvdz symm=none int=(grid=ultrafine) guess=(read,tcheck) s
 table=opt
 ----------------------------------------------------------------------
 -----
 title
 -----
 Symbolic Z-matrix:
 Charge =  0 Multiplicity = 2

 SCF Done:  E(UHF) =  -741.877672761     A.U. after   22 cycles
 Normal termination of Gaussian 16 at Wed Apr  9 01:00:45 2025.
 Gaussian 16:  ES64L-G16RevC.01  3-Jul-2019

 ----------------------------------------------------------------------
 #t hf aug-cc-pvdz iop(5/13=1,5/36=2,99/5=2) pseudo=read geom=check gue
 ss=(read,tcheck) scf=(maxcycle=1)
 ----------------------------------------------------------------------
 -----
 title
 -----
 Structure from the checkpoint file:  "BH10_163_reverse_mol2.chk"
 Charge =  0 Multiplicity = 2

                         Standard orientation:
 ---------------------------------------------------------------------
 Center     Atomic      Atomic             Coordinates (Angstroms)
 Number     Number       Type             X           Y           Z
 ---------------------------------------------------------------------
      1          6           0       -1.810488   -1.335143   -0.717672
      2         16           0       -2.107723    0.330296   -0.066328
      3          6           0       -0.637162    0.532269    1.018802
      4          6           0        0.618848    0.662145    0.245453
      5          6           0        0.949667    1.950297   -0.415336
      6          6           0        1.473904   -0.501144    0.158030
      7          8           0        2.610355   -0.296823   -0.553455
      8          8           0        1.231166   -1.580537    0.662142
      9          1           0       -0.959087   -1.358377   -1.395456
     10          1           0       -1.650378   -2.043617    0.093322
     11          1           0       -2.708313   -1.613650   -1.268293
     12          1           0        0.056219    2.372724   -0.882240
     13          1           0        1.730647    1.839755   -1.163761
     14          1           0        1.297429    2.678734    0.328737
     15          1           0       -0.844170    1.447776    1.576536
     16          1           0       -0.596440   -0.308249    1.708587
     17          1           0        3.096879   -1.131495   -0.541340
 ---------------------------------------------------------------------

 SCF Done:  E(UHF) =  -743.651525225     A.U. after    2 cycles

 The electronic state is 2-A.
 Alpha  occ. eigenvalues --  -75.67662 -21.11946 -21.06224 -13.12386 -13.09238
 Alpha  occ. eigenvalues --  -13.03491 -11.53159 -11.44916 -11.41395 -11.39010
 Alpha  occ. eigenvalues --  -11.38333  -8.01690  -1.83351  -1.66170  -1.29192
 Alpha  occ. eigenvalues --   -1.16956  -1.02925  -0.96834  -0.88521  -0.74714
 Alpha  occ. eigenvalues --   -0.66788  -0.64079  -0.63039  -0.58515  -0.58314
 Alpha  occ. eigenvalues --   -0.56838  -0.55082  -0.54811  -0.51337  -0.45819
 Alpha  occ. eigenvalues --   -0.45341  -0.38573  -0.36061  -0.31240  -0.28525
 Alpha  occ. eigenvalues --   -0.22128
 Alpha virt. eigenvalues --    0.03347   0.04117   0.05185   0.05738   0.05766
 Alpha virt. eigenvalues --    0.06074   0.06776   0.07959   0.08324   0.10084
 Alpha virt. eigenvalues --    0.11074   0.11323   0.12423   0.13102   0.14128

  Beta  occ. eigenvalues --  -75.67552 -21.11979 -21.05066 -13.11845 -13.09070
  Beta  occ. eigenvalues --  -13.03425 -11.53444 -11.43936 -11.41307 -11.39021
  Beta  occ. eigenvalues --  -11.38225  -8.01565  -1.82900  -1.64430  -1.26673
  Beta  occ. eigenvalues --   -1.14879  -1.02937  -0.94839  -0.88059  -0.73028
  Beta  occ. eigenvalues --   -0.66482  -0.62576  -0.59871  -0.58283  -0.57420
  Beta  occ. eigenvalues --   -0.56478  -0.54608  -0.54099  -0.50880  -0.45146
  Beta  occ. eigenvalues --   -0.44606  -0.37028  -0.32747  -0.30079  -0.22276
  Beta virt. eigenvalues --    0.03237   0.04123   0.05164   0.05436   0.05756
  Beta virt. eigenvalues --    0.05998   0.06579   0.07603   0.07996   0.08424
  Beta virt. eigenvalues --    0.10508   0.11139   0.11423   0.12585   0.13148

 Mulliken charges and spin densities:
               1          2
     1  C   -5.081544   0.004882
     2  S    1.030452   0.079182
     3  C   -4.252545  -0.268672
     4  C    0.577624   1.767998
     5  C   -4.570233  -0.286627
     6  C    7.209525  -0.666496
     7  O   -3.529454  -0.008505
     8  O   -3.414936   0.329638
     9  H    1.634417  -0.011569
    10  H    1.453191  -0.001296
    11  H    1.328627  -0.000513
    12  H    1.406758   0.013811
    13  H    1.332680   0.004589
    14  H    1.212308   0.035576
    15  H    1.283765   0.008901
    16  H    1.324654  -0.000043
    17  H    1.054711  -0.000856
 Sum of Mulliken charges =   0.00000   1.00000

 Dipole moment (field-independent basis, Debye):
    X=             -0.3125    Y=              1.1767    Z=             -0.4752  Tot=              1.3069
                          Isotropic Fermi Contact Couplings
        Atom                 a.u.       MegaHertz       Gauss      10(-4) cm-1
     1  C(13)             -0.00107      -1.20447      -0.42979      -0.40177
     2  S(33)              0.03270      11.23210       4.00789       3.74663
     3  C(13)             -0.03809     -42.81740     -15.27831     -14.28235
     4  C(13)              0.12312     138.41528      49.39001      46.17037
     5  C(13)             -0.03035     -34.11625     -12.17353     -11.37996
     6  C(13)             -0.05487     -61.68421     -22.01046     -20.57564
     7  O(17)             -0.01197       7.25876       2.59011       2.42126
     8  O(17)              0.06792     -41.17045     -14.69064     -13.73298

 Normal termination of Gaussian 16 at Wed Apr  9 01:00:54 2025.
