 Gaussian 16, Revision C.01,

 ----------------------------------------------------------------------
 #t hf aug-cc-pvdz symm=none int=(grid=ultrafine) guess=(read,tcheck) s
 table=opt
 ----------------------------------------------------------------------
 -----
 title
 -----
 Symbolic Z-matrix:
 Charge =  0 Multiplicity = 2

 SCF Done:  E(UHF) =  -1629.45912530     A.U. after   18 cycles
 Normal termination of Gaussian 16 at Wed Apr  9 02:09:12 2025.
 Gaussian 16:  ES64L-G16RevC.01  3-Jul-2019

 ----------------------------------------------------------------------
 #t hf aug-cc-pvdz iop(5/13=1,5/36=2,99/5=2) pseudo=read geom=check gue
 ss=(read,tcheck) scf=(maxcycle=1)
 ----------------------------------------------------------------------
 -----
 title
 -----
 Structure from the checkpoint file:  "BH10-RE_291_mol1.chk"
 Charge =  0 Multiplicity = 2

                         Standard orientation:
 ---------------------------------------------------------------------
 Center     Atomic      Atomic             Coordinates (Angstroms)
 Number     Number       Type             X           Y           Z
 ---------------------------------------------------------------------
      1          6           0       -0.007058    0.321317    2.322393
      2          6           0        1.287964    0.909803    2.713077
      3         14           0        0.000633    0.018634    0.396141
      4         14           0        0.748770    1.931258   -0.746997
      5         14           0       -2.163896   -0.544764   -0.343653
      6         14           0        1.428801   -1.781488   -0.104672
      7          6           0        2.623839    2.094456   -0.644576
      8          1           0        2.960831    2.994687   -1.166755
      9          1           0        2.959088    2.161339    0.392495
     10          1           0        3.126688    1.239165   -1.101706
     11          6           0        0.266106    1.792816   -2.565616
     12          1           0        0.653173    2.647857   -3.127286
     13          1           0        0.668800    0.886394   -3.022667
     14          1           0       -0.818354    1.777481   -2.695183
     15          6           0       -0.027652    3.500656   -0.047795
     16          1           0        0.281179    4.370682   -0.634626
     17          1           0       -1.118718    3.454171   -0.069456
     18          1           0        0.279345    3.673606    0.985856
     19          6           0       -2.078783   -1.337003   -2.053429
     20          1           0       -1.525767   -2.278510   -2.035322
     21          1           0       -3.086418   -1.553481   -2.420003
     22          1           0       -1.595572   -0.680261   -2.779794
     23          6           0       -2.961062   -1.777472    0.840261
     24          1           0       -3.066583   -1.367052    1.846831
     25          1           0       -3.959621   -2.054190    0.489715
     26          1           0       -2.369874   -2.692466    0.917084
     27          6           0       -3.264053    0.982725   -0.464787
     28          1           0       -3.358577    1.492908    0.495837
     29          1           0       -2.867224    1.702777   -1.184190
     30          1           0       -4.269095    0.705109   -0.795569
     31          6           0        0.605815   -3.417638    0.348940
     32          1           0       -0.295657   -3.594255   -0.241758
     33          1           0        1.288486   -4.253129    0.169044
     34          1           0        0.321547   -3.444497    1.403855
     35          6           0        1.812763   -1.796177   -1.950965
     36          1           0        2.420100   -2.669367   -2.205875
     37          1           0        0.904003   -1.835775   -2.554856
     38          1           0        2.372471   -0.907188   -2.250247
     39          6           0        3.057578   -1.672522    0.837721
     40          1           0        3.731261   -2.472826    0.517606
     41          1           0        3.562713   -0.719880    0.666385
     42          1           0        2.905213   -1.781705    1.913800
     43          6           0       -1.196090    1.175312    2.774746
     44          1           0       -2.150359    0.711171    2.522305
     45          1           0       -1.173223    1.322691    3.857889
     46          1           0       -1.174788    2.162200    2.306938
     47          1           0       -0.101547   -0.681924    2.755452
     48          1           0        2.185355    0.310358    2.780205
     49          1           0        1.394600    1.985313    2.792710
 ---------------------------------------------------------------------

 SCF Done:  E(UHF) =  -1632.60618407     A.U. after    2 cycles

 The electronic state is 2-A.
 Alpha  occ. eigenvalues --  -76.17967 -76.17962 -76.17910 -76.16611 -11.42029
 Alpha  occ. eigenvalues --  -11.39027 -11.35590 -11.35224 -11.35123 -11.35080
 Alpha  occ. eigenvalues --  -11.34569 -11.34549 -11.34488 -11.34426 -11.34402
 Alpha  occ. eigenvalues --  -11.34317  -5.52026  -5.51993  -5.51943  -5.50690
 Alpha  occ. eigenvalues --   -2.16043  -2.16024  -2.15983  -2.15857  -2.15840
 Alpha  occ. eigenvalues --   -2.15785  -2.15723  -2.15713  -2.15521  -2.13923
 Alpha  occ. eigenvalues --   -2.12894  -2.12790  -1.20600  -1.07218  -1.06888
 Alpha  occ. eigenvalues --   -1.06825  -1.00750  -1.00552  -1.00512  -1.00389
 Alpha  occ. eigenvalues --   -1.00262  -1.00214  -0.99117  -0.83689  -0.73960
 Alpha  occ. eigenvalues --   -0.64645  -0.64522  -0.62958  -0.60552  -0.57922
 Alpha  occ. eigenvalues --   -0.57463  -0.57301  -0.56788  -0.56448  -0.56174
 Alpha  occ. eigenvalues --   -0.55888  -0.55708  -0.55562  -0.55136  -0.54393
 Alpha  occ. eigenvalues --   -0.54096  -0.54048  -0.53679  -0.53570  -0.53369
 Alpha  occ. eigenvalues --   -0.52950  -0.52690  -0.52605  -0.52098  -0.48769
 Alpha  occ. eigenvalues --   -0.46690  -0.41503  -0.39306  -0.39211  -0.38689
 Alpha  occ. eigenvalues --   -0.38565  -0.38448  -0.38312  -0.28869  -0.28242
 Alpha  occ. eigenvalues --   -0.25310
 Alpha virt. eigenvalues --    0.03579   0.04710   0.04758   0.05057   0.05205
 Alpha virt. eigenvalues --    0.05305   0.05362   0.05705   0.05713   0.05908
 Alpha virt. eigenvalues --    0.06060   0.06137   0.06369   0.06457   0.06529

  Beta  occ. eigenvalues --  -76.17968 -76.17946 -76.17913 -76.16538 -11.41679
  Beta  occ. eigenvalues --  -11.37982 -11.35533 -11.35129 -11.35080 -11.34803
  Beta  occ. eigenvalues --  -11.34555 -11.34535 -11.34473 -11.34406 -11.34374
  Beta  occ. eigenvalues --  -11.34295  -5.52022  -5.51980  -5.51941  -5.50568
  Beta  occ. eigenvalues --   -2.16030  -2.16013  -2.15954  -2.15853  -2.15840
  Beta  occ. eigenvalues --   -2.15760  -2.15714  -2.15659  -2.15256  -2.13770
  Beta  occ. eigenvalues --   -2.12842  -2.12720  -1.18673  -1.07198  -1.06883
  Beta  occ. eigenvalues --   -1.06802  -1.00736  -1.00551  -1.00472  -1.00378
  Beta  occ. eigenvalues --   -1.00255  -1.00197  -0.95464  -0.80834  -0.73424
  Beta  occ. eigenvalues --   -0.64570  -0.64439  -0.62280  -0.59875  -0.57834
  Beta  occ. eigenvalues --   -0.57313  -0.57284  -0.56507  -0.56378  -0.56143
  Beta  occ. eigenvalues --   -0.55806  -0.55694  -0.55441  -0.54972  -0.54365
  Beta  occ. eigenvalues --   -0.54066  -0.54005  -0.53660  -0.53521  -0.53337
  Beta  occ. eigenvalues --   -0.52927  -0.52654  -0.52568  -0.51880  -0.47778
  Beta  occ. eigenvalues --   -0.46239  -0.39972  -0.39286  -0.39163  -0.38566
  Beta  occ. eigenvalues --   -0.38538  -0.38315  -0.34693  -0.28217  -0.28174
  Beta virt. eigenvalues --    0.03580   0.04707   0.04756   0.04970   0.05132
  Beta virt. eigenvalues --    0.05297   0.05346   0.05694   0.05720   0.05895
  Beta virt. eigenvalues --    0.06055   0.06149   0.06361   0.06457   0.06466

 Mulliken charges and spin densities:
               1          2
     1  C   -1.875827  -0.538739
     2  C   -4.976724   1.724077
     3  Si   4.678828  -0.354767
     4  Si  10.762585   0.006667
     5  Si  10.144941   0.172785
     6  Si  10.410420   0.006974
     7  C   -6.876139   0.020003
     8  H    1.058215   0.003903
     9  H    1.195301  -0.016888
    10  H    1.136944   0.008880
    11  C   -7.005348   0.005069
    12  H    0.922627   0.000801
    13  H    1.451646   0.007546
    14  H    1.179487   0.007003
    15  C   -7.160696  -0.007088
    16  H    0.948705  -0.000065
    17  H    1.279616  -0.000159
    18  H    1.208315   0.005543
    19  C   -6.974274   0.004621
    20  H    1.199702  -0.005044
    21  H    0.892228   0.006085
    22  H    1.437742  -0.002631
    23  C   -7.062564  -0.014038
    24  H    1.124924  -0.001319
    25  H    0.967337   0.002896
    26  H    1.245145  -0.001411
    27  C   -6.890607  -0.008831
    28  H    1.239603  -0.001635
    29  H    1.144998  -0.000643
    30  H    1.062300   0.003612
    31  C   -6.971107  -0.000175
    32  H    1.153133   0.002605
    33  H    1.079543   0.000785
    34  H    1.227711   0.001284
    35  C   -6.964115  -0.000358
    36  H    0.967775   0.000591
    37  H    1.462535   0.000500
    38  H    1.175774  -0.000957
    39  C   -6.916395   0.010966
    40  H    0.993402   0.003332
    41  H    1.276346   0.008137
    42  H    1.106782   0.002899
    43  C   -5.962289   0.072401
    44  H    1.520978   0.008067
    45  H    1.218699   0.001855
    46  H    1.338291  -0.004985
    47  H    1.294496   0.014834
    48  H    1.601491  -0.083430
    49  H    1.527520  -0.071558
 Sum of Mulliken charges =   0.00000   1.00000

 Dipole moment (field-independent basis, Debye):
    X=             -0.0790    Y=             -0.1584    Z=              0.1641  Tot=              0.2414
                          Isotropic Fermi Contact Couplings
        Atom                 a.u.       MegaHertz       Gauss      10(-4) cm-1
     1  C(13)             -0.03501     -39.35799     -14.04391     -13.12841
     2  C(13)              0.12825     144.17367      51.44475      48.09116
     3  Si(29)             0.08558     -76.05295     -27.13758     -25.36853
     4  Si(29)            -0.00199       1.76509       0.62983       0.58877
     5  Si(29)             0.01977     -17.56905      -6.26907      -5.86040
     6  Si(29)            -0.00291       2.58179       0.92125       0.86119
     7  C(13)              0.00200       2.24532       0.80119       0.74896
     8  H(1)               0.00009       0.40702       0.14524       0.13577

 Normal termination of Gaussian 16 at Wed Apr  9 02:11:42 2025.
