 Gaussian 16, Revision C.01,

 ----------------------------------------------------------------------
 #t hf aug-cc-pvdz symm=none int=(grid=ultrafine) guess=(read,tcheck) s
 table=(opt,rrhf)
 ----------------------------------------------------------------------
 -----
 title
 -----
 Symbolic Z-matrix:
 Charge =  1 Multiplicity = 1

 SCF Done:  E(RHF) =  -680.275586712     A.U. after   15 cycles

 1\1\GINC-SE457\Stability\RHF\Aug-CC-pVDZ\C10H6F3\OHZDE\09-Apr-2025\0\\
 #t hf aug-cc-pvdz symm=none int=(grid=ultrafine) guess=(read,tcheck) s
 table=(opt,rrhf)\\title\\1,1\C,0,4.366697,-0.670126,0.015299\C,0,3.162
 762,0.,0.003858\C,0,4.366697,0.670126,0.015304\H,0,4.922139,-1.595785,
 0.020594\H,0,4.922139,1.595785,0.020606\C,0,1.748011,0.,-0.008684\C,0,
 1.053614,1.219304,-0.015922\C,0,1.053614,-1.219304,-0.015921\C,0,-0.32
 5026,1.215237,-0.028693\H,0,1.596158,2.156465,-0.013295\C,0,-0.325026,
 -1.215237,-0.028691\H,0,1.596158,-2.156465,-0.013294\C,0,-1.003412,0.,

 Normal termination of Gaussian 16 at Wed Apr  9 01:07:19 2025.
 Gaussian 16:  ES64L-G16RevC.01  3-Jul-2019

 ----------------------------------------------------------------------
 #t hf aug-cc-pvdz iop(5/13=1,5/36=2,99/5=2) pseudo=read geom=check gue
 ss=(read,tcheck) scf=(maxcycle=1)
 ----------------------------------------------------------------------
 -----
 title
 -----
 Structure from the checkpoint file:  "BH10_249_reverse_mol2.chk"
 Charge =  1 Multiplicity = 1

                         Standard orientation:
 ---------------------------------------------------------------------
 Center     Atomic      Atomic             Coordinates (Angstroms)
 Number     Number       Type             X           Y           Z
 ---------------------------------------------------------------------
      1          6           0        4.366697   -0.670126    0.015299
      2          6           0        3.162762    0.000000    0.003858
      3          6           0        4.366697    0.670126    0.015304
      4          1           0        4.922139   -1.595785    0.020594
      5          1           0        4.922139    1.595785    0.020606
      6          6           0        1.748011    0.000000   -0.008684
      7          6           0        1.053614    1.219304   -0.015922
      8          6           0        1.053614   -1.219304   -0.015921
      9          6           0       -0.325026    1.215237   -0.028693
     10          1           0        1.596158    2.156465   -0.013295
     11          6           0       -0.325026   -1.215237   -0.028691
     12          1           0        1.596158   -2.156465   -0.013294
     13          6           0       -1.003412    0.000000   -0.034377
     14          1           0       -0.878374    2.144611   -0.041459
     15          1           0       -0.878375   -2.144611   -0.041455
     16          6           0       -2.516644    0.000000    0.001920
     17          9           0       -2.942703   -0.000005    1.271397
     18          9           0       -3.015736    1.082030   -0.599930
     19          9           0       -3.015736   -1.082025   -0.599939
 ---------------------------------------------------------------------

 SCF Done:  E(RHF) =  -683.043124432     A.U. after    2 cycles

 The electronic state is 1-A.
 Alpha  occ. eigenvalues --  -29.41839 -29.41779 -29.41474 -11.73447 -11.73325
 Alpha  occ. eigenvalues --  -11.72159 -11.71100 -11.69461 -11.62444 -11.62166
 Alpha  occ. eigenvalues --  -11.61333 -11.58332 -11.55035  -1.61720  -1.57226
 Alpha  occ. eigenvalues --   -1.46909  -1.28705  -1.27705  -1.10367  -1.07496
 Alpha  occ. eigenvalues --   -1.04539  -1.00205  -0.99866  -0.97756  -0.92458
 Alpha  occ. eigenvalues --   -0.90411  -0.79730  -0.77046  -0.75886  -0.74616
 Alpha  occ. eigenvalues --   -0.73289  -0.67797  -0.66654  -0.65449  -0.61559
 Alpha  occ. eigenvalues --   -0.57950  -0.54340  -0.54012  -0.53070  -0.50118
 Alpha  occ. eigenvalues --   -0.46436  -0.45261  -0.41074  -0.36447  -0.35887
 Alpha  occ. eigenvalues --   -0.31879
 Alpha virt. eigenvalues --   -0.09842  -0.09407  -0.08747  -0.06128  -0.05409
 Alpha virt. eigenvalues --   -0.04814  -0.03372  -0.02654  -0.02084  -0.01461
 Alpha virt. eigenvalues --   -0.01255  -0.00772   0.00393   0.00486   0.01374

 Mulliken charges:
               1
     1  C   -2.758133
     2  C    5.127982
     3  C   -2.758133
     4  H    0.831674
     5  H    0.831674
     6  C    3.863800
     7  C   -2.931478
     8  C   -2.931476
     9  C   -2.282326
    10  H    1.792249
    11  C   -2.282360
    12  H    1.792249
    13  C   -0.632147
    14  H    1.804429
    15  H    1.804427
    16  C   -1.172329
    17  F    0.227241
    18  F    0.336331
    19  F    0.336325
 Sum of Mulliken charges =   1.00000

 Dipole moment (field-independent basis, Debye):
    X=             11.4371    Y=             -0.0000    Z=              0.1798  Tot=             11.4385

 Test job not archived.
 1\1\GINC-SE457\SP\RHF\Aug-CC-pVDZ\C10H6F3(1+)\OHZDE\09-Apr-2025\0\\#t
 hf aug-cc-pvdz iop(5/13=1,5/36=2,99/5=2) pseudo=read geom=check guess=
 (read,tcheck) scf=(maxcycle=1)\\title\\1,1\C,0,4.366697,-0.670126,0.01
 5299\C,0,3.162762,0.,0.003858\C,0,4.366697,0.670126,0.015304\H,0,4.922
 139,-1.595785,0.020594\H,0,4.922139,1.595785,0.020606\C,0,1.748011,0.,
 -0.008684\C,0,1.053614,1.219304,-0.015922\C,0,1.053614,-1.219304,-0.01
 5921\C,0,-0.325026,1.215237,-0.028693\H,0,1.596158,2.156465,-0.013295\
 C,0,-0.325026,-1.215237,-0.028691\H,0,1.596158,-2.156465,-0.013294\C,0

 Normal termination of Gaussian 16 at Wed Apr  9 01:07:33 2025.
