 Gaussian 16, Revision C.01,

 ----------------------------------------------------------------------
 #t hf aug-cc-pvdz symm=none int=(grid=ultrafine) guess=(read,tcheck) s
 table=(opt,rrhf)
 ----------------------------------------------------------------------
 -----
 title
 -----
 Symbolic Z-matrix:
 Charge =  0 Multiplicity = 1

 SCF Done:  E(RHF) =  -485.759183215     A.U. after   16 cycles
 Normal termination of Gaussian 16 at Wed Apr  9 01:00:19 2025.
 Gaussian 16:  ES64L-G16RevC.01  3-Jul-2019

 ----------------------------------------------------------------------
 #t hf aug-cc-pvdz iop(5/13=1,5/36=2,99/5=2) pseudo=read geom=check gue
 ss=(read,tcheck) scf=(maxcycle=1)
 ----------------------------------------------------------------------
 -----
 title
 -----
 Structure from the checkpoint file:  "BH10_112_forward_mol2.chk"
 Charge =  0 Multiplicity = 1

                         Standard orientation:
 ---------------------------------------------------------------------
 Center     Atomic      Atomic             Coordinates (Angstroms)
 Number     Number       Type             X           Y           Z
 ---------------------------------------------------------------------
      1          6           0        1.898213    0.008896    0.001424
      2          6           0        2.466225   -0.610714   -1.263819
      3          6           0        0.382268    0.013958   -0.000143
      4          6           0        2.463479   -0.617115    1.264734
      5          1           0        2.089958   -0.081191   -2.139554
      6          1           0        2.174433   -1.658841   -1.343225
      7          1           0        3.555663   -0.550250   -1.251559
      8          6           0       -0.323327   -1.188229   -0.002833
      9          6           0       -0.335905    1.200895   -0.001829
     10          1           0        2.171320   -1.665559    1.338400
     11          1           0        2.085581   -0.091806    2.142300
     12          1           0        3.552951   -0.556861    1.254972
     13          6           0       -1.725798    1.184854   -0.005030
     14          6           0       -2.435492   -0.008934   -0.005523
     15          6           0       -1.707332   -1.197870   -0.006029
     16          1           0        0.208880   -2.132808   -0.004349
     17          1           0       -2.233321   -2.146678   -0.010164
     18          1           0        0.195661    2.142410   -0.002323
     19          1           0       -2.265627    2.125503   -0.008359
     20          6           0       -3.939722   -0.028650    0.007891
     21          1           0       -4.349742    0.965724   -0.172190
     22          1           0       -4.333938   -0.700150   -0.757913
     23          1           0       -4.318884   -0.375314    0.972967
     24          9           0        2.334601    1.353699    0.005327
 ---------------------------------------------------------------------

 SCF Done:  E(RHF) =  -488.025029844     A.U. after    2 cycles

 The electronic state is 1-A.
 Alpha  occ. eigenvalues --  -29.23357 -11.51498 -11.49394 -11.43927 -11.43337
 Alpha  occ. eigenvalues --  -11.42853 -11.40373 -11.39888 -11.39313 -11.38554
 Alpha  occ. eigenvalues --  -11.35613  -1.38764  -1.27113  -1.12895  -1.09218
 Alpha  occ. eigenvalues --   -1.02969  -0.99857  -0.91435  -0.86447  -0.82168
 Alpha  occ. eigenvalues --   -0.71969  -0.66624  -0.64302  -0.60683  -0.60296
 Alpha  occ. eigenvalues --   -0.59625  -0.57564  -0.57423  -0.55565  -0.53165
 Alpha  occ. eigenvalues --   -0.50721  -0.50287  -0.49364  -0.46910  -0.43937
 Alpha  occ. eigenvalues --   -0.42239  -0.33630  -0.32903  -0.31272  -0.23786
 Alpha  occ. eigenvalues --   -0.23676
 Alpha virt. eigenvalues --    0.03535   0.04462   0.05184   0.05428   0.05643
 Alpha virt. eigenvalues --    0.06067   0.06162   0.06592   0.07168   0.07402
 Alpha virt. eigenvalues --    0.08224   0.08250   0.08990   0.10803   0.11616

 Mulliken charges:
               1
     1  C    2.752388
     2  C   -5.039049
     3  C    4.478079
     4  C   -5.034406
     5  H    1.182472
     6  H    1.231483
     7  H    1.196060
     8  C   -2.912371
     9  C   -4.734577
    10  H    1.239225
    11  H    1.175749
    12  H    1.192743
    13  C   -0.713806
    14  C    1.857786
    15  C   -2.739101
    16  H    2.167479
    17  H    1.825340
    18  H    2.052724
    19  H    1.824919
    20  C   -6.362682
    21  H    1.287153
    22  H    1.070063
    23  H    1.094198
    24  F   -0.091870
 Sum of Mulliken charges =  -0.00000

 Dipole moment (field-independent basis, Debye):
    X=             -0.0561    Y=              0.9704    Z=              0.0204  Tot=              0.9722

 Test job not archived.
 1\1\GINC-SE048\SP\RHF\Aug-CC-pVDZ\C10H13F1\OHZDE\09-Apr-2025\0\\#t hf
 aug-cc-pvdz iop(5/13=1,5/36=2,99/5=2) pseudo=read geom=check guess=(re
 ad,tcheck) scf=(maxcycle=1)\\title\\0,1\C,0,1.898213,0.008896,0.001424
 \C,0,2.466225,-0.610714,-1.263819\C,0,0.382268,0.013958,-0.000143\C,0,
 2.463479,-0.617115,1.264734\H,0,2.089958,-0.081191,-2.139554\H,0,2.174
 433,-1.658841,-1.343225\H,0,3.555663,-0.55025,-1.251559\C,0,-0.323327,
 -1.188229,-0.002833\C,0,-0.335905,1.200895,-0.001829\H,0,2.17132,-1.66
 5559,1.3384\H,0,2.085581,-0.091806,2.1423\H,0,3.552951,-0.556861,1.254

 Normal termination of Gaussian 16 at Wed Apr  9 01:00:36 2025.
