 Gaussian 16, Revision C.01,

 ----------------------------------------------------------------------
 #t hf aug-cc-pvdz symm=none int=(grid=ultrafine) guess=(read,tcheck) s
 table=(opt,rrhf)
 ----------------------------------------------------------------------
 -----
 title
 -----
 Symbolic Z-matrix:
 Charge =  0 Multiplicity = 1

 SCF Done:  E(RHF) =  -1125.21537607     A.U. after   15 cycles
 Normal termination of Gaussian 16 at Wed Apr  9 02:29:38 2025.
 Gaussian 16:  ES64L-G16RevC.01  3-Jul-2019

 ----------------------------------------------------------------------
 #t hf aug-cc-pvdz iop(5/13=1,5/36=2,99/5=2) pseudo=read geom=check gue
 ss=(read,tcheck) scf=(maxcycle=1)
 ----------------------------------------------------------------------
 -----
 title
 -----
 Structure from the checkpoint file:  "BH10_301_forward_mol1.chk"
 Charge =  0 Multiplicity = 1

                         Standard orientation:
 ---------------------------------------------------------------------
 Center     Atomic      Atomic             Coordinates (Angstroms)
 Number     Number       Type             X           Y           Z
 ---------------------------------------------------------------------
      1          6           0        1.673718    1.826226    0.076522
      2          6           0        0.938761    0.854742    1.033278
      3          6           0       -1.379889    1.449921   -0.924901
      4          1           0        2.730940    1.549870    0.051134
      5          6           0       -0.038307    1.590318    1.980383
      6          1           0       -0.667972    0.859506    2.499493
      7          1           0        0.558677    2.075856    2.760302
      8          1           0       -2.215128    1.463933   -1.630129
      9          1           0        1.701608    0.438729    1.687642
     10          6           0       -0.919443    2.665765    1.354004
     11          1           0       -1.475798    3.162477    2.155396
     12          1           0       -0.284381    3.442895    0.920670
     13          6           0       -1.921968    2.199002    0.305800
     14          1           0       -2.683026    1.587496    0.795313
     15          1           0       -2.450251    3.086145   -0.060891
     16          6           0       -0.261320    2.242496   -1.641470
     17          1           0       -0.414928    2.143317   -2.720839
     18          6           0        1.193003    1.854923   -1.373540
     19          1           0        1.377900    0.873047   -1.815002
     20          1           0        1.830949    2.546524   -1.933652
     21          1           0       -0.402705    3.307141   -1.424478
     22          1           0        1.655670    2.838138    0.492797
     23          6           0       -1.066830   -0.055568   -0.678523
     24          1           0       -0.839730   -0.473660   -1.672031
     25         14           0       -2.680925   -0.985033   -0.248910
     26          6           0       -3.236176   -0.861105    1.553565
     27          1           0       -2.402580   -0.810420    2.255099
     28          1           0       -3.859100    0.018576    1.725257
     29          1           0       -3.836227   -1.737458    1.814907
     30          6           0       -2.542998   -2.829672   -0.645763
     31          1           0       -3.550181   -3.255785   -0.655736
     32          1           0       -2.108502   -3.014036   -1.632118
     33          1           0       -1.971503   -3.396593    0.092247
     34          6           0       -4.084692   -0.338337   -1.324876
     35          1           0       -3.835659   -0.392371   -2.388146
     36          1           0       -4.982314   -0.942197   -1.165474
     37          1           0       -4.341215    0.697721   -1.095398
     38          5           0        0.205918   -0.355897    0.264425
     39          6           0        1.643333   -1.397009   -0.571471
     40          1           0        1.629088   -1.462605   -1.650811
     41          6           0        0.636693   -2.078745    0.118838
     42          1           0       -0.092224   -2.582630   -0.500403
     43          6           0        0.254590   -1.765441    1.423968
     44          1           0        0.991039   -1.491769    2.163692
     45          1           0       -0.664011   -2.203803    1.788720
     46          6           0        2.962165   -1.099541    0.003351
     47          8           0        3.292147   -1.208529    1.159300
     48          8           0        3.812323   -0.697194   -0.960753
     49          6           0        5.131246   -0.368366   -0.523291
     50          1           0        5.674842   -0.080957   -1.419382
     51          1           0        5.100711    0.458565    0.187161
     52          1           0        5.602290   -1.227584   -0.046346
 ---------------------------------------------------------------------

 SCF Done:  E(RHF) =  -1129.52841295     A.U. after    2 cycles

 The electronic state is 1-A.
 Alpha  occ. eigenvalues --  -76.17887 -21.08687 -21.03708 -11.55743 -11.52830
 Alpha  occ. eigenvalues --  -11.46874 -11.46370 -11.44975 -11.43663 -11.43414
 Alpha  occ. eigenvalues --  -11.42128 -11.41605 -11.41493 -11.38561 -11.36624
 Alpha  occ. eigenvalues --  -11.36147 -11.35526 -11.34889 -11.34519 -11.34245
 Alpha  occ. eigenvalues --   -7.63998  -5.52030  -2.16938  -2.16211  -2.15908
 Alpha  occ. eigenvalues --   -1.84476  -1.65925  -1.36950  -1.29779  -1.18789
 Alpha  occ. eigenvalues --   -1.16560  -1.09083  -1.07293  -1.04913  -1.00964
 Alpha  occ. eigenvalues --   -1.00494  -0.99810  -0.97398  -0.93727  -0.86342
 Alpha  occ. eigenvalues --   -0.84699  -0.82671  -0.74668  -0.72888  -0.71882
 Alpha  occ. eigenvalues --   -0.69303  -0.66919  -0.65315  -0.64348  -0.63040
 Alpha  occ. eigenvalues --   -0.62745  -0.60593  -0.59803  -0.58523  -0.57839
 Alpha  occ. eigenvalues --   -0.57368  -0.56949  -0.56265  -0.55981  -0.54808
 Alpha  occ. eigenvalues --   -0.54502  -0.53794  -0.53284  -0.52890  -0.52645
 Alpha  occ. eigenvalues --   -0.51775  -0.50566  -0.48855  -0.47157  -0.45164
 Alpha  occ. eigenvalues --   -0.44195  -0.42875  -0.42480  -0.41728  -0.40561
 Alpha  occ. eigenvalues --   -0.39174  -0.38765  -0.37779  -0.36460  -0.35738
 Alpha  occ. eigenvalues --   -0.33476  -0.31590  -0.29768  -0.28527
 Alpha virt. eigenvalues --    0.03736   0.04445   0.04667   0.04787   0.04997
 Alpha virt. eigenvalues --    0.05364   0.05429   0.05637   0.05725   0.05859
 Alpha virt. eigenvalues --    0.05952   0.06222   0.06254   0.06419   0.06672

 Mulliken charges:
               1
     1  C   -4.675438
     2  C   -2.468309
     3  C    3.068118
     4  H    1.336854
     5  C   -6.019428
     6  H    1.118959
     7  H    1.264085
     8  H    1.642236
     9  H    0.495631
    10  C   -3.225133
    11  H    1.378130
    12  H    1.526902
    13  C   -5.311976
    14  H    2.298552
    15  H    1.186138
    16  C   -5.386248
    17  H    1.095611
    18  C   -4.555672
    19  H    1.522439
    20  H    1.588465
    21  H    1.278358
    22  H    1.378613
    23  C   -9.716335
    24  H    0.271475
    25  Si  14.615895
    26  C   -6.837603
    27  H    1.160776
    28  H    0.976062
    29  H    0.690288
    30  C   -6.787012
    31  H    1.014520
    32  H    0.892046
    33  H    0.897164
    34  C   -7.149897
    35  H    0.937585
    36  H    0.882710
    37  H    0.908259
    38  B   27.717918
    39  C   -5.301115
    40  H    1.770801
    41  C   -3.370680
    42  H    1.466817
    43  C   -6.335503
    44  H    0.064993
    45  H    0.747219
    46  C    8.122665
    47  O   -4.133626
    48  O   -4.282848
    49  C   -4.043128
    50  H    1.384914
    51  H    1.498303
    52  H    1.400449
 Sum of Mulliken charges =   0.00000

 Dipole moment (field-independent basis, Debye):
    X=              0.1814    Y=             -0.4114    Z=             -0.7828  Tot=              0.9027

 Test job not archived.
 1\1\GINC-SE024\SP\RHF\Aug-CC-pVDZ\C17H31B1O2Si1\OHZDE\09-Apr-2025\0\\#
 t hf aug-cc-pvdz iop(5/13=1,5/36=2,99/5=2) pseudo=read geom=check gues
 s=(read,tcheck) scf=(maxcycle=1)\\title\\0,1\C,0,1.673718,1.826226,0.0
 76522\C,0,0.938761,0.854742,1.033278\C,0,-1.379889,1.449921,-0.924901\
 H,0,2.73094,1.54987,0.051134\C,0,-0.038307,1.590318,1.980383\H,0,-0.66
 7972,0.859506,2.499493\H,0,0.558677,2.075856,2.760302\H,0,-2.215128,1.
 463933,-1.630129\H,0,1.701608,0.438729,1.687642\C,0,-0.919443,2.665765
 ,1.354004\H,0,-1.475798,3.162477,2.155396\H,0,-0.284381,3.442895,0.920

 Normal termination of Gaussian 16 at Wed Apr  9 02:32:42 2025.
