 Gaussian 16, Revision C.01,

 ----------------------------------------------------------------------
 #t hf aug-cc-pvdz symm=none int=(grid=ultrafine) guess=(read,tcheck) s
 table=opt
 ----------------------------------------------------------------------
 -----
 title
 -----
 Symbolic Z-matrix:
 Charge =  0 Multiplicity = 2

 SCF Done:  E(UHF) =  -431.314529928     A.U. after   23 cycles
 Normal termination of Gaussian 16 at Wed Apr  9 02:06:26 2025.
 Gaussian 16:  ES64L-G16RevC.01  3-Jul-2019

 ----------------------------------------------------------------------
 #t hf aug-cc-pvdz iop(5/13=1,5/36=2,99/5=2) pseudo=read geom=check gue
 ss=(read,tcheck) scf=(maxcycle=1)
 ----------------------------------------------------------------------
 -----
 title
 -----
 Structure from the checkpoint file:  "BH10_6_forward_mol2.chk"
 Charge =  0 Multiplicity = 2

                         Standard orientation:
 ---------------------------------------------------------------------
 Center     Atomic      Atomic             Coordinates (Angstroms)
 Number     Number       Type             X           Y           Z
 ---------------------------------------------------------------------
      1          6           0       -1.402274    0.310807   -0.128283
      2          6           0       -0.574842   -0.304577    0.944988
      3          6           0        0.368383   -1.387686    0.424012
      4          1           0       -1.256503   -0.724444    1.697931
      5          1           0       -0.015237    0.499932    1.425395
      6          6           0        1.432997   -0.861085   -0.546357
      7          1           0       -0.214595   -2.169544   -0.068064
      8          1           0        0.857003   -1.857499    1.282189
      9          6           0        2.375549    0.111713    0.094854
     10          1           0        0.950944   -0.392951   -1.409048
     11          1           0        2.002153   -1.715323   -0.926907
     12          6           0        2.522427    1.379452   -0.261826
     13          1           0        1.950072    1.806029   -1.079243
     14          1           0        3.220876    2.035098    0.244043
     15          1           0        2.966935   -0.275418    0.923331
     16          9           0       -2.159774   -0.539952   -0.833750
     17          9           0       -2.150790    1.351327    0.249977
 ---------------------------------------------------------------------

 SCF Done:  E(UHF) =  -433.129643670     A.U. after    2 cycles

 The electronic state is 2-A.
 Alpha  occ. eigenvalues --  -29.29544 -29.29481 -11.51965 -11.45008 -11.42815
 Alpha  occ. eigenvalues --  -11.40395 -11.38503 -11.36600  -1.35036  -1.23635
 Alpha  occ. eigenvalues --   -1.10979  -0.99751  -0.88412  -0.80781  -0.79214
 Alpha  occ. eigenvalues --   -0.69565  -0.66824  -0.64191  -0.59910  -0.58326
 Alpha  occ. eigenvalues --   -0.54075  -0.52252  -0.48417  -0.47330  -0.45511
 Alpha  occ. eigenvalues --   -0.44053  -0.38905  -0.35086  -0.30356  -0.30103
 Alpha  occ. eigenvalues --   -0.22606  -0.17608
 Alpha virt. eigenvalues --    0.04073   0.05016   0.05367   0.05487   0.06015
 Alpha virt. eigenvalues --    0.06295   0.07278   0.07373   0.08025   0.10334
 Alpha virt. eigenvalues --    0.11817   0.12505   0.13273   0.13606   0.14442

  Beta  occ. eigenvalues --  -29.29173 -29.29107 -11.49478 -11.44997 -11.42711
  Beta  occ. eigenvalues --  -11.40346 -11.38473 -11.36583  -1.31674  -1.21789
  Beta  occ. eigenvalues --   -1.10007  -0.98989  -0.87937  -0.79530  -0.78966
  Beta  occ. eigenvalues --   -0.66026  -0.65326  -0.63539  -0.59223  -0.54738
  Beta  occ. eigenvalues --   -0.52384  -0.49834  -0.48200  -0.45327  -0.43648
  Beta  occ. eigenvalues --   -0.42216  -0.38060  -0.35040  -0.29891  -0.28295
  Beta  occ. eigenvalues --   -0.22465
  Beta virt. eigenvalues --    0.03930   0.04963   0.05358   0.05408   0.05955
  Beta virt. eigenvalues --    0.06314   0.07218   0.07353   0.08026   0.10312
  Beta virt. eigenvalues --    0.11274   0.12486   0.12642   0.13590   0.14445

 Mulliken charges and spin densities:
               1          2
     1  C   -0.195289   1.057231
     2  C   -3.509793  -0.235781
     3  C   -2.550208  -0.022420
     4  H    1.278339   0.063070
     5  H    1.807790  -0.010020
     6  C   -3.957780  -0.039972
     7  H    1.304513  -0.007430
     8  H    1.332105  -0.011188
     9  C   -0.250071   0.008933
    10  H    1.758670  -0.023191
    11  H    1.242760   0.001628
    12  C   -3.190547  -0.000940
    13  H    1.397101   0.003969
    14  H    1.395138   0.000155
    15  H    1.384509  -0.000295
    16  F    0.353978   0.109184
    17  F    0.398786   0.107068
 Sum of Mulliken charges =   0.00000   1.00000

 Dipole moment (field-independent basis, Debye):
    X=             -1.2843    Y=             -0.3020    Z=             -0.1440  Tot=              1.3271
                          Isotropic Fermi Contact Couplings
        Atom                 a.u.       MegaHertz       Gauss      10(-4) cm-1
     1  C(13)              0.19541     219.67261      78.38465      73.27490
     2  C(13)              0.01922      21.60318       7.70855       7.20605
     3  C(13)              0.00438       4.92664       1.75795       1.64335
     4  H(1)               0.01167      52.15577      18.61048      17.39729
     5  H(1)               0.00174       7.76707       2.77148       2.59082
     6  C(13)              0.00076       0.85290       0.30434       0.28450
     7  H(1)              -0.00023      -1.03203      -0.36825      -0.34425
     8  H(1)              -0.00052      -2.34371      -0.83630      -0.78178

 Normal termination of Gaussian 16 at Wed Apr  9 02:06:34 2025.
