 Gaussian 16, Revision C.01,

 ----------------------------------------------------------------------
 #t hf aug-cc-pvdz symm=none int=(grid=ultrafine) guess=(read,tcheck) s
 table=(opt,rrhf)
 ----------------------------------------------------------------------
 -----
 title
 -----
 Symbolic Z-matrix:
 Charge =  0 Multiplicity = 1

 SCF Done:  E(RHF) =  -727.094709541     A.U. after   15 cycles
 Normal termination of Gaussian 16 at Wed Apr  9 00:56:30 2025.
 Gaussian 16:  ES64L-G16RevC.01  3-Jul-2019

 ----------------------------------------------------------------------
 #t hf aug-cc-pvdz iop(5/13=1,5/36=2,99/5=2) pseudo=read geom=check gue
 ss=(read,tcheck) scf=(maxcycle=1)
 ----------------------------------------------------------------------
 -----
 title
 -----
 Structure from the checkpoint file:  "BH10_106_forward_mol2.chk"
 Charge =  0 Multiplicity = 1

                         Standard orientation:
 ---------------------------------------------------------------------
 Center     Atomic      Atomic             Coordinates (Angstroms)
 Number     Number       Type             X           Y           Z
 ---------------------------------------------------------------------
      1         16           0       -1.890726   -0.000000   -0.542786
      2          6           0       -0.154917   -0.000000   -0.242244
      3          6           0        0.532581   -1.208642   -0.134014
      4          6           0        1.901143   -1.205659    0.083679
      5          6           0        2.582590    0.000000    0.192611
      6          6           0        1.901143    1.205660    0.083678
      7          6           0        0.532580    1.208641   -0.134015
      8          1           0        2.437001   -2.142895    0.168165
      9          1           0        3.652707    0.000000    0.361736
     10          1           0       -0.013077   -2.139375   -0.221273
     11          1           0       -0.013078    2.139375   -0.221274
     12          1           0        2.437000    2.142895    0.168164
     13          9           0       -2.446629    0.000000    1.036765
 ---------------------------------------------------------------------

 SCF Done:  E(RHF) =  -728.758344326     A.U. after    2 cycles

 The electronic state is 1-A.
 Alpha  occ. eigenvalues --  -75.75263 -29.25559 -13.23185 -13.17855 -13.12066
 Alpha  occ. eigenvalues --  -11.53220 -11.45199 -11.45042 -11.43127 -11.42220
 Alpha  occ. eigenvalues --  -11.38344  -8.09254  -1.38271  -1.21732  -1.11433
 Alpha  occ. eigenvalues --   -1.07179  -0.88687  -0.86660  -0.73732  -0.68066
 Alpha  occ. eigenvalues --   -0.63535  -0.60471  -0.59640  -0.55437  -0.52070
 Alpha  occ. eigenvalues --   -0.47248  -0.44724  -0.39423  -0.37360  -0.34915
 Alpha  occ. eigenvalues --   -0.30817  -0.26596  -0.16743
 Alpha virt. eigenvalues --    0.02890   0.04876   0.04924   0.05576   0.06461
 Alpha virt. eigenvalues --    0.07716   0.09587   0.10355   0.10634   0.12030
 Alpha virt. eigenvalues --    0.12441   0.13646   0.13739   0.14114   0.14379

 Mulliken charges:
               1
     1  S    0.265354
     2  C    3.166664
     3  C   -3.647639
     4  C   -0.747843
     5  C   -2.331046
     6  C   -0.747930
     7  C   -3.647611
     8  H    1.516916
     9  H    1.511633
    10  H    1.683605
    11  H    1.683606
    12  H    1.516917
    13  F   -0.222627
 Sum of Mulliken charges =  -0.00000

 Dipole moment (field-independent basis, Debye):
    X=              0.0561    Y=              0.0000    Z=              2.0738  Tot=              2.0745

 Test job not archived.
 1\1\GINC-SE403\SP\RHF\Aug-CC-pVDZ\C6H5F1S1\OHZDE\09-Apr-2025\0\\#t hf
 aug-cc-pvdz iop(5/13=1,5/36=2,99/5=2) pseudo=read geom=check guess=(re
 ad,tcheck) scf=(maxcycle=1)\\title\\0,1\S,0,1.890726,0.,-0.542786\C,0,
 0.154917,0.,-0.242244\C,0,-0.532581,1.208642,-0.134014\C,0,-1.901143,1
 .205659,0.083679\C,0,-2.58259,0.,0.192611\C,0,-1.901143,-1.20566,0.083
 678\C,0,-0.53258,-1.208641,-0.134015\H,0,-2.437001,2.142895,0.168165\H
 ,0,-3.652707,0.,0.361736\H,0,0.013077,2.139375,-0.221273\H,0,0.013078,
 -2.139375,-0.221274\H,0,-2.437,-2.142895,0.168164\F,0,2.446629,-0.0000

 Normal termination of Gaussian 16 at Wed Apr  9 00:56:35 2025.
