 Gaussian 16, Revision C.01,

 ----------------------------------------------------------------------
 #t hf aug-cc-pvdz symm=none int=(grid=ultrafine) guess=(read,tcheck) s
 table=(opt,rrhf)
 ----------------------------------------------------------------------
 -----
 title
 -----
 Symbolic Z-matrix:
 Charge =  0 Multiplicity = 1

 SCF Done:  E(RHF) =  -1572.23868341     A.U. after   18 cycles
 Normal termination of Gaussian 16 at Wed Apr  9 03:47:13 2025.
 Gaussian 16:  ES64L-G16RevC.01  3-Jul-2019

 ----------------------------------------------------------------------
 #t hf aug-cc-pvdz iop(5/13=1,5/36=2,99/5=2) pseudo=read geom=check gue
 ss=(read,tcheck) scf=(maxcycle=1)
 ----------------------------------------------------------------------
 -----
 title
 -----
 Structure from the checkpoint file:  "BH10_376_reverse_mol2.chk"
 Charge =  0 Multiplicity = 1

                         Standard orientation:
 ---------------------------------------------------------------------
 Center     Atomic      Atomic             Coordinates (Angstroms)
 Number     Number       Type             X           Y           Z
 ---------------------------------------------------------------------
      1          6           0       -5.967721   -1.529844   -0.854710
      2          6           0       -5.133723   -0.544391   -0.345309
      3          6           0       -3.976442   -0.886473    0.345547
      4          6           0       -3.667107   -2.230641    0.529610
      5          6           0       -4.500602   -3.215858    0.021777
      6          6           0       -5.651657   -2.868549   -0.672885
      7          1           0       -6.867773   -1.250769   -1.389067
      8          1           0       -5.383741    0.501386   -0.485435
      9          1           0       -2.777614   -2.509976    1.081128
     10          1           0       -4.252484   -4.259353    0.173399
     11          1           0       -6.302805   -3.639613   -1.066292
     12          6           0       -3.048400    0.200741    0.827539
     13          6           0       -1.835509    0.413366   -0.098835
     14          6           0       -1.252587    2.656479    0.704772
     15          6           0       -0.710132    2.004667   -1.572434
     16          6           0       -1.369408    4.118994    0.295462
     17          1           0       -0.233177    2.461285    1.074042
     18          1           0       -1.930423    2.446030    1.533070
     19          6           0       -0.826531    3.443364   -2.056002
     20          1           0        0.344973    1.798437   -1.327197
     21          1           0       -1.003321    1.309983   -2.361993
     22          6           0       -0.503091    4.416407   -0.925242
     23          1           0       -0.153215    3.596060   -2.903141
     24          1           0       -1.847247    3.613774   -2.411382
     25          1           0       -0.644644    5.448605   -1.253804
     26          1           0        0.553883    4.314348   -0.652443
     27          7           0       -1.578932    1.782981   -0.419102
     28          7           0       -0.818882   -0.256716    0.755893
     29          7           0       -1.265609   -0.389326    2.048983
     30          7           0       -2.472169   -0.145371    2.145279
     31          6           0        0.536916   -0.379505    0.485087
     32          6           0        0.951795   -0.976271   -0.703580
     33          6           0        1.533594    0.084622    1.341840
     34          6           0        2.285771   -1.087294   -1.032535
     35          6           0        2.870325   -0.067396    1.025079
     36          6           0        3.278569   -0.646335   -0.167828
     37          9           0        0.032900   -1.452149   -1.550621
     38          9           0        2.603816   -1.679366   -2.180650
     39          9           0        3.769103    0.427659    1.875200
     40          9           0        1.215818    0.732010    2.460732
     41          6           0        4.718350   -0.758261   -0.551514
     42          8           0        5.152269   -0.437838   -1.622423
     43          8           0        5.446298   -1.261760    0.442610
     44          6           0        6.854421   -1.367121    0.192496
     45          1           0        7.272782   -0.383343   -0.017531
     46          1           0        7.279498   -1.780374    1.102337
     47          1           0        7.037704   -2.025988   -0.655456
     48          1           0       -3.605523    1.131273    0.931267
     49          1           0       -2.416722    4.337534    0.065479
     50          1           0       -1.080825    4.751820    1.138273
     51          1           0       -1.944441   -0.142906   -1.026094
 ---------------------------------------------------------------------

 SCF Done:  E(RHF) =  -1579.04184780     A.U. after    2 cycles

 The electronic state is 1-A.
 Alpha  occ. eigenvalues --  -29.31873 -29.31820 -29.31732 -29.31294 -21.10873
 Alpha  occ. eigenvalues --  -21.06768 -15.83450 -15.77928 -15.77789 -15.71972
 Alpha  occ. eigenvalues --  -11.63007 -11.57168 -11.56630 -11.56392 -11.54813
 Alpha  occ. eigenvalues --  -11.52827 -11.52556 -11.50790 -11.47470 -11.46699
 Alpha  occ. eigenvalues --  -11.45537 -11.44880 -11.44419 -11.44275 -11.42732
 Alpha  occ. eigenvalues --  -11.42205 -11.41601 -11.41324 -11.38880 -11.37138
 Alpha  occ. eigenvalues --  -11.35993  -1.86888  -1.69038  -1.68405  -1.48523
 Alpha  occ. eigenvalues --   -1.46837  -1.37123  -1.34533  -1.28746  -1.24922
 Alpha  occ. eigenvalues --   -1.20428  -1.17024  -1.13857  -1.10002  -1.08739
 Alpha  occ. eigenvalues --   -1.08019  -1.06121  -1.02048  -0.96371  -0.91875
 Alpha  occ. eigenvalues --   -0.90041  -0.89941  -0.89415  -0.87127  -0.83993
 Alpha  occ. eigenvalues --   -0.82006  -0.78346  -0.76535  -0.76272  -0.75108
 Alpha  occ. eigenvalues --   -0.73029  -0.71852  -0.70538  -0.67805  -0.66965
 Alpha  occ. eigenvalues --   -0.65746  -0.65253  -0.64501  -0.63893  -0.62997
 Alpha  occ. eigenvalues --   -0.62405  -0.61147  -0.59388  -0.58634  -0.58391
 Alpha  occ. eigenvalues --   -0.57785  -0.56329  -0.55822  -0.55548  -0.55189
 Alpha  occ. eigenvalues --   -0.54274  -0.53668  -0.53038  -0.51862  -0.50200
 Alpha  occ. eigenvalues --   -0.48856  -0.48010  -0.47824  -0.46301  -0.45001
 Alpha  occ. eigenvalues --   -0.44704  -0.44578  -0.43953  -0.42719  -0.42137
 Alpha  occ. eigenvalues --   -0.41703  -0.41175  -0.40273  -0.39588  -0.38188
 Alpha  occ. eigenvalues --   -0.36034  -0.35098  -0.33575  -0.33313  -0.33110
 Alpha  occ. eigenvalues --   -0.31802  -0.30309  -0.29706  -0.29075  -0.28651
 Alpha  occ. eigenvalues --   -0.26932  -0.24955  -0.18458
 Alpha virt. eigenvalues --    0.03366   0.04210   0.04569   0.04698   0.04919
 Alpha virt. eigenvalues --    0.05289   0.05514   0.05762   0.05820   0.06103
 Alpha virt. eigenvalues --    0.06422   0.06621   0.06853   0.07423   0.07959

 Mulliken charges:
               1
     1  C   -2.548137
     2  C   -2.855301
     3  C    9.838959
     4  C   -2.619544
     5  C   -2.784772
     6  C   -3.829515
     7  H    1.509489
     8  H    1.899903
     9  H    2.091112
    10  H    1.512274
    11  H    1.593552
    12  C   -5.076678
    13  C    3.548293
    14  C   -3.957858
    15  C   -3.803817
    16  C   -3.446925
    17  H    1.770157
    18  H    2.061171
    19  C   -3.820510
    20  H    2.030192
    21  H    1.753667
    22  C   -3.297246
    23  H    1.358938
    24  H    1.314181
    25  H    1.472519
    26  H    1.366743
    27  N   -2.039615
    28  N   -1.751002
    29  N   -1.044189
    30  N   -0.877028
    31  C   -5.428497
    32  C    0.378804
    33  C    1.154617
    34  C    3.395673
    35  C    3.892775
    36  C   -4.773723
    37  F    0.706290
    38  F    0.923552
    39  F    0.867420
    40  F    0.964832
    41  C    5.546260
    42  O   -3.404205
    43  O   -3.239958
    44  C   -2.534522
    45  H    1.149961
    46  H    1.142276
    47  H    1.134778
    48  H    1.487402
    49  H    1.271614
    50  H    1.296885
    51  H    2.698755
 Sum of Mulliken charges =  -0.00000

 Dipole moment (field-independent basis, Debye):
    X=              0.4199    Y=              0.7999    Z=             -1.3815  Tot=              1.6507

 Test job not archived.
 1\1\GINC-SE423\SP\RHF\Aug-CC-pVDZ\C21H20F4N4O2\OHZDE\09-Apr-2025\0\\#t
  hf aug-cc-pvdz iop(5/13=1,5/36=2,99/5=2) pseudo=read geom=check guess
 =(read,tcheck) scf=(maxcycle=1)\\title\\0,1\C,0,-5.967721,-1.529844,-0
 .85471\C,0,-5.133723,-0.544391,-0.345309\C,0,-3.976442,-0.886473,0.345
 547\C,0,-3.667107,-2.230641,0.52961\C,0,-4.500602,-3.215858,0.021777\C
 ,0,-5.651657,-2.868549,-0.672885\H,0,-6.867773,-1.250769,-1.389067\H,0
 ,-5.383741,0.501386,-0.485435\H,0,-2.777614,-2.509976,1.081128\H,0,-4.
 252484,-4.259353,0.173399\H,0,-6.302805,-3.639613,-1.066292\C,0,-3.048

 Normal termination of Gaussian 16 at Wed Apr  9 03:50:35 2025.
