 Gaussian 16, Revision C.01,

 ----------------------------------------------------------------------
 #t hf aug-cc-pvdz symm=none int=(grid=ultrafine) guess=(read,tcheck) s
 table=(opt,rrhf)
 ----------------------------------------------------------------------
 -----
 title
 -----
 Symbolic Z-matrix:
 Charge =  0 Multiplicity = 1

 SCF Done:  E(RHF) =  -215.950602841     A.U. after   12 cycles
 Normal termination of Gaussian 16 at Wed Apr  9 01:13:45 2025.
 Gaussian 16:  ES64L-G16RevC.01  3-Jul-2019

 ----------------------------------------------------------------------
 #t hf aug-cc-pvdz iop(5/13=1,5/36=2,99/5=2) pseudo=read geom=check gue
 ss=(read,tcheck) scf=(maxcycle=1)
 ----------------------------------------------------------------------
 -----
 title
 -----
 Structure from the checkpoint file:  "BH10_292_forward_mol2.chk"
 Charge =  0 Multiplicity = 1

                         Standard orientation:
 ---------------------------------------------------------------------
 Center     Atomic      Atomic             Coordinates (Angstroms)
 Number     Number       Type             X           Y           Z
 ---------------------------------------------------------------------
      1          6           0       -0.536558    0.689685    0.000037
      2          6           0        0.775457    0.565908    0.000014
      3          9           0        1.380523   -0.644086   -0.000060
      4          6           0       -1.516475   -0.439031    0.000016
      5          1           0       -2.163531   -0.389511    0.879479
      6          1           0       -2.163742   -0.389294   -0.879278
      7          1           0       -1.010763   -1.403580   -0.000159
      8          1           0       -0.915322    1.705825    0.000074
      9          1           0        1.494109    1.373967    0.000022
 ---------------------------------------------------------------------

 SCF Done:  E(RHF) =  -216.870301991     A.U. after    2 cycles

 The electronic state is 1-A.
 Alpha  occ. eigenvalues --  -29.27321 -11.46713 -11.40750 -11.37200  -1.25050
 Alpha  occ. eigenvalues --   -1.04963  -0.86489  -0.70344  -0.62669  -0.57547
 Alpha  occ. eigenvalues --   -0.52670  -0.50615  -0.46102  -0.37858  -0.26833
 Alpha  occ. eigenvalues --   -0.22944
 Alpha virt. eigenvalues --    0.03763   0.05345   0.05808   0.06508   0.07253
 Alpha virt. eigenvalues --    0.11799   0.11898   0.12517   0.13677   0.14013
 Alpha virt. eigenvalues --    0.15330   0.16479   0.17368   0.17466   0.17909

 Mulliken charges:
               1
     1  C   -1.679791
     2  C   -1.451082
     3  F    0.736996
     4  C   -3.977517
     5  H    1.148599
     6  H    1.148573
     7  H    1.275451
     8  H    1.348207
     9  H    1.450564
 Sum of Mulliken charges =  -0.00000

 Dipole moment (field-independent basis, Debye):
    X=              0.9716    Y=             -1.4128    Z=             -0.0001  Tot=              1.7147

 Test job not archived.
 1\1\GINC-SE453\SP\RHF\Aug-CC-pVDZ\C3H5F1\OHZDE\09-Apr-2025\0\\#t hf au
 g-cc-pvdz iop(5/13=1,5/36=2,99/5=2) pseudo=read geom=check guess=(read
 ,tcheck) scf=(maxcycle=1)\\title\\0,1\C,0,-0.536558,0.689685,0.000037\
 C,0,0.775457,0.565908,0.000014\F,0,1.380523,-0.644086,-0.00006\C,0,-1.
 516475,-0.439031,0.000016\H,0,-2.163531,-0.389511,0.879479\H,0,-2.1637
 42,-0.389294,-0.879278\H,0,-1.010763,-1.40358,-0.000159\H,0,-0.915322,
 1.705825,0.000074\H,0,1.494109,1.373967,0.000022\\Version=ES64L-G16Rev
 C.01\State=1-A\HF=-216.870302\RMSD=6.981e-01\Dipole=0.3822473,-0.55584

 Normal termination of Gaussian 16 at Wed Apr  9 01:13:47 2025.
