 Gaussian 16, Revision C.01,

 ----------------------------------------------------------------------
 #t hf aug-cc-pvdz symm=none int=(grid=ultrafine) guess=(read,tcheck) s
 table=(opt,rrhf)
 ----------------------------------------------------------------------
 -----
 title
 -----
 Symbolic Z-matrix:
 Charge =  0 Multiplicity = 1

 SCF Done:  E(RHF) =  -1375.46253576     A.U. after   17 cycles
 Normal termination of Gaussian 16 at Wed Apr  9 03:25:14 2025.
 Gaussian 16:  ES64L-G16RevC.01  3-Jul-2019

 ----------------------------------------------------------------------
 #t hf aug-cc-pvdz iop(5/13=1,5/36=2,99/5=2) pseudo=read geom=check gue
 ss=(read,tcheck) scf=(maxcycle=1)
 ----------------------------------------------------------------------
 -----
 title
 -----
 Structure from the checkpoint file:  "BH10_396_reverse_mol2.chk"
 Charge =  0 Multiplicity = 1

                         Standard orientation:
 ---------------------------------------------------------------------
 Center     Atomic      Atomic             Coordinates (Angstroms)
 Number     Number       Type             X           Y           Z
 ---------------------------------------------------------------------
      1          6           0       -0.199254   -2.655136    0.829955
      2          1           0       -0.354401   -3.717809    0.614765
      3          1           0       -0.195805   -2.564071    1.937088
      4          6           0       -1.362581   -1.867967    0.308157
      5          6           0        0.176767   -0.289283   -0.796537
      6          1           0        0.460703   -0.639668   -1.793358
      7          1           0        0.202414    0.795538   -0.827090
      8          6           0        1.194909   -0.803142    0.217112
      9          1           0        0.927761   -0.375375    1.203306
     10          7           0        1.070618   -2.255199    0.261586
     11          6           0       -2.411991   -0.024312   -0.855574
     12          6           0       -2.737533   -2.319831    0.723806
     13          6           0       -3.619224   -0.594312   -0.802043
     14          6           0       -3.775831   -2.023091   -0.354484
     15          6           0       -1.202503   -0.770253   -0.439036
     16          6           0       -5.193738   -2.327065    0.115648
     17          1           0       -5.457421   -1.709399    0.978430
     18          1           0       -5.922030   -2.128402   -0.673850
     19          1           0       -5.293428   -3.374710    0.408147
     20          6           0        2.601024   -0.341741   -0.102686
     21          6           0        2.191367   -2.917461    0.896837
     22          1           0        1.962826   -3.983165    0.972764
     23          1           0        2.353368   -2.544313    1.925146
     24          6           0        3.439592   -2.704253    0.060979
     25          1           0        3.320742   -3.233570   -0.889349
     26          6           0        3.665336   -1.237040   -0.192916
     27          1           0        4.310679   -3.130718    0.565060
     28          6           0        4.939315   -0.755578   -0.489720
     29          1           0        5.764019   -1.457483   -0.556791
     30          6           0        2.842092    1.021592   -0.276445
     31          1           0        2.026739    1.728223   -0.171421
     32          6           0        5.166841    0.595129   -0.686379
     33          1           0        6.164014    0.951423   -0.915432
     34          6           0        4.110524    1.490592   -0.569816
     35          1           0        4.276670    2.552879   -0.702809
     36         16           0       -2.280279    1.622726   -1.520698
     37          6           0       -1.454788    2.483977   -0.196504
     38          6           0       -1.603704    2.114911    1.136621
     39          6           0       -0.917190    2.804249    2.125874
     40          6           0       -0.097660    3.876025    1.799269
     41          6           0        0.034332    4.255665    0.470072
     42          6           0       -0.632204    3.558555   -0.526583
     43          1           0       -2.247798    1.285031    1.397169
     44          1           0       -1.029183    2.502717    3.160571
     45          1           0        0.435985    4.411074    2.574900
     46          1           0        0.672397    5.089721    0.203370
     47          1           0       -0.502653    3.835368   -1.566231
     48          1           0       -3.022284   -1.801388    1.651947
     49          1           0       -2.734914   -3.388406    0.955456
     50          1           0       -3.552485   -2.664475   -1.220435
     51          1           0       -4.499169   -0.037613   -1.104912
 ---------------------------------------------------------------------

 SCF Done:  E(RHF) =  -1380.48644738     A.U. after    2 cycles

 The electronic state is 1-A.
 Alpha  occ. eigenvalues --  -75.68748 -15.69974 -13.21240 -13.18586 -13.08859
 Alpha  occ. eigenvalues --  -11.52548 -11.52113 -11.50497 -11.49609 -11.47677
 Alpha  occ. eigenvalues --  -11.47220 -11.45849 -11.45025 -11.44962 -11.44671
 Alpha  occ. eigenvalues --  -11.43993 -11.43364 -11.42960 -11.42655 -11.41511
 Alpha  occ. eigenvalues --  -11.41496 -11.41367 -11.40598 -11.40318 -11.39118
 Alpha  occ. eigenvalues --  -11.38455 -11.36814 -11.36432 -11.35202  -8.02939
 Alpha  occ. eigenvalues --   -1.49587  -1.37762  -1.34537  -1.32100  -1.21325
 Alpha  occ. eigenvalues --   -1.20035  -1.15529  -1.13777  -1.10506  -1.09638
 Alpha  occ. eigenvalues --   -1.06869  -1.04706  -1.01276  -1.00203  -0.94123
 Alpha  occ. eigenvalues --   -0.90685  -0.87945  -0.87155  -0.86047  -0.84340
 Alpha  occ. eigenvalues --   -0.82541  -0.80128  -0.76719  -0.71418  -0.70268
 Alpha  occ. eigenvalues --   -0.68769  -0.66706  -0.65272  -0.64263  -0.63881
 Alpha  occ. eigenvalues --   -0.63511  -0.61025  -0.60140  -0.59396  -0.58678
 Alpha  occ. eigenvalues --   -0.58416  -0.57512  -0.56547  -0.55882  -0.55225
 Alpha  occ. eigenvalues --   -0.54582  -0.53474  -0.52908  -0.51803  -0.51466
 Alpha  occ. eigenvalues --   -0.51186  -0.49975  -0.48586  -0.48464  -0.47270
 Alpha  occ. eigenvalues --   -0.46374  -0.45411  -0.44832  -0.42896  -0.42218
 Alpha  occ. eigenvalues --   -0.39729  -0.38791  -0.37241  -0.36105  -0.33964
 Alpha  occ. eigenvalues --   -0.33343  -0.32157  -0.31081  -0.29810  -0.28787
 Alpha  occ. eigenvalues --   -0.21450
 Alpha virt. eigenvalues --    0.03762   0.04067   0.04342   0.04519   0.04971
 Alpha virt. eigenvalues --    0.05116   0.05326   0.05484   0.05792   0.05920
 Alpha virt. eigenvalues --    0.06086   0.06387   0.06564   0.06662   0.07087

 Mulliken charges:
               1
     1  C   -4.656617
     2  H    0.876098
     3  H    1.151027
     4  C    4.379009
     5  C   -6.132402
     6  H    1.071477
     7  H    2.222741
     8  C   -3.735869
     9  H    2.072798
    10  N   -2.650862
    11  C    3.273315
    12  C   -5.815565
    13  C   -4.108288
    14  C   -2.864877
    15  C    7.440202
    16  C   -5.418660
    17  H    1.363472
    18  H    1.238620
    19  H    1.305864
    20  C    7.456540
    21  C   -5.127686
    22  H    1.672466
    23  H    1.732980
    24  C   -6.029623
    25  H    0.933814
    26  C    5.474031
    27  H    0.979510
    28  C   -3.410319
    29  H    1.809199
    30  C    0.793318
    31  H    2.175517
    32  C   -2.801562
    33  H    1.582246
    34  C   -5.004430
    35  H    1.589931
    36  S    0.319742
    37  C    2.370898
    38  C   -3.369333
    39  C   -2.063857
    40  C   -2.464337
    41  C   -1.938189
    42  C   -3.571122
    43  H    2.740168
    44  H    1.734029
    45  H    1.704083
    46  H    1.677063
    47  H    1.899988
    48  H    1.153771
    49  H    1.325407
    50  H    1.689657
    51  H    1.954618
 Sum of Mulliken charges =  -0.00000

 Dipole moment (field-independent basis, Debye):
    X=             -0.5867    Y=             -0.8386    Z=              0.0619  Tot=              1.0253

 Test job not archived.
 1\1\GINC-SE396\SP\RHF\Aug-CC-pVDZ\C24H25N1S1\OHZDE\09-Apr-2025\0\\#t h
 f aug-cc-pvdz iop(5/13=1,5/36=2,99/5=2) pseudo=read geom=check guess=(
 read,tcheck) scf=(maxcycle=1)\\title\\0,1\C,0,-0.199254,-2.655136,0.82
 9955\H,0,-0.354401,-3.717809,0.614765\H,0,-0.195805,-2.564071,1.937088
 \C,0,-1.362581,-1.867967,0.308157\C,0,0.176767,-0.289283,-0.796537\H,0
 ,0.460703,-0.639668,-1.793358\H,0,0.202414,0.795538,-0.82709\C,0,1.194
 909,-0.803142,0.217112\H,0,0.927761,-0.375375,1.203306\N,0,1.070618,-2
 .255199,0.261586\C,0,-2.411991,-0.024312,-0.855574\C,0,-2.737533,-2.31

 Normal termination of Gaussian 16 at Wed Apr  9 03:28:01 2025.
