 Gaussian 16, Revision C.01,

 ----------------------------------------------------------------------
 #t hf aug-cc-pvdz symm=none int=(grid=ultrafine) guess=(read,tcheck) s
 table=(opt,rrhf)
 ----------------------------------------------------------------------
 -----
 title
 -----
 Symbolic Z-matrix:
 Charge =  0 Multiplicity = 1

 SCF Done:  E(RHF) =  -1035.31447795     A.U. after   15 cycles
 Normal termination of Gaussian 16 at Wed Apr  9 01:50:58 2025.
 Gaussian 16:  ES64L-G16RevC.01  3-Jul-2019

 ----------------------------------------------------------------------
 #t hf aug-cc-pvdz iop(5/13=1,5/36=2,99/5=2) pseudo=read geom=check gue
 ss=(read,tcheck) scf=(maxcycle=1)
 ----------------------------------------------------------------------
 -----
 title
 -----
 Structure from the checkpoint file:  "BH10_289_forward_mol2.chk"
 Charge =  0 Multiplicity = 1

                         Standard orientation:
 ---------------------------------------------------------------------
 Center     Atomic      Atomic             Coordinates (Angstroms)
 Number     Number       Type             X           Y           Z
 ---------------------------------------------------------------------
      1          6           0       -1.527963   -2.295721   -0.562245
      2          1           0       -2.259279   -2.677975    0.145096
      3          1           0       -0.871262   -0.893044    0.953330
      4          6           0        0.733656   -2.543045   -0.725713
      5          8           0        1.797867   -3.068374   -0.864529
      6          6           0        2.005034    0.543294   -1.187258
      7          8           0        2.990989    1.418505   -0.869191
      8          8           0        1.777798   -0.226679    1.043826
      9          1           0        3.271272   -1.256130    3.653891
     10          1           0        2.209482    0.162555    3.576102
     11          1           0        3.840447   -1.803660   -0.003910
     12          1           0        4.974338   -1.516639    1.336919
     13          6           0        1.890324    3.595247   -0.922784
     14          1           0        1.350175    2.442127    0.753103
     15          1           0        1.740145    4.523997   -1.467870
     16          1           0       -1.588266    0.169838   -1.813029
     17          6           0       -2.944148    0.465138   -0.170456
     18          6           0       -4.389713    1.101525    1.659955
     19          6           0       -5.345456    0.277725   -0.380755
     20          1           0       -3.952944   -0.240724   -1.926480
     21          1           0       -6.500326    0.877837    1.326629
     22          1           0       -2.251036    1.228742    1.711852
     23          1           0       -1.980740   -2.220782   -1.554255
     24          6           0       -0.893641   -0.972928   -0.139505
     25          7           0        0.466283   -1.184168   -0.640310
     26          8           0       -0.434582   -3.219642   -0.631665
     27          6           0        1.486185   -0.281330   -0.289046
     28          1           0        1.674770    0.509788   -2.219838
     29          5           0        3.007472   -0.529233    1.603722
     30          6           0        3.101067   -0.298914    3.148581
     31          1           0        3.970428    0.320453    3.391621
     32          6           0        4.183154   -1.071134    0.731463
     33          1           0        4.622747   -0.240193    0.168937
     34          6           0        2.906914    2.673042   -1.526335
     35          6           0        1.209953    3.355621    0.187282
     36          1           0        0.496234    4.075738    0.567522
     37          6           0       -1.557283    0.266845   -0.724853
     38          1           0       -0.933531    1.134594   -0.497457
     39          6           0       -3.119897    0.954509    1.122753
     40          6           0       -5.507744    0.761422    0.909019
     41          6           0       -4.071584    0.131146   -0.914538
     42          1           0       -6.212066    0.015973   -0.975947
     43          1           0       -4.508098    1.486433    2.665752
     44          1           0        3.904285    3.112598   -1.457345
     45          1           0        2.692173    2.518698   -2.591991
 ---------------------------------------------------------------------

 SCF Done:  E(RHF) =  -1040.08703813     A.U. after    2 cycles

 The electronic state is 1-A.
 Alpha  occ. eigenvalues --  -21.09158 -21.07891 -21.04663 -21.03390 -15.75661
 Alpha  occ. eigenvalues --  -11.55974 -11.53512 -11.53132 -11.50864 -11.48207
 Alpha  occ. eigenvalues --  -11.46541 -11.44707 -11.44655 -11.43513 -11.42774
 Alpha  occ. eigenvalues --  -11.41868 -11.41621 -11.41419 -11.38593 -11.37110
 Alpha  occ. eigenvalues --  -11.32836 -11.31367  -7.60930  -1.86656  -1.82628
 Alpha  occ. eigenvalues --   -1.78225  -1.67327  -1.44951  -1.36219  -1.20555
 Alpha  occ. eigenvalues --   -1.19128  -1.12725  -1.10174  -1.09368  -1.06745
 Alpha  occ. eigenvalues --   -1.00409  -0.99871  -0.98747  -0.89299  -0.87531
 Alpha  occ. eigenvalues --   -0.86833  -0.83471  -0.79193  -0.77562  -0.73548
 Alpha  occ. eigenvalues --   -0.71183  -0.70003  -0.67927  -0.67562  -0.65333
 Alpha  occ. eigenvalues --   -0.63469  -0.62687  -0.62422  -0.59963  -0.59243
 Alpha  occ. eigenvalues --   -0.58783  -0.58013  -0.56824  -0.56240  -0.55273
 Alpha  occ. eigenvalues --   -0.54840  -0.54374  -0.53591  -0.52014  -0.51815
 Alpha  occ. eigenvalues --   -0.50740  -0.50536  -0.49749  -0.48918  -0.47231
 Alpha  occ. eigenvalues --   -0.44925  -0.43979  -0.42796  -0.41730  -0.41309
 Alpha  occ. eigenvalues --   -0.39256  -0.36532  -0.36058  -0.34117  -0.33281
 Alpha  occ. eigenvalues --   -0.32788  -0.31574  -0.29811  -0.27277
 Alpha virt. eigenvalues --    0.03107   0.03710   0.03919   0.04382   0.04643
 Alpha virt. eigenvalues --    0.05102   0.05146   0.05432   0.05700   0.06024
 Alpha virt. eigenvalues --    0.06259   0.06415   0.06922   0.07427   0.08028

 Mulliken charges:
               1
     1  C   -1.989357
     2  H    1.578719
     3  H    2.426073
     4  C    6.891587
     5  O   -3.765737
     6  C    2.262838
     7  O   -4.068386
     8  O   -8.650718
     9  H    0.929033
    10  H    1.331188
    11  H    1.056101
    12  H    1.406376
    13  C   -1.053892
    14  H    2.449688
    15  H    1.510357
    16  H    1.200645
    17  C    6.211677
    18  C   -2.704050
    19  C   -2.112055
    20  H    1.863712
    21  H    1.568549
    22  H    1.990071
    23  H    1.690881
    24  C   -1.928506
    25  N   -2.490642
    26  O   -3.840041
    27  C    4.823014
    28  H    2.339414
    29  B   11.483622
    30  C   -6.912480
    31  H    0.892463
    32  C   -6.999737
    33  H    1.326999
    34  C   -2.918829
    35  C   -3.477281
    36  H    1.370215
    37  C   -5.779493
    38  H    2.105756
    39  C   -1.487043
    40  C   -3.126590
    41  C   -3.156157
    42  H    1.532924
    43  H    1.535960
    44  H    1.303517
    45  H    1.379613
 Sum of Mulliken charges =  -0.00000

 Dipole moment (field-independent basis, Debye):
    X=             -1.9901    Y=              3.1794    Z=             -0.2981  Tot=              3.7627

 Test job not archived.
 1\1\GINC-SE419\SP\RHF\Aug-CC-pVDZ\C17H22B1N1O4\OHZDE\09-Apr-2025\0\\#t
  hf aug-cc-pvdz iop(5/13=1,5/36=2,99/5=2) pseudo=read geom=check guess
 =(read,tcheck) scf=(maxcycle=1)\\title\\0,1\C,0,-1.527963,-2.295721,-0
 .562245\H,0,-2.259279,-2.677975,0.145096\H,0,-0.871262,-0.893044,0.953
 33\C,0,0.733656,-2.543045,-0.725713\O,0,1.797867,-3.068374,-0.864529\C
 ,0,2.005034,0.543294,-1.187258\O,0,2.990989,1.418505,-0.869191\O,0,1.7
 77798,-0.226679,1.043826\H,0,3.271272,-1.25613,3.653891\H,0,2.209482,0
 .162555,3.576102\H,0,3.840447,-1.80366,-0.00391\H,0,4.974338,-1.516639

 Normal termination of Gaussian 16 at Wed Apr  9 01:53:01 2025.
