 Gaussian 16, Revision C.01,

 ----------------------------------------------------------------------
 #t hf aug-cc-pvdz symm=none int=(grid=ultrafine) guess=(read,tcheck) s
 table=(opt,rrhf)
 ----------------------------------------------------------------------
 -----
 title
 -----
 Symbolic Z-matrix:
 Charge =  1 Multiplicity = 1

 SCF Done:  E(RHF) =  -459.771694170     A.U. after   15 cycles
 Normal termination of Gaussian 16 at Wed Apr  9 00:55:45 2025.
 Gaussian 16:  ES64L-G16RevC.01  3-Jul-2019

 ----------------------------------------------------------------------
 #t hf aug-cc-pvdz iop(5/13=1,5/36=2,99/5=2) pseudo=read geom=check gue
 ss=(read,tcheck) scf=(maxcycle=1)
 ----------------------------------------------------------------------
 -----
 title
 -----
 Structure from the checkpoint file:  "BH10-RE_126_mol2.chk"
 Charge =  1 Multiplicity = 1

                         Standard orientation:
 ---------------------------------------------------------------------
 Center     Atomic      Atomic             Coordinates (Angstroms)
 Number     Number       Type             X           Y           Z
 ---------------------------------------------------------------------
      1          6           0       -0.929434    0.282921   -0.000001
      2          6           0       -0.040676    1.379010   -0.000035
      3          6           0        1.302991    1.161922   -0.000038
      4          7           0        1.736506   -0.111756   -0.000007
      5          6           0        0.955057   -1.196085    0.000027
      6          6           0       -0.402758   -1.022902    0.000031
      7          9           0        3.070203   -0.309615   -0.000010
      8          8           0       -2.202490    0.573467   -0.000001
      9          1           0       -0.432456    2.386647   -0.000060
     10          1           0        2.064341    1.930138   -0.000063
     11          1           0        1.459434   -2.153228    0.000050
     12          1           0       -1.034200   -1.898260    0.000059
     13          6           0       -3.196646   -0.468406    0.000026
     14          1           0       -4.149955    0.049372    0.000009
     15          1           0       -3.102912   -1.076149    0.900638
     16          1           0       -3.102908   -1.076200   -0.900551
 ---------------------------------------------------------------------

 SCF Done:  E(RHF) =  -461.743302906     A.U. after    2 cycles

 The electronic state is 1-A.
 Alpha  occ. eigenvalues --  -29.51080 -21.27085 -16.07321 -11.72882 -11.69073
 Alpha  occ. eigenvalues --  -11.68585 -11.61531 -11.59859 -11.57333  -1.99702
 Alpha  occ. eigenvalues --   -1.78423  -1.41855  -1.36445  -1.20409  -1.14509
 Alpha  occ. eigenvalues --   -1.08979  -1.02272  -0.88967  -0.87873  -0.84863
 Alpha  occ. eigenvalues --   -0.84003  -0.82253  -0.78892  -0.75105  -0.72573
 Alpha  occ. eigenvalues --   -0.68287  -0.68164  -0.59930  -0.57654  -0.56760
 Alpha  occ. eigenvalues --   -0.52810  -0.48745  -0.41344
 Alpha virt. eigenvalues --   -0.08768  -0.07493  -0.06606  -0.05349  -0.04814
 Alpha virt. eigenvalues --   -0.03991  -0.03314  -0.03264  -0.03137  -0.01453
 Alpha virt. eigenvalues --   -0.00453  -0.00205   0.00846   0.01056   0.01426

 Mulliken charges:
               1
     1  C    5.997368
     2  C   -1.374533
     3  C   -0.965839
     4  N   -1.825072
     5  C   -1.500261
     6  C   -1.372537
     7  F   -0.181279
     8  O   -4.524437
     9  H    1.725895
    10  H    1.395391
    11  H    1.445633
    12  H    1.709766
    13  C   -3.763819
    14  H    1.420767
    15  H    1.406479
    16  H    1.406477
 Sum of Mulliken charges =   1.00000

 Dipole moment (field-independent basis, Debye):
    X=              2.1994    Y=             -0.7564    Z=              0.0000  Tot=              2.3258

 Test job not archived.
 1\1\GINC-SE403\SP\RHF\Aug-CC-pVDZ\C6H7F1N1O1(1+)\OHZDE\09-Apr-2025\0\\
 #t hf aug-cc-pvdz iop(5/13=1,5/36=2,99/5=2) pseudo=read geom=check gue
 ss=(read,tcheck) scf=(maxcycle=1)\\title\\1,1\C,0,-0.929434,0.282921,-
 0.000001\C,0,-0.040676,1.37901,-0.000035\C,0,1.302991,1.161922,-0.0000
 38\N,0,1.736506,-0.111756,-0.000007\C,0,0.955057,-1.196085,0.000027\C,
 0,-0.402758,-1.022902,0.000031\F,0,3.070203,-0.309615,-0.00001\O,0,-2.
 20249,0.573467,-0.000001\H,0,-0.432456,2.386647,-0.00006\H,0,2.064341,
 1.930138,-0.000063\H,0,1.459434,-2.153228,0.00005\H,0,-1.0342,-1.89826

 Normal termination of Gaussian 16 at Wed Apr  9 00:55:51 2025.
