 Gaussian 16, Revision C.01,

 ----------------------------------------------------------------------
 #t hf aug-cc-pvdz symm=none int=(grid=ultrafine) guess=(read,tcheck) s
 table=opt
 ----------------------------------------------------------------------
 -----
 title
 -----
 Symbolic Z-matrix:
 Charge =  0 Multiplicity = 2

 SCF Done:  E(UHF) =  -1465.25667415     A.U. after   26 cycles

 1\1\GINC-SE396\Stability\UHF\Aug-CC-pVDZ\C7H13S3\OHZDE\09-Apr-2025\0\\
 #t hf aug-cc-pvdz symm=none int=(grid=ultrafine) guess=(read,tcheck) s
 table=opt\\title\\0,2\C,0,-0.000741,-0.613596,0.488632\H,0,0.325088,-0
 .299122,1.484572\H,0,-0.164122,-1.695266,0.543243\C,0,-1.305519,0.0755
 25,0.11099\H,0,-1.138309,1.154662,0.033144\C,0,-3.737675,0.470855,0.73
 5013\H,0,-4.480641,0.360221,1.532467\H,0,-1.625414,-0.268196,-0.878819
 \H,0,-3.614366,1.549968,0.596869\C,0,-2.420347,-0.192141,1.114163\H,0,
 -2.577898,-1.269826,1.217616\H,0,-2.118984,0.180111,2.099986\C,0,1.125

 Normal termination of Gaussian 16 at Wed Apr  9 01:04:13 2025.
 Gaussian 16:  ES64L-G16RevC.01  3-Jul-2019

 ----------------------------------------------------------------------
 #t hf aug-cc-pvdz iop(5/13=1,5/36=2,99/5=2) pseudo=read geom=check gue
 ss=(read,tcheck) scf=(maxcycle=1)
 ----------------------------------------------------------------------
 -----
 title
 -----
 Structure from the checkpoint file:  "BH10_168_forward_mol2.chk"
 Charge =  0 Multiplicity = 2

                         Standard orientation:
 ---------------------------------------------------------------------
 Center     Atomic      Atomic             Coordinates (Angstroms)
 Number     Number       Type             X           Y           Z
 ---------------------------------------------------------------------
      1          6           0       -0.000741   -0.613596    0.488632
      2          1           0        0.325088   -0.299122    1.484572
      3          1           0       -0.164122   -1.695266    0.543243
      4          6           0       -1.305519    0.075525    0.110990
      5          1           0       -1.138309    1.154662    0.033144
      6          6           0       -3.737675    0.470855    0.735013
      7          1           0       -4.480641    0.360221    1.532467
      8          1           0       -1.625414   -0.268196   -0.878819
      9          1           0       -3.614366    1.549968    0.596869
     10          6           0       -2.420347   -0.192141    1.114163
     11          1           0       -2.577898   -1.269826    1.217616
     12          1           0       -2.118984    0.180111    2.099986
     13          6           0        1.125446   -0.351379   -0.505038
     14          6           0        3.110246    1.102969    0.579284
     15          6           0        3.818648   -0.144094    0.089892
     16          1           0        3.751518    1.983005    0.517820
     17          1           0        2.769499    0.986080    1.608498
     18          1           0        4.340110    0.050754   -0.846430
     19          1           0        4.531170   -0.516054    0.827565
     20         16           0        1.699458    1.384816   -0.528656
     21         16           0        2.566158   -1.445587   -0.153915
     22         16           0       -4.535746   -0.173064   -0.748428
     23          1           0        0.784078   -0.563812   -1.518160
 ---------------------------------------------------------------------

 SCF Done:  E(UHF) =  -1467.30173328     A.U. after    2 cycles

 The electronic state is 2-A.
 Alpha  occ. eigenvalues --  -75.70015 -75.68101 -75.67728 -13.15622 -13.14254
 Alpha  occ. eigenvalues --  -13.12175 -13.11829 -13.09571 -13.06321 -13.05707
 Alpha  occ. eigenvalues --  -13.03939 -13.02615 -11.46381 -11.44454 -11.43720
 Alpha  occ. eigenvalues --  -11.41871 -11.39620 -11.39282 -11.35831  -8.03643
 Alpha  occ. eigenvalues --   -8.02307  -8.01768  -1.35908  -1.27126  -1.17683
 Alpha  occ. eigenvalues --   -1.10631  -1.09362  -1.01031  -0.91452  -0.85645
 Alpha  occ. eigenvalues --   -0.83161  -0.81570  -0.67314  -0.65456  -0.63437
 Alpha  occ. eigenvalues --   -0.62811  -0.61028  -0.55777  -0.54454  -0.53541
 Alpha  occ. eigenvalues --   -0.52258  -0.48126  -0.47459  -0.43027  -0.41277
 Alpha  occ. eigenvalues --   -0.40360  -0.39872  -0.32511  -0.29009  -0.24402
 Alpha  occ. eigenvalues --   -0.23083  -0.22486
 Alpha virt. eigenvalues --    0.03181   0.03731   0.04600   0.04857   0.05270
 Alpha virt. eigenvalues --    0.05457   0.05812   0.06360   0.07460   0.07575
 Alpha virt. eigenvalues --    0.07984   0.08464   0.09213   0.10056   0.11172

  Beta  occ. eigenvalues --  -75.69035 -75.68101 -75.67728 -13.15620 -13.14241
  Beta  occ. eigenvalues --  -13.12098 -13.11310 -13.09570 -13.05724 -13.04145
  Beta  occ. eigenvalues --  -13.02609 -12.99641 -11.46383 -11.44456 -11.43752
  Beta  occ. eigenvalues --  -11.41913 -11.39620 -11.39312 -11.35834  -8.02547
  Beta  occ. eigenvalues --   -8.02307  -8.01768  -1.35848  -1.26283  -1.16319
  Beta  occ. eigenvalues --   -1.10629  -1.07469  -0.98697  -0.89429  -0.85576
  Beta  occ. eigenvalues --   -0.81814  -0.81427  -0.67233  -0.65338  -0.63384
  Beta  occ. eigenvalues --   -0.61885  -0.60902  -0.55630  -0.54374  -0.53306
  Beta  occ. eigenvalues --   -0.52084  -0.48014  -0.47277  -0.43014  -0.41272
  Beta  occ. eigenvalues --   -0.40223  -0.39173  -0.32509  -0.23420  -0.22777
  Beta  occ. eigenvalues --   -0.22220
  Beta virt. eigenvalues --    0.03137   0.03735   0.04130   0.04656   0.05127
  Beta virt. eigenvalues --    0.05272   0.05555   0.06318   0.06522   0.07483
  Beta virt. eigenvalues --    0.07663   0.08185   0.08480   0.09258   0.10080

 Mulliken charges and spin densities:
               1          2
     1  C   -2.082823  -0.012965
     2  H    1.796825  -0.000590
     3  H    1.603986  -0.000688
     4  C   -2.874096  -0.020345
     5  H    1.660949  -0.003536
     6  C   -4.370015  -0.128570
     7  H    1.294666   0.008271
     8  H    1.554342  -0.002703
     9  H    1.551780   0.002580
    10  C   -2.348635   0.009441
    11  H    1.415124   0.000741
    12  H    1.429188   0.005414
    13  C   -3.432369  -0.011587
    14  C   -3.875569   0.000122
    15  C   -3.489847   0.000123
    16  H    1.405589   0.000014
    17  H    1.507380   0.000006
    18  H    1.551596   0.000000
    19  H    1.395526   0.000055
    20  S    0.924008  -0.000929
    21  S    0.889581   0.000068
    22  S    0.547792   1.156739
    23  H    1.945022  -0.001660
 Sum of Mulliken charges =  -0.00000   1.00000

 Dipole moment (field-independent basis, Debye):
    X=              0.0911    Y=              0.4217    Z=             -0.0334  Tot=              0.4328
                          Isotropic Fermi Contact Couplings
        Atom                 a.u.       MegaHertz       Gauss      10(-4) cm-1
     1  C(13)             -0.00008      -0.09393      -0.03352      -0.03133
     2  H(1)               0.00012       0.55582       0.19833       0.18540
     3  H(1)               0.00001       0.04167       0.01487       0.01390
     4  C(13)             -0.00028      -0.31002      -0.11062      -0.10341
     5  H(1)              -0.00000      -0.00011      -0.00004      -0.00004
     6  C(13)             -0.01637     -18.40134      -6.56606      -6.13803
     7  H(1)               0.01287      57.53912      20.53139      19.19298
     8  H(1)               0.00037       1.66392       0.59373       0.55502

 Normal termination of Gaussian 16 at Wed Apr  9 01:04:31 2025.
