 Gaussian 16, Revision C.01,

 ----------------------------------------------------------------------
 #t hf aug-cc-pvdz symm=none int=(grid=ultrafine) guess=(read,tcheck) s
 table=(opt,rrhf)
 ----------------------------------------------------------------------
 -----
 title
 -----
 Symbolic Z-matrix:
 Charge =  0 Multiplicity = 1

 SCF Done:  E(RHF) =  -1123.51163890     A.U. after   18 cycles
 Normal termination of Gaussian 16 at Wed Apr  9 02:05:10 2025.
 Gaussian 16:  ES64L-G16RevC.01  3-Jul-2019

 ----------------------------------------------------------------------
 #t hf aug-cc-pvdz iop(5/13=1,5/36=2,99/5=2) pseudo=read geom=check gue
 ss=(read,tcheck) scf=(maxcycle=1)
 ----------------------------------------------------------------------
 -----
 title
 -----
 Structure from the checkpoint file:  "BH10_330_reverse_mol3.chk"
 Charge =  0 Multiplicity = 1

                         Standard orientation:
 ---------------------------------------------------------------------
 Center     Atomic      Atomic             Coordinates (Angstroms)
 Number     Number       Type             X           Y           Z
 ---------------------------------------------------------------------
      1          6           0        1.724889   -1.255180   -0.000010
      2          6           0        1.397623    0.106163    0.000000
      3          6           0        2.422339    1.055301    0.000000
      4          6           0        3.748632    0.662845   -0.000008
      5          6           0        4.047088   -0.708937   -0.000023
      6          6           0        3.054236   -1.667878   -0.000023
      7          1           0        2.176561    2.111535    0.000002
      8          1           0        5.085361   -1.022510   -0.000037
      9          1           0        3.307299   -2.721006   -0.000038
     10          6           0       -0.038729    0.319260    0.000004
     11          6           0       -0.735205    1.537033    0.000012
     12          6           0       -0.728670   -0.887971   -0.000003
     13          6           0       -2.114649    1.501936    0.000014
     14          1           0       -0.190869    2.469381    0.000016
     15          6           0       -2.128515   -0.911377   -0.000001
     16          6           0       -2.815977    0.283582    0.000008
     17          1           0       -3.894956    0.326608    0.000013
     18         16           0        0.312618   -2.296874   -0.000015
     19          8           0       -2.699691   -2.138058   -0.000005
     20          8           0       -2.910043    2.605571    0.000022
     21          6           0        4.862358    1.674900    0.000033
     22          1           0        5.499638    1.560292   -0.880299
     23          1           0        4.471428    2.693015   -0.000336
     24          1           0        5.499148    1.560750    0.880783
     25          6           0       -4.111741   -2.219052   -0.000049
     26          1           0       -4.351011   -3.279647   -0.000081
     27          1           0       -4.533219   -1.749567    0.893334
     28          1           0       -4.533166   -1.749523   -0.893433
     29          6           0       -2.287918    3.872861    0.000048
     30          1           0       -1.670951    4.012712   -0.893005
     31          1           0       -3.092899    4.604263    0.000065
     32          1           0       -1.670949    4.012673    0.893106
 ---------------------------------------------------------------------

 SCF Done:  E(RHF) =  -1127.13084231     A.U. after    2 cycles

 The electronic state is 1-A.
 Alpha  occ. eigenvalues --  -75.69740 -21.08090 -21.07553 -13.21308 -13.19998
 Alpha  occ. eigenvalues --  -13.02005 -11.55153 -11.51046 -11.49892 -11.47899
 Alpha  occ. eigenvalues --  -11.45280 -11.44637 -11.43794 -11.43010 -11.42744
 Alpha  occ. eigenvalues --  -11.42025 -11.41686 -11.41414 -11.39239 -11.38524
 Alpha  occ. eigenvalues --  -11.36604  -8.04086  -1.80913  -1.78644  -1.43046
 Alpha  occ. eigenvalues --   -1.29678  -1.21297  -1.13776  -1.11805  -1.06722
 Alpha  occ. eigenvalues --   -1.05935  -0.99849  -0.98543  -0.97459  -0.89841
 Alpha  occ. eigenvalues --   -0.83741  -0.81334  -0.80470  -0.69295  -0.68207
 Alpha  occ. eigenvalues --   -0.65630  -0.64393  -0.63264  -0.62958  -0.62570
 Alpha  occ. eigenvalues --   -0.61670  -0.60322  -0.58072  -0.57078  -0.56116
 Alpha  occ. eigenvalues --   -0.56115  -0.54076  -0.51644  -0.50856  -0.49732
 Alpha  occ. eigenvalues --   -0.45783  -0.45561  -0.44345  -0.42756  -0.41606
 Alpha  occ. eigenvalues --   -0.40402  -0.39003  -0.36327  -0.36296  -0.32174
 Alpha  occ. eigenvalues --   -0.28790  -0.27451  -0.19805
 Alpha virt. eigenvalues --    0.03138   0.04244   0.04643   0.05340   0.05390
 Alpha virt. eigenvalues --    0.05467   0.05982   0.06262   0.06388   0.07138
 Alpha virt. eigenvalues --    0.07142   0.08008   0.08123   0.08682   0.09616

 Mulliken charges:
               1
     1  C    2.639370
     2  C   -2.346739
     3  C   -0.471239
     4  C    3.209662
     5  C   -3.244447
     6  C   -5.335655
     7  H    1.813305
     8  H    1.885904
     9  H    1.773317
    10  C   -1.671541
    11  C   -2.809094
    12  C    0.222474
    13  C    8.638243
    14  H    2.471791
    15  C    4.895252
    16  C   -4.305681
    17  H    2.224936
    18  S    2.047524
    19  O   -4.940114
    20  O   -5.232128
    21  C   -5.685545
    22  H    1.094717
    23  H    1.317372
    24  H    1.094774
    25  C   -3.849432
    26  H    1.540938
    27  H    1.357470
    28  H    1.357444
    29  C   -3.861449
    30  H    1.348841
    31  H    1.470896
    32  H    1.348834
 Sum of Mulliken charges =   0.00000

 Dipole moment (field-independent basis, Debye):
    X=             -1.2278    Y=             -1.0778    Z=              0.0000  Tot=              1.6337

 Test job not archived.
 1\1\GINC-SE112\SP\RHF\Aug-CC-pVDZ\C15H14O2S1\OHZDE\09-Apr-2025\0\\#t h
 f aug-cc-pvdz iop(5/13=1,5/36=2,99/5=2) pseudo=read geom=check guess=(
 read,tcheck) scf=(maxcycle=1)\\title\\0,1\C,0,1.724889,-1.25518,-0.000
 01\C,0,1.397623,0.106163,0.\C,0,2.422339,1.055301,0.\C,0,3.748632,0.66
 2845,-0.000008\C,0,4.047088,-0.708937,-0.000023\C,0,3.054236,-1.667878
 ,-0.000023\H,0,2.176561,2.111535,0.000002\H,0,5.085361,-1.02251,-0.000
 037\H,0,3.307299,-2.721006,-0.000038\C,0,-0.038729,0.31926,0.000004\C,
 0,-0.735205,1.537033,0.000012\C,0,-0.72867,-0.887971,-0.000003\C,0,-2.

 Normal termination of Gaussian 16 at Wed Apr  9 02:06:00 2025.
