 Gaussian 16, Revision C.01,

 ----------------------------------------------------------------------
 #t hf aug-cc-pvdz symm=none int=(grid=ultrafine) guess=(read,tcheck) s
 table=(opt,rrhf)
 ----------------------------------------------------------------------
 -----
 title
 -----
 Symbolic Z-matrix:
 Charge = -1 Multiplicity = 1

 SCF Done:  E(RHF) =  -1024.35313574     A.U. after   13 cycles
 Normal termination of Gaussian 16 at Wed Apr  9 01:51:23 2025.
 Gaussian 16:  ES64L-G16RevC.01  3-Jul-2019

 ----------------------------------------------------------------------
 #t hf aug-cc-pvdz iop(5/13=1,5/36=2,99/5=2) pseudo=read geom=check gue
 ss=(read,tcheck) scf=(maxcycle=1)
 ----------------------------------------------------------------------
 -----
 title
 -----
 Structure from the checkpoint file:  "BH10_328_reverse_mol3.chk"
 Charge = -1 Multiplicity = 1

                         Standard orientation:
 ---------------------------------------------------------------------
 Center     Atomic      Atomic             Coordinates (Angstroms)
 Number     Number       Type             X           Y           Z
 ---------------------------------------------------------------------
      1          8           0        2.141791    0.612321   -0.939810
      2         15           0        1.964502   -0.577876   -0.017879
      3          8           0        2.831974   -1.773916   -0.018348
      4          8           0        1.883446    0.032779    1.508659
      5          8           0        0.399689   -1.097711   -0.254679
      6          6           0       -0.540532   -0.199192   -0.809021
      7          6           0       -1.047543    0.844494    0.217070
      8          8           0       -2.474284    0.759685    0.200882
      9          6           0       -2.821131   -0.583598   -0.133091
     10          6           0       -1.809483   -0.955648   -1.216062
     11          1           0       -2.161651   -0.603396   -2.187725
     12          1           0       -1.605309   -2.023939   -1.280649
     13          1           0       -0.082421    0.301408   -1.663913
     14          1           0        1.638276    0.967629    1.468782
     15          6           0       -0.642013    2.281241   -0.072337
     16          1           0       -0.669663    0.562203    1.204885
     17          8           0        0.718863    2.523614    0.201231
     18          1           0       -1.228830    2.943614    0.568537
     19          1           0       -0.890859    2.521103   -1.115936
     20          1           0        1.285690    1.939905   -0.372492
     21          6           0       -2.755434   -1.497042    1.083752
     22          1           0       -3.845338   -0.544162   -0.512618
     23          1           0       -3.122444   -2.494142    0.825537
     24          1           0       -3.371927   -1.096057    1.891313
     25          1           0       -1.728062   -1.601731    1.437113
 ---------------------------------------------------------------------

 SCF Done:  E(RHF) =  -1027.58889545     A.U. after    2 cycles

 The electronic state is 1-A.
 Alpha  occ. eigenvalues -- -105.12446 -20.93064 -20.92368 -20.91779 -20.90325
 Alpha  occ. eigenvalues --  -20.83993 -20.83439 -11.42417 -11.34907 -11.33258
 Alpha  occ. eigenvalues --  -11.31011 -11.27879 -11.25696  -2.75204  -1.81280
 Alpha  occ. eigenvalues --   -1.71866  -1.69521  -1.65778  -1.56921  -1.52910
 Alpha  occ. eigenvalues --   -1.26548  -1.16857  -1.07423  -1.02718  -1.00381
 Alpha  occ. eigenvalues --   -0.92380  -0.80924  -0.71386  -0.70006  -0.59338
 Alpha  occ. eigenvalues --   -0.55541  -0.52769  -0.49010  -0.48594  -0.46540
 Alpha  occ. eigenvalues --   -0.44848  -0.43371  -0.40731  -0.38915  -0.38269
 Alpha  occ. eigenvalues --   -0.36910  -0.34893  -0.31706  -0.29114  -0.28013
 Alpha  occ. eigenvalues --   -0.24999  -0.20108  -0.19761  -0.18777  -0.17373
 Alpha  occ. eigenvalues --   -0.17166  -0.16030  -0.14459  -0.09935  -0.05542
 Alpha  occ. eigenvalues --    0.03943
 Alpha virt. eigenvalues --    0.11358   0.12055   0.12539   0.12773   0.13171
 Alpha virt. eigenvalues --    0.13577   0.15958   0.16814   0.17002   0.17632
 Alpha virt. eigenvalues --    0.18223   0.18505   0.19817   0.21125   0.21550

 Mulliken charges:
               1
     1  O   -2.793154
     2  P    8.860785
     3  O   -2.882986
     4  O   -2.881527
     5  O   -4.642073
     6  C    2.042396
     7  C    0.074795
     8  O   -4.099927
     9  C    0.440948
    10  C   -4.686463
    11  H    1.152876
    12  H    1.565905
    13  H    2.409857
    14  H    1.130746
    15  C   -1.587260
    16  H    2.099938
    17  O   -2.935483
    18  H    1.270171
    19  H    1.388955
    20  H    1.434588
    21  C   -4.214600
    22  H    1.866025
    23  H    1.213973
    24  H    1.306635
    25  H    1.464881
 Sum of Mulliken charges =  -1.00000

 Dipole moment (field-independent basis, Debye):
    X=             -8.5844    Y=              1.1015    Z=              0.8347  Tot=              8.6950

 Test job not archived.
 1\1\GINC-SE094\SP\RHF\Aug-CC-pVDZ\C6H12O6P1(1-)\OHZDE\09-Apr-2025\0\\#
 t hf aug-cc-pvdz iop(5/13=1,5/36=2,99/5=2) pseudo=read geom=check gues
 s=(read,tcheck) scf=(maxcycle=1)\\title\\-1,1\O,0,2.141791,0.612321,-0
 .93981\P,0,1.964502,-0.577876,-0.017879\O,0,2.831974,-1.773916,-0.0183
 48\O,0,1.883446,0.032779,1.508659\O,0,0.399689,-1.097711,-0.254679\C,0
 ,-0.540532,-0.199192,-0.809021\C,0,-1.047543,0.844494,0.21707\O,0,-2.4
 74284,0.759685,0.200882\C,0,-2.821131,-0.583598,-0.133091\C,0,-1.80948
 3,-0.955648,-1.216062\H,0,-2.161651,-0.603396,-2.187725\H,0,-1.605309,

 Normal termination of Gaussian 16 at Wed Apr  9 01:51:46 2025.
