 Gaussian 16, Revision C.01,

 ----------------------------------------------------------------------
 #t hf aug-cc-pvdz symm=none int=(grid=ultrafine) guess=(read,tcheck) s
 table=opt
 ----------------------------------------------------------------------
 -----
 title
 -----
 Symbolic Z-matrix:
 Charge =  0 Multiplicity = 2

 SCF Done:  E(UHF) =  -709.182044527     A.U. after   25 cycles

 1\1\GINC-SE149\Stability\UHF\Aug-CC-pVDZ\C8H15S1\OHZDE\09-Apr-2025\0\\
 #t hf aug-cc-pvdz symm=none int=(grid=ultrafine) guess=(read,tcheck) s
 table=opt\\title\\0,2\C,0,0.938215,0.708224,0.342979\C,0,-0.331527,1.0
 7807,1.048094\C,0,-1.465209,1.538394,0.116175\H,0,-0.11232,1.898465,1.
 744206\H,0,-0.677429,0.240158,1.658306\C,0,-1.991746,0.438792,-0.81249
 9\H,0,-1.117402,2.381266,-0.487887\H,0,-2.28912,1.920626,0.72824\C,0,-
 2.721773,-0.64369,-0.076032\H,0,-1.167375,0.004453,-1.3848\H,0,-2.6749
 92,0.895227,-1.537067\C,0,-2.387238,-1.925816,-0.065016\S,0,1.284716,-

 Normal termination of Gaussian 16 at Wed Apr  9 01:12:59 2025.
 Gaussian 16:  ES64L-G16RevC.01  3-Jul-2019

 ----------------------------------------------------------------------
 #t hf aug-cc-pvdz iop(5/13=1,5/36=2,99/5=2) pseudo=read geom=check gue
 ss=(read,tcheck) scf=(maxcycle=1)
 ----------------------------------------------------------------------
 -----
 title
 -----
 Structure from the checkpoint file:  "BH10_27_forward_mol2.chk"
 Charge =  0 Multiplicity = 2

                         Standard orientation:
 ---------------------------------------------------------------------
 Center     Atomic      Atomic             Coordinates (Angstroms)
 Number     Number       Type             X           Y           Z
 ---------------------------------------------------------------------
      1          6           0        0.938215    0.708224    0.342979
      2          6           0       -0.331527    1.078070    1.048094
      3          6           0       -1.465209    1.538394    0.116175
      4          1           0       -0.112320    1.898465    1.744206
      5          1           0       -0.677429    0.240158    1.658306
      6          6           0       -1.991746    0.438792   -0.812499
      7          1           0       -1.117402    2.381266   -0.487887
      8          1           0       -2.289120    1.920626    0.728240
      9          6           0       -2.721773   -0.643690   -0.076032
     10          1           0       -1.167375    0.004453   -1.384800
     11          1           0       -2.674992    0.895227   -1.537067
     12          6           0       -2.387238   -1.925816   -0.065016
     13         16           0        1.284716   -0.994678    0.226302
     14          6           0        1.601925    1.705939   -0.546002
     15          1           0        1.221568    1.663208   -1.577658
     16          1           0        2.683806    1.571298   -0.600382
     17          1           0        1.416489    2.717577   -0.176232
     18          6           0        3.035518   -1.044139   -0.238714
     19          1           0        3.202696   -0.642692   -1.236732
     20          1           0        3.319359   -2.095711   -0.233019
     21          1           0        3.644292   -0.508867    0.489345
     22          1           0       -2.962035   -2.656398    0.491701
     23          1           0       -1.521414   -2.287765   -0.608758
     24          1           0       -3.590573   -0.320648    0.495999
 ---------------------------------------------------------------------

 SCF Done:  E(UHF) =  -710.997671141     A.U. after    2 cycles

 The electronic state is 2-A.
 Alpha  occ. eigenvalues --  -75.67413 -13.14497 -13.10344 -13.02657 -11.43747
 Alpha  occ. eigenvalues --  -11.43121 -11.40928 -11.39354 -11.39029 -11.37289
 Alpha  occ. eigenvalues --  -11.36247 -11.34923  -8.01681  -1.31285  -1.22455
 Alpha  occ. eigenvalues --   -1.13135  -1.07389  -0.99754  -0.95622  -0.86898
 Alpha  occ. eigenvalues --   -0.78171  -0.75027  -0.64337  -0.63864  -0.62135
 Alpha  occ. eigenvalues --   -0.59810  -0.58995  -0.57227  -0.55871  -0.55208
 Alpha  occ. eigenvalues --   -0.52142  -0.48513  -0.47731  -0.47013  -0.43392
 Alpha  occ. eigenvalues --   -0.41001  -0.37995  -0.33200  -0.32977  -0.18091
 Alpha virt. eigenvalues --    0.03442   0.04298   0.04956   0.05349   0.05592
 Alpha virt. eigenvalues --    0.05661   0.05891   0.06207   0.06839   0.07393
 Alpha virt. eigenvalues --    0.07949   0.08185   0.09257   0.09753   0.10256

  Beta  occ. eigenvalues --  -75.67397 -13.14789 -13.10459 -13.02136 -11.43718
  Beta  occ. eigenvalues --  -11.42779 -11.40334 -11.39312 -11.39056 -11.37150
  Beta  occ. eigenvalues --  -11.35656 -11.34625  -8.01662  -1.29230  -1.21671
  Beta  occ. eigenvalues --   -1.12591  -1.06541  -0.99434  -0.95160  -0.86279
  Beta  occ. eigenvalues --   -0.77780  -0.71525  -0.63386  -0.63243  -0.60784
  Beta  occ. eigenvalues --   -0.59607  -0.58624  -0.55706  -0.55348  -0.54515
  Beta  occ. eigenvalues --   -0.52010  -0.47911  -0.46707  -0.46395  -0.43254
  Beta  occ. eigenvalues --   -0.39914  -0.35055  -0.33027  -0.25151
  Beta virt. eigenvalues --    0.03292   0.04292   0.04969   0.05361   0.05539
  Beta virt. eigenvalues --    0.05663   0.05893   0.06186   0.06825   0.07392
  Beta virt. eigenvalues --    0.07772   0.08077   0.09276   0.09669   0.10214

 Mulliken charges and spin densities:
               1          2
     1  C    0.752134   1.679643
     2  C   -3.567388  -0.419343
     3  C   -2.537376   0.097338
     4  H    1.159951   0.010722
     5  H    1.912585  -0.005379
     6  C   -3.925250  -0.015012
     7  H    1.571248  -0.002935
     8  H    1.312294  -0.001051
     9  C   -0.306226   0.000709
    10  H    1.764909  -0.014264
    11  H    1.346426   0.000375
    12  C   -3.314884   0.003144
    13  S    1.340171   0.026283
    14  C   -4.905276  -0.364921
    15  H    1.282750   0.035729
    16  H    1.312541   0.014052
    17  H    1.347603   0.003800
    18  C   -5.244330  -0.037389
    19  H    1.547397  -0.005614
    20  H    1.280853  -0.004077
    21  H    1.483454   0.004944
    22  H    1.372694   0.000864
    23  H    1.622964  -0.007669
    24  H    1.390755   0.000053
 Sum of Mulliken charges =  -0.00000   1.00000

 Dipole moment (field-independent basis, Debye):
    X=              0.0930    Y=             -0.1443    Z=              0.0402  Tot=              0.1763
                          Isotropic Fermi Contact Couplings
        Atom                 a.u.       MegaHertz       Gauss      10(-4) cm-1
     1  C(13)              0.15795     177.56135      63.35830      59.22809
     2  C(13)             -0.03696     -41.55298     -14.82714     -13.86058
     3  C(13)              0.03259      36.63606      13.07266      12.22047
     4  H(1)               0.01177      52.63206      18.78043      17.55617
     5  H(1)               0.00143       6.41161       2.28782       2.13868
     6  C(13)             -0.00245      -2.75680      -0.98370      -0.91957
     7  H(1)              -0.00072      -3.23906      -1.15578      -1.08044
     8  H(1)              -0.00019      -0.83571      -0.29820      -0.27876

 Normal termination of Gaussian 16 at Wed Apr  9 01:13:16 2025.
