 Gaussian 16, Revision C.01,

 ----------------------------------------------------------------------
 #t hf aug-cc-pvdz symm=none int=(grid=ultrafine) guess=(read,tcheck) s
 table=(opt,rrhf)
 ----------------------------------------------------------------------
 -----
 title
 -----
 Symbolic Z-matrix:
 Charge =  0 Multiplicity = 1

 SCF Done:  E(RHF) =  -1273.89262509     A.U. after   16 cycles
 Normal termination of Gaussian 16 at Wed Apr  9 02:00:08 2025.
 Gaussian 16:  ES64L-G16RevC.01  3-Jul-2019

 ----------------------------------------------------------------------
 #t hf aug-cc-pvdz iop(5/13=1,5/36=2,99/5=2) pseudo=read geom=check gue
 ss=(read,tcheck) scf=(maxcycle=1)
 ----------------------------------------------------------------------
 -----
 title
 -----
 Structure from the checkpoint file:  "BH10_350_forward_mol1.chk"
 Charge =  0 Multiplicity = 1

                         Standard orientation:
 ---------------------------------------------------------------------
 Center     Atomic      Atomic             Coordinates (Angstroms)
 Number     Number       Type             X           Y           Z
 ---------------------------------------------------------------------
      1          7           0        0.839211    0.975724   -0.191824
      2          6           0        2.174649    0.627446    0.079378
      3          6           0        2.344840   -0.711393    0.063140
      4         16           0        0.827454   -1.498853   -0.289594
      5          6           0       -0.006894   -0.021015   -0.422702
      6          6           0        3.185528    1.691568    0.345872
      7          1           0        3.218482    2.424034   -0.463675
      8          1           0        4.177608    1.254940    0.438732
      9          1           0        2.971304    2.227966    1.273661
     10          6           0        3.585166   -1.505782    0.311057
     11          1           0        4.445274   -0.856056    0.469217
     12          1           0        3.810424   -2.157935   -0.535142
     13          1           0        3.477147   -2.137180    1.195613
     14          6           0        0.386493    2.365220   -0.234471
     15          1           0        0.837005    2.927016    0.581526
     16          1           0       -0.692064    2.366321   -0.103618
     17          1           0        0.657638    2.824752   -1.185856
     18          6           0       -1.955028   -0.371632   -0.683283
     19          8           0       -2.028606   -1.594966   -0.607580
     20          6           0       -2.215150    0.359451   -1.985267
     21          1           0       -1.638395   -0.111384   -2.781064
     22          1           0       -1.966533    1.419921   -1.925153
     23          1           0       -3.278113    0.258397   -2.216196
     24         16           0       -2.655929    0.654475    0.740825
     25          6           0       -2.392214   -0.540987    2.069225
     26          1           0       -2.464472   -1.534814    1.625559
     27          1           0       -3.173995   -0.410452    2.815224
     28          1           0       -1.415680   -0.413087    2.537184
 ---------------------------------------------------------------------

 SCF Done:  E(RHF) =  -1276.69490460     A.U. after    2 cycles

 The electronic state is 1-A.
 Alpha  occ. eigenvalues --  -75.71764 -75.64736 -20.97469 -15.81167 -13.20260
 Alpha  occ. eigenvalues --  -13.18847 -13.11301 -13.07206 -13.05578 -13.03794
 Alpha  occ. eigenvalues --  -11.49885 -11.48786 -11.44519 -11.43907 -11.43184
 Alpha  occ. eigenvalues --  -11.42680 -11.39770 -11.37032 -11.36695  -8.06401
 Alpha  occ. eigenvalues --   -7.98855  -1.66248  -1.55358  -1.26880  -1.18907
 Alpha  occ. eigenvalues --   -1.17297  -1.09697  -1.07821  -1.03324  -0.97843
 Alpha  occ. eigenvalues --   -0.91845  -0.82265  -0.75712  -0.72155  -0.67151
 Alpha  occ. eigenvalues --   -0.66610  -0.62489  -0.60952  -0.60616  -0.59943
 Alpha  occ. eigenvalues --   -0.59016  -0.58263  -0.56584  -0.55978  -0.55475
 Alpha  occ. eigenvalues --   -0.52700  -0.51893  -0.50664  -0.48532  -0.43228
 Alpha  occ. eigenvalues --   -0.42091  -0.38926  -0.36808  -0.34898  -0.29773
 Alpha  occ. eigenvalues --   -0.26332  -0.21466  -0.20345
 Alpha virt. eigenvalues --    0.01973   0.03873   0.04584   0.04757   0.04876
 Alpha virt. eigenvalues --    0.05592   0.05726   0.05830   0.06481   0.07408
 Alpha virt. eigenvalues --    0.07700   0.07891   0.08209   0.08874   0.09724

 Mulliken charges:
               1
     1  N   -5.841494
     2  C    3.366458
     3  C    1.807332
     4  S    1.428368
     5  C    3.238129
     6  C   -5.169508
     7  H    1.182928
     8  H    1.232909
     9  H    1.171912
    10  C   -5.905225
    11  H    1.276772
    12  H    1.297642
    13  H    1.280339
    14  C   -4.283315
    15  H    1.495489
    16  H    1.757138
    17  H    1.481940
    18  C    5.761826
    19  O   -3.949148
    20  C   -5.597050
    21  H    1.232642
    22  H    1.415468
    23  H    1.242032
    24  S    0.048140
    25  C   -5.250581
    26  H    1.425098
    27  H    1.375447
    28  H    1.478312
 Sum of Mulliken charges =   0.00000

 Dipole moment (field-independent basis, Debye):
    X=              5.2271    Y=              1.0453    Z=              0.4954  Tot=              5.3535

 Test job not archived.
 1\1\GINC-SE435\SP\RHF\Aug-CC-pVDZ\C9H15N1O1S2\OHZDE\09-Apr-2025\0\\#t
 hf aug-cc-pvdz iop(5/13=1,5/36=2,99/5=2) pseudo=read geom=check guess=
 (read,tcheck) scf=(maxcycle=1)\\title\\0,1\N,0,0.839211,0.975724,-0.19
 1824\C,0,2.174649,0.627446,0.079378\C,0,2.34484,-0.711393,0.06314\S,0,
 0.827454,-1.498853,-0.289594\C,0,-0.006894,-0.021015,-0.422702\C,0,3.1
 85528,1.691568,0.345872\H,0,3.218482,2.424034,-0.463675\H,0,4.177608,1
 .25494,0.438732\H,0,2.971304,2.227966,1.273661\C,0,3.585166,-1.505782,
 0.311057\H,0,4.445274,-0.856056,0.469217\H,0,3.810424,-2.157935,-0.535

 Normal termination of Gaussian 16 at Wed Apr  9 02:00:37 2025.
