 Gaussian 16, Revision C.01,

 ----------------------------------------------------------------------
 #t hf aug-cc-pvdz symm=none int=(grid=ultrafine) guess=(read,tcheck) s
 table=(opt,rrhf)
 ----------------------------------------------------------------------
 -----
 title
 -----
 Symbolic Z-matrix:
 Charge = -1 Multiplicity = 1

 SCF Done:  E(RHF) =  -1782.80676287     A.U. after   14 cycles
 Normal termination of Gaussian 16 at Wed Apr  9 02:14:53 2025.
 Gaussian 16:  ES64L-G16RevC.01  3-Jul-2019

 ----------------------------------------------------------------------
 #t hf aug-cc-pvdz iop(5/13=1,5/36=2,99/5=2) pseudo=read geom=check gue
 ss=(read,tcheck) scf=(maxcycle=1)
 ----------------------------------------------------------------------
 -----
 title
 -----
 Structure from the checkpoint file:  "BH10_328_forward_mol1.chk"
 Charge = -1 Multiplicity = 1

                         Standard orientation:
 ---------------------------------------------------------------------
 Center     Atomic      Atomic             Coordinates (Angstroms)
 Number     Number       Type             X           Y           Z
 ---------------------------------------------------------------------
      1          8           0       -0.449628   -1.501434   -1.351727
      2          6           0       -2.245193   -1.329613   -1.281172
      3          1           0       -2.297164   -0.278925   -1.489639
      4          1           0       -2.450135   -2.013999   -2.083825
      5          1           0       -2.384092   -1.689119   -0.278821
      6         15           0        0.311731   -0.642631   -0.346310
      7          8           0        0.031924    0.847407   -0.362180
      8          8           0        0.115780   -1.182519    1.146909
      9          8           0        1.861784   -0.934361   -0.627455
     10          6           0        2.848307   -0.289981    0.173890
     11          6           0        3.643723    0.763154   -0.604131
     12          8           0        4.944338    0.753955   -0.003451
     13          6           0        5.092729   -0.347809    0.902278
     14          6           0        3.922220   -1.271202    0.602370
     15          1           0        4.150363   -1.927269   -0.242239
     16          1           0        3.620437   -1.884263    1.451574
     17          1           0        2.374521    0.165089    1.048428
     18         16           0       -4.818304   -0.973992   -1.056276
     19          6           0       -4.951467   -0.648410    0.739142
     20          6           0       -4.420036    0.730481    1.188127
     21          1           0       -4.425258   -1.412701    1.313286
     22          1           0       -6.006022   -0.689980    1.019434
     23          7           0       -5.084232    1.789892    0.457870
     24          6           0       -2.901813    0.715481    1.107041
     25          1           0       -4.637487    0.824908    2.259900
     26          8           0       -2.243096   -0.088368    1.756616
     27          8           0       -2.364339    1.604758    0.305827
     28          1           0       -1.390661    1.406617    0.144014
     29          1           0       -0.695890   -0.781954    1.544716
     30          1           0       -5.181274    1.470854   -0.506345
     31          1           0       -4.515298    2.627090    0.440044
     32          6           0        3.106731    2.188907   -0.561216
     33          1           0        3.713395    0.443337   -1.649902
     34          8           0        2.020155    2.402064   -1.422325
     35          1           0        3.912231    2.851855   -0.884095
     36          1           0        2.863128    2.447915    0.479405
     37          1           0        1.238320    1.921943   -1.085330
     38          6           0        6.463710   -0.960958    0.721009
     39          1           0        5.003498    0.042701    1.925295
     40          1           0        6.611465   -1.784561    1.424654
     41          1           0        7.240856   -0.214326    0.893841
     42          1           0        6.572792   -1.343418   -0.296157
 ---------------------------------------------------------------------

 SCF Done:  E(RHF) =  -1787.90244511     A.U. after    2 cycles

 The electronic state is 1-A.
 Alpha  occ. eigenvalues -- -105.20744 -75.46383 -20.99134 -20.98025 -20.97638
 Alpha  occ. eigenvalues --  -20.95863 -20.94567 -20.93947 -20.92911 -20.91326
 Alpha  occ. eigenvalues --  -15.60793 -12.90685 -12.87994 -12.83817 -11.43711
 Alpha  occ. eigenvalues --  -11.43006 -11.40196 -11.37141 -11.35881 -11.34434
 Alpha  occ. eigenvalues --  -11.32883 -11.31779 -11.29204 -11.26240  -7.80041
 Alpha  occ. eigenvalues --   -2.83966  -1.86564  -1.84072  -1.80552  -1.72299
 Alpha  occ. eigenvalues --   -1.69273  -1.62332  -1.59271  -1.55278  -1.32740
 Alpha  occ. eigenvalues --   -1.24834  -1.23864  -1.17779  -1.11390  -1.05070
 Alpha  occ. eigenvalues --   -1.00782  -0.95152  -0.90720  -0.86650  -0.83877
 Alpha  occ. eigenvalues --   -0.76110  -0.75058  -0.73520  -0.65729  -0.61764
 Alpha  occ. eigenvalues --   -0.59381  -0.57201  -0.56317  -0.55957  -0.54668
 Alpha  occ. eigenvalues --   -0.53944  -0.52187  -0.51348  -0.50707  -0.49295
 Alpha  occ. eigenvalues --   -0.47484  -0.46601  -0.45923  -0.45134  -0.43276
 Alpha  occ. eigenvalues --   -0.42896  -0.41446  -0.40946  -0.40319  -0.39225
 Alpha  occ. eigenvalues --   -0.37101  -0.36334  -0.35295  -0.34115  -0.32802
 Alpha  occ. eigenvalues --   -0.30793  -0.30287  -0.27487  -0.26652  -0.25549
 Alpha  occ. eigenvalues --   -0.24559  -0.23801  -0.22519  -0.22157  -0.20890
 Alpha  occ. eigenvalues --   -0.19256  -0.17841  -0.17050  -0.13066  -0.09272
 Alpha  occ. eigenvalues --   -0.06733  -0.05342
 Alpha virt. eigenvalues --    0.09765   0.10576   0.10966   0.11092   0.11851
 Alpha virt. eigenvalues --    0.12003   0.12883   0.13193   0.13609   0.13997
 Alpha virt. eigenvalues --    0.14290   0.14387   0.14828   0.15082   0.15676

 Mulliken charges:
               1
     1  O   -3.814641
     2  C   -4.689764
     3  H    2.084469
     4  H    1.292770
     5  H    2.014756
     6  P   10.458751
     7  O   -4.220740
     8  O   -3.584139
     9  O   -4.515963
    10  C    1.847456
    11  C    0.045565
    12  O   -3.936949
    13  C    0.352236
    14  C   -4.369076
    15  H    1.631552
    16  H    1.443166
    17  H    2.174474
    18  S   -0.691881
    19  C   -3.937756
    20  C    0.687314
    21  H    1.495227
    22  H    1.303689
    23  N   -3.334650
    24  C    7.258686
    25  H    1.543219
    26  O   -3.925181
    27  O   -4.248765
    28  H    2.031331
    29  H    1.753129
    30  H    0.523254
    31  H    0.682182
    32  C   -0.823198
    33  H    2.050194
    34  O   -3.145565
    35  H    1.327255
    36  H    1.532240
    37  H    1.523092
    38  C   -4.347703
    39  H    1.772716
    40  H    1.248321
    41  H    1.198812
    42  H    1.310113
 Sum of Mulliken charges =  -1.00000

 Dipole moment (field-independent basis, Debye):
    X=             12.3943    Y=             -0.8822    Z=              1.3232  Tot=             12.4959

 Test job not archived.
 1\1\GINC-SE021\SP\RHF\Aug-CC-pVDZ\C10H21N1O8P1S1(1-)\OHZDE\09-Apr-2025
 \0\\#t hf aug-cc-pvdz iop(5/13=1,5/36=2,99/5=2) pseudo=read geom=check
  guess=(read,tcheck) scf=(maxcycle=1)\\title\\-1,1\O,0,-0.449628,-1.50
 1434,-1.351727\C,0,-2.245193,-1.329613,-1.281172\H,0,-2.297164,-0.2789
 25,-1.489639\H,0,-2.450135,-2.013999,-2.083825\H,0,-2.384092,-1.689119
 ,-0.278821\P,0,0.311731,-0.642631,-0.34631\O,0,0.031924,0.847407,-0.36
 218\O,0,0.11578,-1.182519,1.146909\O,0,1.861784,-0.934361,-0.627455\C,
 0,2.848307,-0.289981,0.17389\C,0,3.643723,0.763154,-0.604131\O,0,4.944

 Normal termination of Gaussian 16 at Wed Apr  9 02:16:24 2025.
