 Gaussian 16, Revision C.01,

 ----------------------------------------------------------------------
 #t hf aug-cc-pvdz symm=none int=(grid=ultrafine) guess=(read,tcheck) s
 table=(opt,rrhf)
 ----------------------------------------------------------------------
 -----
 title
 -----
 Symbolic Z-matrix:
 Charge =  0 Multiplicity = 1

 SCF Done:  E(RHF) =  -726.925290567     A.U. after   16 cycles
 Normal termination of Gaussian 16 at Wed Apr  9 01:30:33 2025.
 Gaussian 16:  ES64L-G16RevC.01  3-Jul-2019

 ----------------------------------------------------------------------
 #t hf aug-cc-pvdz iop(5/13=1,5/36=2,99/5=2) pseudo=read geom=check gue
 ss=(read,tcheck) scf=(maxcycle=1)
 ----------------------------------------------------------------------
 -----
 title
 -----
 Structure from the checkpoint file:  "BH10_312_forward_mol2.chk"
 Charge =  0 Multiplicity = 1

                         Standard orientation:
 ---------------------------------------------------------------------
 Center     Atomic      Atomic             Coordinates (Angstroms)
 Number     Number       Type             X           Y           Z
 ---------------------------------------------------------------------
      1          6           0       -2.213986   -1.203885   -0.333360
      2          6           0       -3.565481   -0.911798   -0.414154
      3          6           0       -4.044454    0.331828   -0.016588
      4          6           0       -3.147538    1.285128    0.446950
      5          6           0       -1.788604    1.010047    0.490426
      6          6           0       -1.290355   -0.241691    0.098845
      7          1           0       -1.849725   -2.187778   -0.604558
      8          1           0       -4.256302   -1.667887   -0.770291
      9          1           0       -5.104784    0.549991   -0.057608
     10          1           0       -3.508145    2.256024    0.768617
     11          1           0       -1.095838    1.762897    0.848955
     12          6           0        0.128714   -0.563614    0.163929
     13          6           0        0.973926    0.254547   -0.493646
     14          1           0        0.730874    1.109924   -1.137236
     15          1           0        3.196946   -0.855607   -1.454233
     16         15           0        2.673589   -0.145144   -0.352329
     17          6           0        3.004636   -1.191317    1.071456
     18          1           0        2.871834   -0.603408    1.979327
     19          1           0        2.250720   -1.977752    1.072716
     20          1           0        4.015558   -1.597320    1.025315
     21          6           0        3.742096    1.317192   -0.279317
     22          1           0        3.563329    1.941359   -1.155616
     23          1           0        3.493119    1.892520    0.612827
     24          1           0        4.794836    1.035588   -0.250524
 ---------------------------------------------------------------------

 SCF Done:  E(RHF) =  -729.046272692     A.U. after    2 cycles

 The electronic state is 1-A.
 Alpha  occ. eigenvalues -- -105.24599 -11.48231 -11.41649 -11.40775 -11.40182
 Alpha  occ. eigenvalues --  -11.39833 -11.37874 -11.37365 -11.37232 -11.33583
 Alpha  occ. eigenvalues --  -11.32399  -2.83895  -1.61791  -1.58421  -1.54799
 Alpha  occ. eigenvalues --   -1.32128  -1.14853  -1.08867  -1.05979  -1.00224
 Alpha  occ. eigenvalues --   -0.98599  -0.84076  -0.82799  -0.75303  -0.68426
 Alpha  occ. eigenvalues --   -0.66200  -0.61344  -0.61164  -0.60854  -0.59545
 Alpha  occ. eigenvalues --   -0.58365  -0.55072  -0.54044  -0.53277  -0.47840
 Alpha  occ. eigenvalues --   -0.42195  -0.41532  -0.36550  -0.33216  -0.30172
 Alpha  occ. eigenvalues --   -0.28282  -0.24679  -0.22455  -0.14854
 Alpha virt. eigenvalues --    0.02646   0.04466   0.04871   0.05188   0.05574
 Alpha virt. eigenvalues --    0.05984   0.06151   0.06558   0.06722   0.07494
 Alpha virt. eigenvalues --    0.07887   0.08331   0.08986   0.09814   0.10223

 Mulliken charges:
               1
     1  C   -3.547897
     2  C   -1.694250
     3  C   -2.687266
     4  C   -1.753885
     5  C   -1.870201
     6  C    5.984581
     7  H    1.670184
     8  H    1.506375
     9  H    1.518539
    10  H    1.485120
    11  H    1.841489
    12  C   -3.998575
    13  C   -3.453949
    14  H    1.405384
    15  H    1.813990
    16  P    7.344581
    17  C   -6.365594
    18  H    1.224046
    19  H    1.207215
    20  H    1.166731
    21  C   -6.193314
    22  H    1.120188
    23  H    1.110270
    24  H    1.166238
 Sum of Mulliken charges =   0.00000

 Dipole moment (field-independent basis, Debye):
    X=              5.9784    Y=              1.3367    Z=             -0.9033  Tot=              6.1923

 Test job not archived.
 1\1\GINC-SE227\SP\RHF\Aug-CC-pVDZ\C10H13P1\OHZDE\09-Apr-2025\0\\#t hf
 aug-cc-pvdz iop(5/13=1,5/36=2,99/5=2) pseudo=read geom=check guess=(re
 ad,tcheck) scf=(maxcycle=1)\\title\\0,1\C,0,-2.213986,-1.203885,-0.333
 36\C,0,-3.565481,-0.911798,-0.414154\C,0,-4.044454,0.331828,-0.016588\
 C,0,-3.147538,1.285128,0.44695\C,0,-1.788604,1.010047,0.490426\C,0,-1.
 290355,-0.241691,0.098845\H,0,-1.849725,-2.187778,-0.604558\H,0,-4.256
 302,-1.667887,-0.770291\H,0,-5.104784,0.549991,-0.057608\H,0,-3.508145
 ,2.256024,0.768617\H,0,-1.095838,1.762897,0.848955\C,0,0.128714,-0.563

 Normal termination of Gaussian 16 at Wed Apr  9 01:30:50 2025.
