 Gaussian 16, Revision C.01,

 ----------------------------------------------------------------------
 #t hf aug-cc-pvdz symm=none int=(grid=ultrafine) guess=(read,tcheck) s
 table=opt
 ----------------------------------------------------------------------
 -----
 title
 -----
 Symbolic Z-matrix:
 Charge =  0 Multiplicity = 2

 SCF Done:  E(UHF) =  -676.691677250     A.U. after   20 cycles
 Normal termination of Gaussian 16 at Wed Apr  9 01:53:10 2025.
 Gaussian 16:  ES64L-G16RevC.01  3-Jul-2019

 ----------------------------------------------------------------------
 #t hf aug-cc-pvdz iop(5/13=1,5/36=2,99/5=2) pseudo=read geom=check gue
 ss=(read,tcheck) scf=(maxcycle=1)
 ----------------------------------------------------------------------
 -----
 title
 -----
 Structure from the checkpoint file:  "BH10_32_forward_mol2.chk"
 Charge =  0 Multiplicity = 2

                         Standard orientation:
 ---------------------------------------------------------------------
 Center     Atomic      Atomic             Coordinates (Angstroms)
 Number     Number       Type             X           Y           Z
 ---------------------------------------------------------------------
      1          6           0        0.501988    2.618673    0.116305
      2          6           0        0.882398    1.220784   -0.259321
      3          8           0       -0.146872    0.474675   -0.767577
      4          6           0        2.115901    0.729215   -0.178614
      5         14           0       -1.372299   -0.360107    0.016611
      6          6           0       -2.016944   -1.547901   -1.264031
      7          1           0       -2.373501   -1.011097   -2.145900
      8          1           0       -2.847619   -2.140336   -0.871847
      9          1           0       -1.233632   -2.237256   -1.586351
     10          6           0       -2.717338    0.823643    0.555162
     11          1           0       -2.376269    1.499925    1.342103
     12          1           0       -3.578210    0.273750    0.945781
     13          1           0       -3.063377    1.431506   -0.284028
     14          6           0       -0.658934   -1.243091    1.499650
     15          1           0        0.110398   -1.960279    1.205900
     16          1           0       -1.439706   -1.786562    2.038528
     17          1           0       -0.203234   -0.537617    2.198854
     18          1           0        1.370705    3.186421    0.447720
     19          1           0        0.052723    3.126065   -0.741121
     20          1           0       -0.240260    2.621772    0.919216
     21          6           0        2.521547   -0.658639   -0.575342
     22          6           0        3.035736   -1.479598    0.556509
     23          1           0        3.288169   -0.607109   -1.359105
     24          1           0        1.663562   -1.153870   -1.050304
     25          1           0        2.733796   -1.268513    1.574135
     26          1           0        3.644995   -2.355669    0.372522
     27          1           0        2.892499    1.384448    0.200054
 ---------------------------------------------------------------------

 SCF Done:  E(UHF) =  -678.749318878     A.U. after    2 cycles

 The electronic state is 2-A.
 Alpha  occ. eigenvalues --  -76.20439 -21.03648 -11.47298 -11.40827 -11.38841
 Alpha  occ. eigenvalues --  -11.37575 -11.35586 -11.34481 -11.34293 -11.34239
 Alpha  occ. eigenvalues --   -5.54801  -2.21499  -2.18360  -2.18099  -1.71753
 Alpha  occ. eigenvalues --   -1.21833  -1.11401  -1.06831  -1.01178  -1.01041
 Alpha  occ. eigenvalues --   -0.98524  -0.86007  -0.75659  -0.64335  -0.63697
 Alpha  occ. eigenvalues --   -0.61118  -0.58661  -0.57441  -0.56447  -0.56101
 Alpha  occ. eigenvalues --   -0.55980  -0.54968  -0.54385  -0.53504  -0.52911
 Alpha  occ. eigenvalues --   -0.51647  -0.46839  -0.45295  -0.44904  -0.41478
 Alpha  occ. eigenvalues --   -0.38626  -0.33925  -0.30785  -0.27868
 Alpha virt. eigenvalues --    0.03162   0.04823   0.04949   0.05346   0.05462
 Alpha virt. eigenvalues --    0.05669   0.05821   0.06065   0.06843   0.07277
 Alpha virt. eigenvalues --    0.07606   0.07988   0.08248   0.08840   0.09306

  Beta  occ. eigenvalues --  -76.20440 -21.03649 -11.47371 -11.40745 -11.38772
  Beta  occ. eigenvalues --  -11.36561 -11.34810 -11.34455 -11.34269 -11.34163
  Beta  occ. eigenvalues --   -5.54803  -2.21507  -2.18362  -2.18100  -1.71803
  Beta  occ. eigenvalues --   -1.20562  -1.10189  -1.06797  -1.01154  -1.01022
  Beta  occ. eigenvalues --   -0.96105  -0.82151  -0.75352  -0.64091  -0.63015
  Beta  occ. eigenvalues --   -0.60786  -0.58678  -0.57067  -0.56431  -0.56097
  Beta  occ. eigenvalues --   -0.55740  -0.54901  -0.54373  -0.53266  -0.51448
  Beta  occ. eigenvalues --   -0.50488  -0.46415  -0.45335  -0.44658  -0.41385
  Beta  occ. eigenvalues --   -0.38621  -0.33283  -0.27812
  Beta virt. eigenvalues --    0.03188   0.04878   0.04950   0.05305   0.05470
  Beta virt. eigenvalues --    0.05673   0.05828   0.06009   0.06835   0.07264
  Beta virt. eigenvalues --    0.07598   0.07954   0.08244   0.08651   0.08878

 Mulliken charges and spin densities:
               1          2
     1  C   -5.123451   0.023439
     2  C    4.065069  -0.093711
     3  O   -5.470084  -0.002571
     4  C   -0.516254   0.122942
     5  Si  10.962028   0.006042
     6  C   -6.212358   0.001458
     7  H    1.071755  -0.000766
     8  H    1.100851   0.000031
     9  H    1.116079  -0.000664
    10  C   -6.264910   0.000485
    11  H    1.310797  -0.000089
    12  H    1.059206   0.000136
    13  H    1.075354   0.000264
    14  C   -6.345615  -0.006751
    15  H    1.397501  -0.008257
    16  H    1.067429  -0.003435
    17  H    1.141495   0.003103
    18  H    1.236954   0.000923
    19  H    1.319024  -0.000742
    20  H    1.352359  -0.000977
    21  C   -3.825407  -0.439667
    22  C   -3.306642   1.551534
    23  H    1.140833   0.005911
    24  H    1.939055   0.021184
    25  H    1.692381  -0.095278
    26  H    1.374732  -0.077858
    27  H    1.641819  -0.006684
 Sum of Mulliken charges =  -0.00000   1.00000

 Dipole moment (field-independent basis, Debye):
    X=             -0.8973    Y=             -0.0269    Z=             -0.0845  Tot=              0.9017
                          Isotropic Fermi Contact Couplings
        Atom                 a.u.       MegaHertz       Gauss      10(-4) cm-1
     1  C(13)              0.00234       2.63015       0.93850       0.87732
     2  C(13)             -0.00869      -9.77434      -3.48773      -3.26037
     3  O(17)              0.00107      -0.64584      -0.23045      -0.21543
     4  C(13)              0.01692      19.02062       6.78703       6.34459
     5  Si(29)            -0.00309       2.74252       0.97860       0.91481
     6  C(13)              0.00003       0.03730       0.01331       0.01244
     7  H(1)              -0.00000      -0.01030      -0.00368      -0.00344
     8  H(1)               0.00001       0.03591       0.01282       0.01198

 Normal termination of Gaussian 16 at Wed Apr  9 01:53:33 2025.
