 Gaussian 16, Revision C.01,

 ----------------------------------------------------------------------
 #t hf aug-cc-pvdz symm=none int=(grid=ultrafine) guess=(read,tcheck) s
 table=(opt,rrhf)
 ----------------------------------------------------------------------
 -----
 title
 -----
 Symbolic Z-matrix:
 Charge =  0 Multiplicity = 1

 SCF Done:  E(RHF) =  -1000.91635734     A.U. after   16 cycles
 Normal termination of Gaussian 16 at Wed Apr  9 02:33:16 2025.
 Gaussian 16:  ES64L-G16RevC.01  3-Jul-2019

 ----------------------------------------------------------------------
 #t hf aug-cc-pvdz iop(5/13=1,5/36=2,99/5=2) pseudo=read geom=check gue
 ss=(read,tcheck) scf=(maxcycle=1)
 ----------------------------------------------------------------------
 -----
 title
 -----
 Structure from the checkpoint file:  "BH10_84_reverse_mol2.chk"
 Charge =  0 Multiplicity = 1

                         Standard orientation:
 ---------------------------------------------------------------------
 Center     Atomic      Atomic             Coordinates (Angstroms)
 Number     Number       Type             X           Y           Z
 ---------------------------------------------------------------------
      1          6           0        0.285168   -0.804703   -1.321804
      2          6           0       -1.944056   -0.646573   -0.394941
      3          6           0        0.608100    0.572776   -0.816270
      4          6           0       -1.797509    0.709925   -0.231869
      5          6           0       -0.890623   -1.375183   -1.075875
      6          6           0       -2.902760    1.553105    0.344890
      7          6           0       -0.488910    2.771597   -0.495997
      8          6           0       -3.113143   -1.365313    0.084284
      9          6           0        1.515592    0.581818    0.435108
     10          1           0        1.753889    1.635203    0.640533
     11          6           0        0.819017    0.007000    1.672728
     12          1           0       -0.066392    0.587721    1.943162
     13          1           0        0.496697   -1.021578    1.502519
     14          1           0        1.482668    0.010725    2.540694
     15          7           0       -0.643240    1.329574   -0.585710
     16         14           0        3.224893   -0.214913    0.159608
     17          6           0        4.390264    0.513117    1.442592
     18          6           0        3.173222   -2.077552    0.378663
     19          6           0        3.864612    0.220668   -1.554823
     20          1           0        2.834176   -2.346906    1.381685
     21          1           0        4.170872   -2.504061    0.243531
     22          1           0        2.501992   -2.559338   -0.333769
     23          1           0        4.043686    0.315493    2.459912
     24          1           0        4.484634    1.596063    1.327897
     25          1           0        5.390611    0.082515    1.349096
     26          1           0        0.469357    3.040875   -0.936679
     27          1           0       -0.496038    3.134356    0.536666
     28          1           0       -1.265891    3.293889   -1.055002
     29          1           0        3.889113    1.302929   -1.709054
     30          1           0        3.254485   -0.215072   -2.349322
     31          1           0        4.884494   -0.149956   -1.686611
     32          6           0       -4.164826   -0.562227    0.822436
     33          6           0       -4.256950    0.857869    0.287704
     34          8           0       -3.243827   -2.570381   -0.064140
     35          1           0       -2.642588    1.789098    1.385459
     36          1           0       -2.959918    2.509061   -0.175373
     37          1           0       -4.598819    0.829496   -0.751228
     38          1           0       -4.991465    1.439136    0.849526
     39          1           0       -5.111055   -1.097644    0.743613
     40          1           0       -3.886785   -0.550437    1.883447
     41          1           0        1.059053   -1.323417   -1.873872
     42          1           0       -1.113842   -2.385866   -1.393542
     43          1           0        1.138686    1.114579   -1.605669
 ---------------------------------------------------------------------

 SCF Done:  E(RHF) =  -1004.58476671     A.U. after    2 cycles

 The electronic state is 1-A.
 Alpha  occ. eigenvalues --  -76.17995 -21.00638 -15.75057 -11.53682 -11.49321
 Alpha  occ. eigenvalues --  -11.49146 -11.46369 -11.45060 -11.42418 -11.41924
 Alpha  occ. eigenvalues --  -11.40710 -11.39490 -11.38553 -11.37441 -11.35500
 Alpha  occ. eigenvalues --  -11.35397 -11.34781 -11.34408  -5.52297  -2.16797
 Alpha  occ. eigenvalues --   -2.16291  -2.16088  -1.67440  -1.50339  -1.28411
 Alpha  occ. eigenvalues --   -1.23015  -1.17480  -1.09852  -1.06790  -1.05670
 Alpha  occ. eigenvalues --   -1.02669  -1.01111  -1.00750  -0.95510  -0.90057
 Alpha  occ. eigenvalues --   -0.85570  -0.82692  -0.75893  -0.69091  -0.68644
 Alpha  occ. eigenvalues --   -0.67116  -0.66723  -0.64171  -0.62158  -0.60461
 Alpha  occ. eigenvalues --   -0.59115  -0.58488  -0.58073  -0.57193  -0.56408
 Alpha  occ. eigenvalues --   -0.56340  -0.55259  -0.54520  -0.54195  -0.53501
 Alpha  occ. eigenvalues --   -0.53232  -0.52540  -0.51618  -0.50757  -0.48692
 Alpha  occ. eigenvalues --   -0.48153  -0.44877  -0.44744  -0.42827  -0.40983
 Alpha  occ. eigenvalues --   -0.39477  -0.38741  -0.38097  -0.35917  -0.35555
 Alpha  occ. eigenvalues --   -0.25082  -0.22774
 Alpha virt. eigenvalues --    0.03163   0.03987   0.04076   0.04300   0.04588
 Alpha virt. eigenvalues --    0.04685   0.05428   0.05965   0.06040   0.06212
 Alpha virt. eigenvalues --    0.06443   0.06622   0.07177   0.07529   0.07670

 Mulliken charges:
               1
     1  C   -1.841597
     2  C    1.812447
     3  C   -1.174372
     4  C    7.629372
     5  C   -2.502890
     6  C   -3.761644
     7  C   -5.202552
     8  C    5.202934
     9  C   -3.577587
    10  H    1.736390
    11  C   -5.618601
    12  H    1.643446
    13  H    1.548911
    14  H    1.077457
    15  N   -4.581036
    16  Si  14.177817
    17  C   -6.416505
    18  C   -6.482142
    19  C   -6.722689
    20  H    1.133393
    21  H    1.050650
    22  H    0.753528
    23  H    0.885433
    24  H    0.918939
    25  H    1.098072
    26  H    1.395559
    27  H    1.493451
    28  H    1.515691
    29  H    0.969067
    30  H    1.094281
    31  H    0.918727
    32  C   -4.739481
    33  C   -4.297264
    34  O   -4.403067
    35  H    1.138462
    36  H    1.376190
    37  H    1.405043
    38  H    1.226178
    39  H    1.306044
    40  H    1.353294
    41  H    1.785719
    42  H    2.080029
    43  H    1.594905
 Sum of Mulliken charges =   0.00000

 Dipole moment (field-independent basis, Debye):
    X=              1.5632    Y=              4.3752    Z=              0.2577  Tot=              4.6532

 Test job not archived.
 1\1\GINC-SE455\SP\RHF\Aug-CC-pVDZ\C15H25N1O1Si1\OHZDE\09-Apr-2025\0\\#
 t hf aug-cc-pvdz iop(5/13=1,5/36=2,99/5=2) pseudo=read geom=check gues
 s=(read,tcheck) scf=(maxcycle=1)\\title\\0,1\C,0,0.285168,-0.804703,-1
 .321804\C,0,-1.944056,-0.646573,-0.394941\C,0,0.6081,0.572776,-0.81627
 \C,0,-1.797509,0.709925,-0.231869\C,0,-0.890623,-1.375183,-1.075875\C,
 0,-2.90276,1.553105,0.34489\C,0,-0.48891,2.771597,-0.495997\C,0,-3.113
 143,-1.365313,0.084284\C,0,1.515592,0.581818,0.435108\H,0,1.753889,1.6
 35203,0.640533\C,0,0.819017,0.007,1.672728\H,0,-0.066392,0.587721,1.94

 Normal termination of Gaussian 16 at Wed Apr  9 02:34:45 2025.
