 Gaussian 16, Revision C.01,

 ----------------------------------------------------------------------
 #t hf aug-cc-pvdz symm=none int=(grid=ultrafine) guess=(read,tcheck) s
 table=(opt,rrhf)
 ----------------------------------------------------------------------
 -----
 title
 -----
 Symbolic Z-matrix:
 Charge =  0 Multiplicity = 1

 SCF Done:  E(RHF) =  -758.486979408     A.U. after   14 cycles
 Normal termination of Gaussian 16 at Wed Apr  9 01:40:03 2025.
 Gaussian 16:  ES64L-G16RevC.01  3-Jul-2019

 ----------------------------------------------------------------------
 #t hf aug-cc-pvdz iop(5/13=1,5/36=2,99/5=2) pseudo=read geom=check gue
 ss=(read,tcheck) scf=(maxcycle=1)
 ----------------------------------------------------------------------
 -----
 title
 -----
 Structure from the checkpoint file:  "BH10_324_reverse_mol2.chk"
 Charge =  0 Multiplicity = 1

                         Standard orientation:
 ---------------------------------------------------------------------
 Center     Atomic      Atomic             Coordinates (Angstroms)
 Number     Number       Type             X           Y           Z
 ---------------------------------------------------------------------
      1         16           0        1.943169    0.272108   -0.145893
      2          6           0        0.659397    0.625378    1.091073
      3          6           0       -0.749055    0.841585    0.526248
      4          1           0        0.996884    1.538754    1.582725
      5          1           0        0.634585   -0.172541    1.832368
      6          7           0       -0.825210    1.731136   -0.628669
      7          6           0       -1.419613   -0.502382    0.194681
      8          1           0       -1.363403    1.258291    1.330030
      9          8           0       -1.372924   -1.448237    0.930579
     10          8           0       -2.069542   -0.507130   -0.964308
     11          6           0        1.566484   -1.444212   -0.607080
     12          1           0       -1.930471    0.392117   -1.338924
     13          1           0        0.057561    1.732030   -1.134173
     14          1           0       -1.059636    2.681375   -0.375818
     15          1           0        2.424027   -1.798990   -1.177153
     16          1           0        0.675194   -1.521972   -1.226365
     17          1           0        1.447491   -2.060030    0.282586
 ---------------------------------------------------------------------

 SCF Done:  E(RHF) =  -760.348370476     A.U. after    2 cycles

 The electronic state is 1-A.
 Alpha  occ. eigenvalues --  -75.68422 -21.10746 -21.04154 -15.76499 -13.13888
 Alpha  occ. eigenvalues --  -13.10133 -13.06170 -11.53054 -11.47039 -11.41439
 Alpha  occ. eigenvalues --  -11.39782  -8.02527  -1.82373  -1.65395  -1.38988
 Alpha  occ. eigenvalues --   -1.22711  -1.09457  -0.98846  -0.88143  -0.76919
 Alpha  occ. eigenvalues --   -0.73354  -0.69514  -0.63472  -0.61386  -0.59403
 Alpha  occ. eigenvalues --   -0.58258  -0.56427  -0.51811  -0.50354  -0.45631
 Alpha  occ. eigenvalues --   -0.43655  -0.39888  -0.36680  -0.32860  -0.28650
 Alpha  occ. eigenvalues --   -0.23715
 Alpha virt. eigenvalues --    0.02931   0.03702   0.04541   0.05023   0.05720
 Alpha virt. eigenvalues --    0.06301   0.07524   0.07978   0.08657   0.09961
 Alpha virt. eigenvalues --    0.10779   0.11913   0.12657   0.13304   0.13967

 Mulliken charges:
               1
     1  S    0.914597
     2  C   -3.425591
     3  C   -0.925137
     4  H    1.411993
     5  H    1.484192
     6  N   -2.841728
     7  C    6.739375
     8  H    1.637443
     9  O   -3.366851
    10  O   -3.223035
    11  C   -5.074624
    12  H    1.072310
    13  H    0.694257
    14  H    0.529404
    15  H    1.345963
    16  H    1.540147
    17  H    1.487285
 Sum of Mulliken charges =  -0.00000

 Dipole moment (field-independent basis, Debye):
    X=              1.7734    Y=              2.8387    Z=             -0.5254  Tot=              3.3880

 Test job not archived.
 1\1\GINC-SE328\SP\RHF\Aug-CC-pVDZ\C4H9N1O2S1\OHZDE\09-Apr-2025\0\\#t h
 f aug-cc-pvdz iop(5/13=1,5/36=2,99/5=2) pseudo=read geom=check guess=(
 read,tcheck) scf=(maxcycle=1)\\title\\0,1\S,0,1.943169,0.272108,-0.145
 893\C,0,0.659397,0.625378,1.091073\C,0,-0.749055,0.841585,0.526248\H,0
 ,0.996884,1.538754,1.582725\H,0,0.634585,-0.172541,1.832368\N,0,-0.825
 21,1.731136,-0.628669\C,0,-1.419613,-0.502382,0.194681\H,0,-1.363403,1
 .258291,1.33003\O,0,-1.372924,-1.448237,0.930579\O,0,-2.069542,-0.5071
 3,-0.964308\C,0,1.566484,-1.444212,-0.60708\H,0,-1.930471,0.392117,-1.

 Normal termination of Gaussian 16 at Wed Apr  9 01:40:10 2025.
