 Gaussian 16, Revision C.01,

 ----------------------------------------------------------------------
 #t hf aug-cc-pvdz symm=none int=(grid=ultrafine) guess=(read,tcheck) s
 table=(opt,rrhf)
 ----------------------------------------------------------------------
 -----
 title
 -----
 Symbolic Z-matrix:
 Charge =  0 Multiplicity = 1

 SCF Done:  E(RHF) =  -764.523475048     A.U. after   15 cycles
 Normal termination of Gaussian 16 at Wed Apr  9 01:00:35 2025.
 Gaussian 16:  ES64L-G16RevC.01  3-Jul-2019

 ----------------------------------------------------------------------
 #t hf aug-cc-pvdz iop(5/13=1,5/36=2,99/5=2) pseudo=read geom=check gue
 ss=(read,tcheck) scf=(maxcycle=1)
 ----------------------------------------------------------------------
 -----
 title
 -----
 Structure from the checkpoint file:  "BH10_172_forward_mol2.chk"
 Charge =  0 Multiplicity = 1

                         Standard orientation:
 ---------------------------------------------------------------------
 Center     Atomic      Atomic             Coordinates (Angstroms)
 Number     Number       Type             X           Y           Z
 ---------------------------------------------------------------------
      1          1           0       -3.550853   -0.796061    0.000239
      2          8           0       -3.171828    0.087044    0.000203
      3          6           0       -1.811820    0.015934    0.000116
      4          6           0       -1.124169   -1.190641    0.000079
      5          6           0        0.263571   -1.200490   -0.000010
      6          6           0        0.954303   -0.002195   -0.000062
      7          6           0        0.273882    1.206318   -0.000025
      8          6           0       -1.109907    1.215184    0.000064
      9          1           0       -1.660859    2.146568    0.000094
     10          1           0        0.803384   -2.137970   -0.000039
     11          1           0       -1.668140   -2.129197    0.000119
     12          1           0        0.826284    2.136534   -0.000066
     13         17           0        2.702921   -0.010640   -0.000173
 ---------------------------------------------------------------------

 SCF Done:  E(RHF) =  -766.168900265     A.U. after    2 cycles

 The electronic state is 1-A.
 Alpha  occ. eigenvalues --  -99.89126 -21.11323 -11.53182 -11.47055 -11.44984
 Alpha  occ. eigenvalues --  -11.44467 -11.41705 -11.38313 -10.46500  -9.66542
 Alpha  occ. eigenvalues --   -9.65623  -9.65451  -1.76998  -1.39539  -1.26877
 Alpha  occ. eigenvalues --   -1.11745  -1.06572  -0.90359  -0.85829  -0.72666
 Alpha  occ. eigenvalues --   -0.68756  -0.64686  -0.60115  -0.59917  -0.57979
 Alpha  occ. eigenvalues --   -0.53965  -0.53322  -0.49826  -0.46516  -0.43239
 Alpha  occ. eigenvalues --   -0.43012  -0.35181  -0.28259
 Alpha virt. eigenvalues --    0.03020   0.04680   0.05822   0.06099   0.06613
 Alpha virt. eigenvalues --    0.08690   0.09983   0.10203   0.11167   0.12053
 Alpha virt. eigenvalues --    0.12781   0.13110   0.13368   0.13856   0.14179

 Mulliken charges:
               1
     1  H    1.024532
     2  O   -4.485350
     3  C    4.992047
     4  C   -3.027387
     5  C   -0.053552
     6  C   -2.385421
     7  C   -0.499755
     8  C   -1.674597
     9  H    1.768374
    10  H    1.713109
    11  H    1.686325
    12  H    1.789756
    13  Cl  -0.848081
 Sum of Mulliken charges =  -0.00000

 Dipole moment (field-independent basis, Debye):
    X=             -2.9412    Y=             -0.6010    Z=              0.0002  Tot=              3.0020

 Test job not archived.
 1\1\GINC-SE454\SP\RHF\Aug-CC-pVDZ\C6H5Cl1O1\OHZDE\09-Apr-2025\0\\#t hf
  aug-cc-pvdz iop(5/13=1,5/36=2,99/5=2) pseudo=read geom=check guess=(r
 ead,tcheck) scf=(maxcycle=1)\\title\\0,1\H,0,-3.550853,-0.796061,0.000
 239\O,0,-3.171828,0.087044,0.000203\C,0,-1.81182,0.015934,0.000116\C,0
 ,-1.124169,-1.190641,0.000079\C,0,0.263571,-1.20049,-0.00001\C,0,0.954
 303,-0.002195,-0.000062\C,0,0.273882,1.206318,-0.000025\C,0,-1.109907,
 1.215184,0.000064\H,0,-1.660859,2.146568,0.000094\H,0,0.803384,-2.1379
 7,-0.000039\H,0,-1.66814,-2.129197,0.000119\H,0,0.826284,2.136534,-0.0

 Normal termination of Gaussian 16 at Wed Apr  9 01:00:40 2025.
