 Gaussian 16, Revision C.01,

 ----------------------------------------------------------------------
 #t hf aug-cc-pvdz symm=none int=(grid=ultrafine) guess=(read,tcheck) s
 table=(opt,rrhf)
 ----------------------------------------------------------------------
 -----
 title
 -----
 Symbolic Z-matrix:
 Charge =  0 Multiplicity = 1

 SCF Done:  E(RHF) =  -679.009341254     A.U. after   14 cycles
 Normal termination of Gaussian 16 at Wed Apr  9 01:28:22 2025.
 Gaussian 16:  ES64L-G16RevC.01  3-Jul-2019

 ----------------------------------------------------------------------
 #t hf aug-cc-pvdz iop(5/13=1,5/36=2,99/5=2) pseudo=read geom=check gue
 ss=(read,tcheck) scf=(maxcycle=1)
 ----------------------------------------------------------------------
 -----
 title
 -----
 Structure from the checkpoint file:  "BH10_282_reverse_mol2.chk"
 Charge =  0 Multiplicity = 1

                         Standard orientation:
 ---------------------------------------------------------------------
 Center     Atomic      Atomic             Coordinates (Angstroms)
 Number     Number       Type             X           Y           Z
 ---------------------------------------------------------------------
      1          6           0        1.312948   -0.681078   -0.801955
      2          6           0        2.531614    0.453038    1.187287
      3          6           0        2.587918   -1.493852   -1.105843
      4          1           0        2.452355   -2.493349   -0.676132
      5          1           0        2.682377   -1.645894   -2.186862
      6          1           0        2.524125    0.671858    2.260626
      7          1           0        0.452794   -1.262227   -1.145902
      8          6           0        3.791514   -0.380699    0.878725
      9          1           0        3.797177   -1.238454    1.561863
     10          1           0        4.690432    0.197742    1.120087
     11          5           0        1.237799   -0.285166    0.708441
     12          6           0       -1.309159   -0.715175    0.940032
     13          6           0       -2.334781    0.126352    0.841607
     14          1           0       -2.330331    1.103795    1.309559
     15          6           0       -0.027241   -0.431036    1.635545
     16          6           0       -3.537419   -0.244899    0.077431
     17          8           0       -3.717023   -1.283073   -0.510029
     18          8           0       -4.452224    0.743081    0.106542
     19          6           0       -5.662973    0.487397   -0.606464
     20          1           0       -6.273132    1.377882   -0.479589
     21          1           0       -5.454763    0.312216   -1.662057
     22          1           0       -6.169947   -0.386338   -0.196775
     23          6           0        2.462791    1.818599    0.445687
     24          1           0        1.619378    2.384340    0.859499
     25          1           0        3.358446    2.404551    0.678592
     26          6           0        1.235948    0.696876   -1.522456
     27          1           0        0.237417    1.113323   -1.344773
     28          1           0        1.307146    0.541500   -2.604179
     29          6           0        3.894586   -0.902039   -0.560594
     30          1           0        4.241797   -0.104815   -1.217039
     31          1           0        4.672845   -1.669786   -0.602004
     32          6           0        2.287585    1.724060   -1.077657
     33          1           0        2.000577    2.708193   -1.459592
     34          1           0        3.244445    1.498660   -1.546105
     35          1           0       -1.408569   -1.673409    0.436547
     36          1           0        0.232956   -1.276106    2.294110
     37          1           0       -0.112533    0.436816    2.297748
 ---------------------------------------------------------------------

 SCF Done:  E(RHF) =  -682.258344490     A.U. after    2 cycles

 The electronic state is 1-A.
 Alpha  occ. eigenvalues --  -21.08157 -21.03043 -11.52303 -11.46737 -11.46310
 Alpha  occ. eigenvalues --  -11.43659 -11.42863 -11.41449 -11.41029 -11.40223
 Alpha  occ. eigenvalues --  -11.39064 -11.37194 -11.36832 -11.34738 -11.34558
 Alpha  occ. eigenvalues --   -7.59105  -1.83693  -1.64826  -1.35350  -1.23331
 Alpha  occ. eigenvalues --   -1.17516  -1.15803  -1.08771  -1.02584  -0.98773
 Alpha  occ. eigenvalues --   -0.98110  -0.85008  -0.83676  -0.82334  -0.79483
 Alpha  occ. eigenvalues --   -0.74048  -0.69533  -0.68214  -0.66696  -0.62664
 Alpha  occ. eigenvalues --   -0.61626  -0.61125  -0.59463  -0.58974  -0.58675
 Alpha  occ. eigenvalues --   -0.57964  -0.56154  -0.54462  -0.53799  -0.52104
 Alpha  occ. eigenvalues --   -0.51105  -0.50285  -0.49121  -0.45906  -0.45196
 Alpha  occ. eigenvalues --   -0.44054  -0.43226  -0.42446  -0.41099  -0.39548
 Alpha  occ. eigenvalues --   -0.36610  -0.32741  -0.32232  -0.30539  -0.28714
 Alpha virt. eigenvalues --    0.03526   0.04597   0.04711   0.04798   0.05247
 Alpha virt. eigenvalues --    0.05326   0.05591   0.05862   0.06114   0.06178
 Alpha virt. eigenvalues --    0.06444   0.06846   0.07066   0.07518   0.07856

 Mulliken charges:
               1
     1  C   -2.221255
     2  C   -2.726708
     3  C   -4.264025
     4  H    1.167025
     5  H    1.191134
     6  H    1.393677
     7  H    1.653640
     8  C   -4.189861
     9  H    1.044508
    10  H    1.234128
    11  B   14.272159
    12  C    0.284667
    13  C   -4.948274
    14  H    1.830723
    15  C   -6.355507
    16  C    7.115621
    17  O   -3.656033
    18  O   -3.676506
    19  C   -3.270067
    20  H    1.399550
    21  H    1.380146
    22  H    1.359941
    23  C   -4.040976
    24  H    1.154407
    25  H    1.276085
    26  C   -4.250633
    27  H    1.213811
    28  H    1.335711
    29  C   -3.042959
    30  H    1.499988
    31  H    1.242676
    32  C   -2.562403
    33  H    1.216745
    34  H    1.580357
    35  H    1.884805
    36  H    0.460669
    37  H    1.013033
 Sum of Mulliken charges =   0.00000

 Dipole moment (field-independent basis, Debye):
    X=              1.2871    Y=              0.9390    Z=              0.3226  Tot=              1.6256

 Test job not archived.
 1\1\GINC-SE462\SP\RHF\Aug-CC-pVDZ\C13H21B1O2\OHZDE\09-Apr-2025\0\\#t h
 f aug-cc-pvdz iop(5/13=1,5/36=2,99/5=2) pseudo=read geom=check guess=(
 read,tcheck) scf=(maxcycle=1)\\title\\0,1\C,0,1.312948,-0.681078,-0.80
 1955\C,0,2.531614,0.453038,1.187287\C,0,2.587918,-1.493852,-1.105843\H
 ,0,2.452355,-2.493349,-0.676132\H,0,2.682377,-1.645894,-2.186862\H,0,2
 .524125,0.671858,2.260626\H,0,0.452794,-1.262227,-1.145902\C,0,3.79151
 4,-0.380699,0.878725\H,0,3.797177,-1.238454,1.561863\H,0,4.690432,0.19
 7742,1.120087\B,0,1.237799,-0.285166,0.708441\C,0,-1.309159,-0.715175,

 Normal termination of Gaussian 16 at Wed Apr  9 01:29:17 2025.
