 Gaussian 16, Revision C.01,

 ----------------------------------------------------------------------
 #t hf aug-cc-pvdz symm=none int=(grid=ultrafine) guess=(read,tcheck) s
 table=(opt,rrhf)
 ----------------------------------------------------------------------
 -----
 title
 -----
 Symbolic Z-matrix:
 Charge =  0 Multiplicity = 1

 SCF Done:  E(RHF) =  -728.996602506     A.U. after   13 cycles
 Normal termination of Gaussian 16 at Wed Apr  9 00:57:29 2025.
 Gaussian 16:  ES64L-G16RevC.01  3-Jul-2019

 ----------------------------------------------------------------------
 #t hf aug-cc-pvdz iop(5/13=1,5/36=2,99/5=2) pseudo=read geom=check gue
 ss=(read,tcheck) scf=(maxcycle=1)
 ----------------------------------------------------------------------
 -----
 title
 -----
 Structure from the checkpoint file:  "BH10_136_reverse_mol3.chk"
 Charge =  0 Multiplicity = 1

                         Standard orientation:
 ---------------------------------------------------------------------
 Center     Atomic      Atomic             Coordinates (Angstroms)
 Number     Number       Type             X           Y           Z
 ---------------------------------------------------------------------
      1          8           0        1.267110    1.595611    0.000012
      2          6           0        1.237446    0.418137    0.000007
      3          6           0        0.035284   -0.478687    0.000024
      4          6           0       -1.280071    0.286811   -0.000009
      5          1           0        0.121928   -1.134956    0.871205
      6          1           0       -1.318356    0.943159    0.873733
      7          6           0       -2.485973   -0.647020    0.000019
      8          1           0       -1.318348    0.943096   -0.873799
      9          6           0       -3.809599    0.108456   -0.000022
     10          1           0       -2.437606   -1.302954    0.875886
     11          1           0       -2.437592   -1.303024   -0.875795
     12          1           0       -3.897131    0.748008    0.881882
     13          1           0       -4.659104   -0.577028    0.000002
     14          1           0       -3.897120    0.747933   -0.881980
     15          1           0        0.121939   -1.135019   -0.871107
     16         17           0        2.788352   -0.518840   -0.000014
 ---------------------------------------------------------------------

 SCF Done:  E(RHF) =  -730.529959677     A.U. after    2 cycles

 The electronic state is 1-A.
 Alpha  occ. eigenvalues --  -99.89462 -21.09884 -11.55432 -11.44878 -11.42512
 Alpha  occ. eigenvalues --  -11.39065 -11.36147 -10.46823  -9.66752  -9.65972
 Alpha  occ. eigenvalues --   -9.65870  -1.76433  -1.32805  -1.25941  -1.12300
 Alpha  occ. eigenvalues --   -0.97548  -0.85632  -0.79195  -0.68467  -0.67763
 Alpha  occ. eigenvalues --   -0.61935  -0.60823  -0.57948  -0.55914  -0.52715
 Alpha  occ. eigenvalues --   -0.51269  -0.50999  -0.47181  -0.47058  -0.44473
 Alpha  occ. eigenvalues --   -0.43958  -0.34475
 Alpha virt. eigenvalues --    0.03571   0.04607   0.05094   0.05517   0.05905
 Alpha virt. eigenvalues --    0.06818   0.07168   0.07298   0.07997   0.09428
 Alpha virt. eigenvalues --    0.09815   0.10699   0.13182   0.13200   0.13562

 Mulliken charges:
               1
     1  O   -2.760829
     2  C    1.600436
     3  C   -2.420326
     4  C   -2.096631
     5  H    1.594149
     6  H    1.542622
     7  C   -2.734693
     8  H    1.542608
     9  C   -4.121724
    10  H    1.416009
    11  H    1.416013
    12  H    1.274206
    13  H    1.075276
    14  H    1.274203
    15  H    1.594154
    16  Cl  -0.195474
 Sum of Mulliken charges =  -0.00000

 Dipole moment (field-independent basis, Debye):
    X=             -3.2981    Y=              0.4324    Z=              0.0000  Tot=              3.3263

 Test job not archived.
 1\1\GINC-SE362\SP\RHF\Aug-CC-pVDZ\C5H9Cl1O1\OHZDE\09-Apr-2025\0\\#t hf
  aug-cc-pvdz iop(5/13=1,5/36=2,99/5=2) pseudo=read geom=check guess=(r
 ead,tcheck) scf=(maxcycle=1)\\title\\0,1\O,0,1.26711,1.595611,0.000012
 \C,0,1.237446,0.418137,0.000007\C,0,0.035284,-0.478687,0.000024\C,0,-1
 .280071,0.286811,-0.000009\H,0,0.121928,-1.134956,0.871205\H,0,-1.3183
 56,0.943159,0.873733\C,0,-2.485973,-0.64702,0.000019\H,0,-1.318348,0.9
 43096,-0.873799\C,0,-3.809599,0.108456,-0.000022\H,0,-2.437606,-1.3029
 54,0.875886\H,0,-2.437592,-1.303024,-0.875795\H,0,-3.897131,0.748008,0

 Normal termination of Gaussian 16 at Wed Apr  9 00:57:34 2025.
