 Gaussian 16, Revision C.01,

 ----------------------------------------------------------------------
 #t hf aug-cc-pvdz symm=none int=(grid=ultrafine) guess=(read,tcheck) s
 table=opt
 ----------------------------------------------------------------------
 -----
 title
 -----
 Symbolic Z-matrix:
 Charge =  0 Multiplicity = 2

 SCF Done:  E(UHF) =  -780.843111651     A.U. after   18 cycles
 Normal termination of Gaussian 16 at Wed Apr  9 01:00:21 2025.
 Gaussian 16:  ES64L-G16RevC.01  3-Jul-2019

 ----------------------------------------------------------------------
 #t hf aug-cc-pvdz iop(5/13=1,5/36=2,99/5=2) pseudo=read geom=check gue
 ss=(read,tcheck) scf=(maxcycle=1)
 ----------------------------------------------------------------------
 -----
 title
 -----
 Structure from the checkpoint file:  "BH10_158_reverse_mol1.chk"
 Charge =  0 Multiplicity = 2

                         Standard orientation:
 ---------------------------------------------------------------------
 Center     Atomic      Atomic             Coordinates (Angstroms)
 Number     Number       Type             X           Y           Z
 ---------------------------------------------------------------------
      1          1           0       -0.375978   -0.772277   -0.254384
      2          6           0       -0.400126    1.532719   -0.276297
      3          1           0        0.091092    2.443270    0.086252
      4          6           0       -2.543251    0.160244   -0.121762
      5          1           0       -3.464516    0.037385    0.448106
      6          1           0       -0.603354    1.668409   -1.341216
      7          1           0       -2.818522    0.415967   -1.147145
      8          6           0       -1.701564    1.279492    0.486195
      9          1           0       -2.293666    2.198992    0.480371
     10          1           0       -1.474601    1.048342    1.529960
     11          6           0        0.565887    0.398000   -0.146204
     12          6           0        2.691172   -0.299168   -0.553859
     13          6           0        2.254722   -0.625967    0.875023
     14          1           0        2.969448   -1.181287   -1.129823
     15          1           0        3.498289    0.434369   -0.589646
     16          1           0        1.896882   -1.655002    0.969561
     17          1           0        3.013037   -0.426189    1.628297
     18         16           0       -1.697657   -1.464619   -0.115814
     19          8           0        1.521684    0.294615   -1.129857
     20          8           0        1.168738    0.274136    1.079122
 ---------------------------------------------------------------------

 SCF Done:  E(UHF) =  -782.838829727     A.U. after    2 cycles

 The electronic state is 2-A.
 Alpha  occ. eigenvalues --  -75.65988 -21.07987 -21.07876 -13.09779 -13.09033
 Alpha  occ. eigenvalues --  -12.99690 -11.51758 -11.48357 -11.43554 -11.42321
 Alpha  occ. eigenvalues --  -11.40633 -11.36976  -7.99723  -1.90014  -1.69578
 Alpha  occ. eigenvalues --   -1.27294  -1.15427  -1.08581  -0.99055  -0.89943
 Alpha  occ. eigenvalues --   -0.84834  -0.82947  -0.71521  -0.70638  -0.67154
 Alpha  occ. eigenvalues --   -0.61513  -0.59685  -0.58773  -0.57082  -0.52925
 Alpha  occ. eigenvalues --   -0.49697  -0.48010  -0.47389  -0.44227  -0.39791
 Alpha  occ. eigenvalues --   -0.38700  -0.36763  -0.33561  -0.21919  -0.17643
 Alpha virt. eigenvalues --    0.03640   0.04346   0.04701   0.04940   0.05512
 Alpha virt. eigenvalues --    0.06039   0.06453   0.06635   0.06905   0.08142
 Alpha virt. eigenvalues --    0.08811   0.10140   0.11629   0.12660   0.12879

  Beta  occ. eigenvalues --  -75.65514 -21.07679 -21.07435 -13.09339 -13.06415
  Beta  occ. eigenvalues --  -12.99370 -11.50706 -11.47925 -11.43387 -11.42332
  Beta  occ. eigenvalues --  -11.40490 -11.36912  -7.99188  -1.88809  -1.68691
  Beta  occ. eigenvalues --   -1.26486  -1.14158  -1.07304  -0.97378  -0.89781
  Beta  occ. eigenvalues --   -0.83751  -0.78390  -0.70295  -0.70092  -0.65567
  Beta  occ. eigenvalues --   -0.61256  -0.59245  -0.57477  -0.54135  -0.52466
  Beta  occ. eigenvalues --   -0.48848  -0.47283  -0.47022  -0.43837  -0.38985
  Beta  occ. eigenvalues --   -0.37991  -0.35675  -0.31946  -0.21366
  Beta virt. eigenvalues --    0.03504   0.04356   0.04648   0.04889   0.05343
  Beta virt. eigenvalues --    0.06034   0.06425   0.06583   0.06797   0.08157
  Beta virt. eigenvalues --    0.08816   0.09795   0.11396   0.12602   0.12778

 Mulliken charges and spin densities:
               1          2
     1  H    2.306196  -0.677193
     2  C   -4.113509  -0.297284
     3  H    1.396063   0.023703
     4  C   -3.806343  -0.048791
     5  H    1.350673  -0.005600
     6  H    1.392113  -0.003682
     7  H    1.451770   0.001978
     8  C   -2.630193   0.023935
     9  H    1.267751  -0.005834
    10  H    1.413143   0.005120
    11  C    6.269335   1.301053
    12  C   -1.983821  -0.013498
    13  C   -2.465048   0.015609
    14  H    1.470121  -0.002726
    15  H    1.421797   0.019322
    16  H    1.446867   0.001935
    17  H    1.390860  -0.000091
    18  S   -0.364821   0.532972
    19  O   -3.732975   0.074517
    20  O   -3.479981   0.054557
 Sum of Mulliken charges =  -0.00000   1.00000

 Dipole moment (field-independent basis, Debye):
    X=              1.6926    Y=              0.3478    Z=              0.4895  Tot=              1.7959
                          Isotropic Fermi Contact Couplings
        Atom                 a.u.       MegaHertz       Gauss      10(-4) cm-1
     1  H(1)              -0.04622    -206.61778     -73.72636     -68.92027
     2  C(13)              0.00375       4.21429       1.50376       1.40574
     3  H(1)               0.00920      41.13647      14.67851      13.72165
     4  C(13)             -0.00618      -6.94968      -2.47982      -2.31816
     5  H(1)               0.00359      16.05313       5.72816       5.35475
     6  H(1)               0.00049       2.19245       0.78232       0.73132
     7  H(1)               0.00020       0.90932       0.32447       0.30332
     8  C(13)              0.00366       4.11133       1.46702       1.37139

 Normal termination of Gaussian 16 at Wed Apr  9 01:00:33 2025.
