 Gaussian 16, Revision C.01,

 ----------------------------------------------------------------------
 #t hf aug-cc-pvdz symm=none int=(grid=ultrafine) guess=(read,tcheck) s
 table=opt
 ----------------------------------------------------------------------
 -----
 title
 -----
 Symbolic Z-matrix:
 Charge =  0 Multiplicity = 2

 SCF Done:  E(UHF) =  -782.931202668     A.U. after   20 cycles
 Normal termination of Gaussian 16 at Wed Apr  9 00:58:42 2025.
 Gaussian 16:  ES64L-G16RevC.01  3-Jul-2019

 ----------------------------------------------------------------------
 #t hf aug-cc-pvdz iop(5/13=1,5/36=2,99/5=2) pseudo=read geom=check gue
 ss=(read,tcheck) scf=(maxcycle=1)
 ----------------------------------------------------------------------
 -----
 title
 -----
 Structure from the checkpoint file:  "BH10-RE_128_mol1.chk"
 Charge =  0 Multiplicity = 2

                         Standard orientation:
 ---------------------------------------------------------------------
 Center     Atomic      Atomic             Coordinates (Angstroms)
 Number     Number       Type             X           Y           Z
 ---------------------------------------------------------------------
      1          6           0        3.200838    0.401652   -0.050926
      2          6           0        2.777169   -0.851885    0.633600
      3          6           0        2.192984    1.478916   -0.255847
      4          6           0        1.425170   -1.366906    0.120386
      5          6           0        0.393408   -0.241251    0.108821
      6          6           0        0.852220    0.926769   -0.759184
      7          6           0       -2.326383    0.277813    0.264722
      8          6           0       -3.773988    0.037907   -0.077811
      9          8           0       -1.953528    1.195607    0.947022
     10          1           0        2.681918   -0.665595    1.717302
     11          1           0        3.536882   -1.629991    0.529413
     12          1           0        2.567668    2.238422   -0.945870
     13          1           0        2.010156    2.001597    0.698563
     14          1           0        1.076610   -2.193007    0.744069
     15          1           0        1.548586   -1.756119   -0.895482
     16          1           0        0.215699    0.113021    1.127030
     17          1           0        0.097169    1.713845   -0.751095
     18          1           0        0.961269    0.579453   -1.791142
     19          1           0       -4.378570    0.201668    0.814162
     20          1           0       -3.948210   -0.962100   -0.473045
     21          1           0       -4.072391    0.771778   -0.829783
     22         16           0       -1.210812   -0.911155   -0.453980
     23          1           0        4.255919    0.622553   -0.159191
 ---------------------------------------------------------------------

 SCF Done:  E(UHF) =  -785.000416831     A.U. after    2 cycles

 The electronic state is 2-A.
 Alpha  occ. eigenvalues --  -75.68846 -21.05563 -13.17281 -13.11986 -13.04968
 Alpha  occ. eigenvalues --  -11.50369 -11.44930 -11.44272 -11.42694 -11.39488
 Alpha  occ. eigenvalues --  -11.38269 -11.37996 -11.34755  -8.03225  -1.72101
 Alpha  occ. eigenvalues --   -1.34615  -1.19709  -1.11724  -1.11075  -1.03630
 Alpha  occ. eigenvalues --   -0.89717  -0.86700  -0.77677  -0.74470  -0.66679
 Alpha  occ. eigenvalues --   -0.63833  -0.61897  -0.60710  -0.60391  -0.58209
 Alpha  occ. eigenvalues --   -0.55863  -0.53366  -0.51394  -0.49815  -0.48548
 Alpha  occ. eigenvalues --   -0.47704  -0.45084  -0.43241  -0.41062  -0.35496
 Alpha  occ. eigenvalues --   -0.29352  -0.26198  -0.24439
 Alpha virt. eigenvalues --    0.03649   0.04287   0.05203   0.05404   0.05571
 Alpha virt. eigenvalues --    0.05743   0.06272   0.06530   0.06783   0.07287
 Alpha virt. eigenvalues --    0.08136   0.08512   0.09102   0.10457   0.12242

  Beta  occ. eigenvalues --  -75.68843 -21.05563 -13.17271 -13.11984 -13.04965
  Beta  occ. eigenvalues --  -11.50369 -11.44908 -11.44346 -11.42127 -11.39488
  Beta  occ. eigenvalues --  -11.38278 -11.37354 -11.34057  -8.03221  -1.72100
  Beta  occ. eigenvalues --   -1.33663  -1.18814  -1.11202  -1.10318  -1.02226
  Beta  occ. eigenvalues --   -0.89542  -0.84704  -0.75197  -0.74438  -0.66072
  Beta  occ. eigenvalues --   -0.63620  -0.61387  -0.60391  -0.59359  -0.57041
  Beta  occ. eigenvalues --   -0.54950  -0.53313  -0.50865  -0.49176  -0.47977
  Beta  occ. eigenvalues --   -0.46979  -0.44920  -0.43098  -0.40563  -0.34955
  Beta  occ. eigenvalues --   -0.26323  -0.24454
  Beta virt. eigenvalues --    0.03629   0.03977   0.05206   0.05424   0.05574
  Beta virt. eigenvalues --    0.05668   0.06259   0.06486   0.06778   0.07283
  Beta virt. eigenvalues --    0.07944   0.08523   0.09109   0.10133   0.11206

 Mulliken charges and spin densities:
               1          2
     1  C   -0.602307   1.807660
     2  C   -3.412621  -0.444954
     3  C   -3.373223  -0.424809
     4  C   -3.615750   0.078593
     5  C   -0.216562  -0.110504
     6  C   -3.452371   0.026836
     7  C    3.639155   0.000121
     8  C   -5.036566  -0.000063
     9  O   -3.232982  -0.000378
    10  H    1.281617   0.021375
    11  H    1.330150  -0.006784
    12  H    1.345780  -0.006344
    13  H    1.268724   0.019381
    14  H    1.392607   0.007104
    15  H    1.360637  -0.001194
    16  H    2.002685  -0.005529
    17  H    1.595267   0.006209
    18  H    1.461251  -0.004721
    19  H    1.223430   0.000243
    20  H    1.518392   0.000218
    21  H    1.307887   0.000203
    22  S    0.790587   0.016435
    23  H    1.424213   0.020902
 Sum of Mulliken charges =  -0.00000   1.00000

 Dipole moment (field-independent basis, Debye):
    X=              0.6204    Y=             -1.1701    Z=             -0.6811  Tot=              1.4893
                          Isotropic Fermi Contact Couplings
        Atom                 a.u.       MegaHertz       Gauss      10(-4) cm-1
     1  C(13)              0.14277     160.49773      57.26958      53.53628
     2  C(13)             -0.03518     -39.55454     -14.11404     -13.19397
     3  C(13)             -0.03467     -38.97576     -13.90752     -13.00092
     4  C(13)              0.01828      20.55348       7.33399       6.85590
     5  C(13)             -0.00276      -3.10486      -1.10789      -1.03567
     6  C(13)              0.01753      19.70196       7.03015       6.57187
     7  C(13)              0.00016       0.17447       0.06226       0.05820
     8  C(13)              0.00030       0.33988       0.12128       0.11337

 Normal termination of Gaussian 16 at Wed Apr  9 00:58:58 2025.
