 Gaussian 16, Revision C.01,

 ----------------------------------------------------------------------
 #t hf aug-cc-pvdz symm=none int=(grid=ultrafine) guess=(read,tcheck) s
 table=(opt,rrhf)
 ----------------------------------------------------------------------
 -----
 title
 -----
 Symbolic Z-matrix:
 Charge =  0 Multiplicity = 1

 SCF Done:  E(RHF) =  -965.964503547     A.U. after   15 cycles
 Normal termination of Gaussian 16 at Wed Apr  9 01:55:58 2025.
 Gaussian 16:  ES64L-G16RevC.01  3-Jul-2019

 ----------------------------------------------------------------------
 #t hf aug-cc-pvdz iop(5/13=1,5/36=2,99/5=2) pseudo=read geom=check gue
 ss=(read,tcheck) scf=(maxcycle=1)
 ----------------------------------------------------------------------
 -----
 title
 -----
 Structure from the checkpoint file:  "BH10_344_forward_mol1.chk"
 Charge =  0 Multiplicity = 1

                         Standard orientation:
 ---------------------------------------------------------------------
 Center     Atomic      Atomic             Coordinates (Angstroms)
 Number     Number       Type             X           Y           Z
 ---------------------------------------------------------------------
      1          6           0       -0.053862   -1.860226   -0.340594
      2          6           0        1.015339   -1.083373   -0.842176
      3          1           0        0.042934   -2.156729    0.699898
      4          1           0        1.115722   -0.847203   -1.892980
      5          1           0       -0.378413   -2.674573   -0.983090
      6         16           0        1.715767    0.058522    0.204015
      7          8           0        1.439640    1.446226   -0.238750
      8          8           0        1.346793   -0.284622    1.589136
      9          6           0        3.479400   -0.145122    0.077029
     10          6           0        4.255215    0.808984   -0.401513
     11          1           0        3.819636   -1.110539    0.429781
     12          1           0        5.328149    0.674990   -0.470540
     13          1           0        3.824300    1.747644   -0.729148
     14          6           0       -2.785416   -1.442789    0.079547
     15          6           0       -1.557760    0.317937   -0.291642
     16          6           0       -3.598092   -0.358567    0.185645
     17          1           0       -3.008639   -2.489838    0.196849
     18          1           0       -0.700209    0.954224   -0.480028
     19          1           0       -4.648989   -0.272341    0.403722
     20          7           0       -1.524876   -0.996257   -0.222678
     21          7           0       -2.805815    0.744900   -0.050625
     22          6           0       -3.228928    2.136416   -0.017075
     23          1           0       -3.648496    2.374256    0.959787
     24          1           0       -2.359537    2.766595   -0.190793
     25          1           0       -3.970727    2.324276   -0.792972
 ---------------------------------------------------------------------

 SCF Done:  E(RHF) =  -968.881675510     A.U. after    2 cycles

 The electronic state is 1-A.
 Alpha  occ. eigenvalues --  -75.83067 -20.98706 -20.98579 -15.82447 -15.78203
 Alpha  occ. eigenvalues --  -13.43131 -13.35301 -13.31161 -11.49912 -11.47326
 Alpha  occ. eigenvalues --  -11.46042 -11.44827 -11.42072 -11.41588 -11.37770
 Alpha  occ. eigenvalues --  -11.32896  -8.17943  -1.76652  -1.63413  -1.59280
 Alpha  occ. eigenvalues --   -1.37826  -1.19256  -1.15748  -1.11549  -1.06426
 Alpha  occ. eigenvalues --   -0.98433  -0.86982  -0.85520  -0.82877  -0.76681
 Alpha  occ. eigenvalues --   -0.74043  -0.69140  -0.66234  -0.63904  -0.62620
 Alpha  occ. eigenvalues --   -0.61251  -0.59376  -0.58197  -0.58086  -0.57017
 Alpha  occ. eigenvalues --   -0.54036  -0.52135  -0.50114  -0.47548  -0.40344
 Alpha  occ. eigenvalues --   -0.39655  -0.38115  -0.35088  -0.34278  -0.33278
 Alpha  occ. eigenvalues --   -0.31442  -0.29633  -0.25106
 Alpha virt. eigenvalues --    0.02316   0.04136   0.04430   0.04907   0.05131
 Alpha virt. eigenvalues --    0.05749   0.06519   0.06833   0.07078   0.07950
 Alpha virt. eigenvalues --    0.08224   0.08648   0.10601   0.10796   0.11240

 Mulliken charges:
               1
     1  C   -2.374479
     2  C   -3.567577
     3  H    1.658018
     4  H    1.471426
     5  H    1.616040
     6  S    7.901678
     7  O   -2.826895
     8  O   -2.688389
     9  C   -3.190001
    10  C   -2.838674
    11  H    1.346333
    12  H    1.402125
    13  H    1.565697
    14  C    0.308606
    15  C    1.643897
    16  C   -0.348729
    17  H    1.393608
    18  H    2.783886
    19  H    1.329230
    20  N   -3.190991
    21  N   -4.146209
    22  C   -3.717737
    23  H    1.458025
    24  H    1.515341
    25  H    1.495771
 Sum of Mulliken charges =   0.00000

 Dipole moment (field-independent basis, Debye):
    X=             -8.4117    Y=              1.1537    Z=             -0.6416  Tot=              8.5147

 Test job not archived.
 1\1\GINC-SE393\SP\RHF\Aug-CC-pVDZ\C8H12N2O2S1\OHZDE\09-Apr-2025\0\\#t
 hf aug-cc-pvdz iop(5/13=1,5/36=2,99/5=2) pseudo=read geom=check guess=
 (read,tcheck) scf=(maxcycle=1)\\title\\0,1\C,0,-0.053862,-1.860226,-0.
 340594\C,0,1.015339,-1.083373,-0.842176\H,0,0.042934,-2.156729,0.69989
 8\H,0,1.115722,-0.847203,-1.89298\H,0,-0.378413,-2.674573,-0.98309\S,0
 ,1.715767,0.058522,0.204015\O,0,1.43964,1.446226,-0.23875\O,0,1.346793
 ,-0.284622,1.589136\C,0,3.4794,-0.145122,0.077029\C,0,4.255215,0.80898
 4,-0.401513\H,0,3.819636,-1.110539,0.429781\H,0,5.328149,0.67499,-0.47

 Normal termination of Gaussian 16 at Wed Apr  9 01:56:19 2025.
