 Gaussian 16, Revision C.01,

 ----------------------------------------------------------------------
 #t hf aug-cc-pvdz symm=none int=(grid=ultrafine) guess=(read,tcheck) s
 table=(opt,rrhf)
 ----------------------------------------------------------------------
 -----
 title
 -----
 Symbolic Z-matrix:
 Charge =  0 Multiplicity = 1

 SCF Done:  E(RHF) =  -726.890422276     A.U. after   17 cycles
 Normal termination of Gaussian 16 at Wed Apr  9 01:30:31 2025.
 Gaussian 16:  ES64L-G16RevC.01  3-Jul-2019

 ----------------------------------------------------------------------
 #t hf aug-cc-pvdz iop(5/13=1,5/36=2,99/5=2) pseudo=read geom=check gue
 ss=(read,tcheck) scf=(maxcycle=1)
 ----------------------------------------------------------------------
 -----
 title
 -----
 Structure from the checkpoint file:  "BH10_312_forward_mol1.chk"
 Charge =  0 Multiplicity = 1

                         Standard orientation:
 ---------------------------------------------------------------------
 Center     Atomic      Atomic             Coordinates (Angstroms)
 Number     Number       Type             X           Y           Z
 ---------------------------------------------------------------------
      1          6           0       -2.175398   -1.198349   -0.402162
      2          6           0       -3.544157   -1.092293   -0.214017
      3          6           0       -4.109364    0.121710    0.158172
      4          6           0       -3.288391    1.225240    0.351229
      5          6           0       -1.915264    1.111979    0.193798
      6          6           0       -1.330898   -0.104889   -0.180432
      7          1           0       -1.737402   -2.135495   -0.724833
      8          1           0       -4.177663   -1.956974   -0.375422
      9          1           0       -5.181557    0.209001    0.286636
     10          1           0       -3.720483    2.179079    0.632133
     11          1           0       -1.279245    1.976168    0.347310
     12          6           0        0.111113   -0.242377   -0.379767
     13          6           0        1.005383    0.214487    0.526270
     14          1           0        0.827599    0.675176    1.496246
     15          1           0        1.582868   -0.664949   -1.264718
     16         15           0        2.570685   -0.125993   -0.215875
     17          6           0        3.658201   -1.220939    0.765284
     18          1           0        3.929513   -0.748502    1.711300
     19          1           0        3.126646   -2.148853    0.974714
     20          1           0        4.568881   -1.447660    0.209028
     21          6           0        3.601813    1.350644   -0.528986
     22          1           0        3.034750    2.052470   -1.140033
     23          1           0        3.874362    1.838783    0.408587
     24          1           0        4.513232    1.070358   -1.059160
 ---------------------------------------------------------------------

 SCF Done:  E(RHF) =  -729.018877200     A.U. after    2 cycles

 The electronic state is 1-A.
 Alpha  occ. eigenvalues -- -105.21134 -11.49050 -11.41210 -11.40625 -11.40154
 Alpha  occ. eigenvalues --  -11.40114 -11.38906 -11.38211 -11.37960 -11.34412
 Alpha  occ. eigenvalues --  -11.32980  -2.80432  -1.59623  -1.53255  -1.49491
 Alpha  occ. eigenvalues --   -1.32812  -1.14958  -1.08224  -1.06731  -0.99511
 Alpha  occ. eigenvalues --   -0.99336  -0.84651  -0.83548  -0.73676  -0.69786
 Alpha  occ. eigenvalues --   -0.67466  -0.61425  -0.60180  -0.59805  -0.58643
 Alpha  occ. eigenvalues --   -0.57943  -0.55807  -0.54719  -0.53634  -0.48556
 Alpha  occ. eigenvalues --   -0.42949  -0.42108  -0.38500  -0.35169  -0.30825
 Alpha  occ. eigenvalues --   -0.28932  -0.22683  -0.18435  -0.11255
 Alpha virt. eigenvalues --    0.02586   0.04825   0.04928   0.05129   0.05884
 Alpha virt. eigenvalues --    0.06129   0.06304   0.06491   0.06744   0.07255
 Alpha virt. eigenvalues --    0.07654   0.08553   0.08689   0.09779   0.11252

 Mulliken charges:
               1
     1  C   -3.344334
     2  C   -1.881243
     3  C   -2.608372
     4  C   -1.849946
     5  C   -1.767310
     6  C    5.153930
     7  H    1.671265
     8  H    1.489593
     9  H    1.525089
    10  H    1.480385
    11  H    1.839824
    12  C   -0.947579
    13  C   -6.044479
    14  H    1.161639
    15  H    0.632304
    16  P    9.735392
    17  C   -6.404425
    18  H    1.181212
    19  H    0.915769
    20  H    1.183871
    21  C   -6.438058
    22  H    0.946879
    23  H    1.188308
    24  H    1.180287
 Sum of Mulliken charges =  -0.00000

 Dipole moment (field-independent basis, Debye):
    X=              6.5676    Y=              0.4075    Z=              0.7083  Tot=              6.6183

 Test job not archived.
 1\1\GINC-SE339\SP\RHF\Aug-CC-pVDZ\C10H13P1\OHZDE\09-Apr-2025\0\\#t hf
 aug-cc-pvdz iop(5/13=1,5/36=2,99/5=2) pseudo=read geom=check guess=(re
 ad,tcheck) scf=(maxcycle=1)\\title\\0,1\C,0,-2.175398,-1.198349,-0.402
 162\C,0,-3.544157,-1.092293,-0.214017\C,0,-4.109364,0.12171,0.158172\C
 ,0,-3.288391,1.22524,0.351229\C,0,-1.915264,1.111979,0.193798\C,0,-1.3
 30898,-0.104889,-0.180432\H,0,-1.737402,-2.135495,-0.724833\H,0,-4.177
 663,-1.956974,-0.375422\H,0,-5.181557,0.209001,0.286636\H,0,-3.720483,
 2.179079,0.632133\H,0,-1.279245,1.976168,0.34731\C,0,0.111113,-0.24237

 Normal termination of Gaussian 16 at Wed Apr  9 01:30:47 2025.
