 Gaussian 16, Revision C.01,

 ----------------------------------------------------------------------
 #t hf aug-cc-pvdz symm=none int=(grid=ultrafine) guess=(read,tcheck) s
 table=(opt,rrhf)
 ----------------------------------------------------------------------
 -----
 title
 -----
 Symbolic Z-matrix:
 Charge =  0 Multiplicity = 1

 SCF Done:  E(RHF) =  -684.406718881     A.U. after   15 cycles
 Normal termination of Gaussian 16 at Wed Apr  9 01:53:45 2025.
 Gaussian 16:  ES64L-G16RevC.01  3-Jul-2019

 ----------------------------------------------------------------------
 #t hf aug-cc-pvdz iop(5/13=1,5/36=2,99/5=2) pseudo=read geom=check gue
 ss=(read,tcheck) scf=(maxcycle=1)
 ----------------------------------------------------------------------
 -----
 title
 -----
 Structure from the checkpoint file:  "BH10_350_forward_mol3.chk"
 Charge =  0 Multiplicity = 1

                         Standard orientation:
 ---------------------------------------------------------------------
 Center     Atomic      Atomic             Coordinates (Angstroms)
 Number     Number       Type             X           Y           Z
 ---------------------------------------------------------------------
      1          7           0       -1.123517   -0.412023    0.000022
      2          6           0       -0.262895    0.707033    0.000122
      3          6           0        1.031617    0.336368   -0.000023
      4         16           0        1.104293   -1.413856   -0.000275
      5          6           0       -0.595731   -1.641146   -0.000188
      6          6           0       -0.831158    2.087027    0.000351
      7          1           0       -1.450762    2.267264   -0.881516
      8          1           0       -0.032950    2.826747    0.000415
      9          1           0       -1.450669    2.267011    0.882333
     10          6           0        2.260868    1.182935    0.000009
     11          1           0        2.011685    2.244252    0.000200
     12          1           0        2.875462    0.985527   -0.881158
     13          1           0        2.875609    0.985245    0.881011
     14          6           0       -2.573308   -0.243641    0.000138
     15          1           0       -2.899617    0.297858    0.889502
     16          1           0       -3.009447   -1.237549    0.000062
     17          1           0       -2.899737    0.298045   -0.889069
 ---------------------------------------------------------------------

 SCF Done:  E(RHF) =  -686.045784041     A.U. after    2 cycles

 The electronic state is 1-A.
 Alpha  occ. eigenvalues --  -75.69051 -15.78175 -13.16515 -13.13390 -13.01422
 Alpha  occ. eigenvalues --  -11.47618 -11.42697 -11.41784 -11.40645 -11.38437
 Alpha  occ. eigenvalues --  -11.38020  -8.03747  -1.52591  -1.24510  -1.16314
 Alpha  occ. eigenvalues --   -1.08015  -1.01084  -0.95683  -0.79425  -0.71754
 Alpha  occ. eigenvalues --   -0.65060  -0.64182  -0.59339  -0.58914  -0.58745
 Alpha  occ. eigenvalues --   -0.57568  -0.55197  -0.49758  -0.49564  -0.47049
 Alpha  occ. eigenvalues --   -0.36434  -0.32838  -0.31808  -0.26919
 Alpha virt. eigenvalues --    0.02731   0.04483   0.05284   0.05575   0.06036
 Alpha virt. eigenvalues --    0.06560   0.07142   0.07300   0.08261   0.08826
 Alpha virt. eigenvalues --    0.09727   0.11595   0.12104   0.12465   0.12651

 Mulliken charges:
               1
     1  N   -3.354862
     2  C    2.634474
     3  C    1.364985
     4  S    2.249345
     5  C   -1.942441
     6  C   -4.434370
     7  H    1.163231
     8  H    1.212755
     9  H    1.163236
    10  C   -4.602706
    11  H    1.276114
    12  H    1.242692
    13  H    1.242693
    14  C   -3.636437
    15  H    1.481005
    16  H    1.459288
    17  H    1.480998
 Sum of Mulliken charges =  -0.00000

 Dipole moment (field-independent basis, Debye):
    X=              1.0386    Y=              2.9604    Z=              0.0003  Tot=              3.1373

 Test job not archived.
 1\1\GINC-SE212\SP\RHF\Aug-CC-pVDZ\C6H9N1S1\OHZDE\09-Apr-2025\0\\#t hf
 aug-cc-pvdz iop(5/13=1,5/36=2,99/5=2) pseudo=read geom=check guess=(re
 ad,tcheck) scf=(maxcycle=1)\\title\\0,1\N,0,1.123517,-0.412023,-0.0000
 22\C,0,0.262895,0.707033,-0.000122\C,0,-1.031617,0.336368,0.000023\S,0
 ,-1.104293,-1.413856,0.000275\C,0,0.595731,-1.641146,0.000188\C,0,0.83
 1159,2.087027,-0.000351\H,0,1.450763,2.267264,0.881516\H,0,0.032951,2.
 826747,-0.000415\H,0,1.45067,2.267011,-0.882333\C,0,-2.260867,1.182936
 ,-0.000009\H,0,-2.011684,2.244253,-0.0002\H,0,-2.875461,0.985528,0.881

 Normal termination of Gaussian 16 at Wed Apr  9 01:53:53 2025.
