 Gaussian 16, Revision C.01,

 ----------------------------------------------------------------------
 #t hf aug-cc-pvdz symm=none int=(grid=ultrafine) guess=(read,tcheck) s
 table=opt
 ----------------------------------------------------------------------
 -----
 title
 -----
 Symbolic Z-matrix:
 Charge =  0 Multiplicity = 2

 SCF Done:  E(UHF) =  -1426.17203727     A.U. after   20 cycles

 1\1\GINC-SE459\Stability\UHF\Aug-CC-pVDZ\C6H11S3\OHZDE\09-Apr-2025\0\\
 #t hf aug-cc-pvdz symm=none int=(grid=ultrafine) guess=(read,tcheck) s
 table=opt\\title\\0,2\H,0,0.631352,0.697623,-0.237874\C,0,0.847165,-1.
 52259,-0.227314\H,0,0.429012,-2.460027,0.153362\C,0,2.907064,-0.032251
 ,-0.159627\H,0,3.81742,0.183034,0.400909\H,0,1.065552,-1.683402,-1.287
 095\H,0,3.198636,-0.317632,-1.172538\C,0,2.147609,-1.178506,0.502861\H
 ,0,2.789752,-2.063841,0.507465\H,0,1.937196,-0.929232,1.546342\C,0,-0.
 196502,-0.431792,-0.111345\C,0,-2.773189,0.304859,-0.453983\C,0,-2.224

 Normal termination of Gaussian 16 at Wed Apr  9 01:00:46 2025.
 Gaussian 16:  ES64L-G16RevC.01  3-Jul-2019

 ----------------------------------------------------------------------
 #t hf aug-cc-pvdz iop(5/13=1,5/36=2,99/5=2) pseudo=read geom=check gue
 ss=(read,tcheck) scf=(maxcycle=1)
 ----------------------------------------------------------------------
 -----
 title
 -----
 Structure from the checkpoint file:  "BH10_159_forward_mol1.chk"
 Charge =  0 Multiplicity = 2

                         Standard orientation:
 ---------------------------------------------------------------------
 Center     Atomic      Atomic             Coordinates (Angstroms)
 Number     Number       Type             X           Y           Z
 ---------------------------------------------------------------------
      1          1           0        0.631352    0.697623   -0.237874
      2          6           0        0.847165   -1.522590   -0.227314
      3          1           0        0.429012   -2.460027    0.153362
      4          6           0        2.907064   -0.032251   -0.159627
      5          1           0        3.817420    0.183034    0.400909
      6          1           0        1.065552   -1.683402   -1.287095
      7          1           0        3.198636   -0.317632   -1.172538
      8          6           0        2.147609   -1.178506    0.502861
      9          1           0        2.789752   -2.063841    0.507465
     10          1           0        1.937196   -0.929232    1.546342
     11          6           0       -0.196502   -0.431792   -0.111345
     12          6           0       -2.773189    0.304859   -0.453983
     13          6           0       -2.224237    0.895309    0.834084
     14          1           0       -3.296520    1.057789   -1.042974
     15          1           0       -3.450375   -0.522425   -0.244157
     16          1           0       -1.757173    1.865570    0.661143
     17          1           0       -3.003590    1.006587    1.587762
     18         16           0       -1.375925   -0.327808   -1.448589
     19         16           0       -0.975485   -0.255162    1.476378
     20         16           0        1.938365    1.517707   -0.226564
 ---------------------------------------------------------------------

 SCF Done:  E(UHF) =  -1428.04838998     A.U. after    2 cycles

 The electronic state is 2-A.
 Alpha  occ. eigenvalues --  -75.69620 -75.69467 -75.66584 -13.16989 -13.15781
 Alpha  occ. eigenvalues --  -13.14158 -13.11159 -13.10487 -13.09526 -13.05938
 Alpha  occ. eigenvalues --  -13.05120 -13.00208 -11.47286 -11.45200 -11.43723
 Alpha  occ. eigenvalues --  -11.41271 -11.40533 -11.37452  -8.03967  -8.03531
 Alpha  occ. eigenvalues --   -8.00301  -1.38660  -1.25648  -1.13985  -1.12441
 Alpha  occ. eigenvalues --   -1.07303  -0.97409  -0.87009  -0.84613  -0.81137
 Alpha  occ. eigenvalues --   -0.67659  -0.66885  -0.64862  -0.61360  -0.59085
 Alpha  occ. eigenvalues --   -0.56891  -0.54654  -0.50087  -0.49709  -0.46579
 Alpha  occ. eigenvalues --   -0.43469  -0.42326  -0.38307  -0.34976  -0.29712
 Alpha  occ. eigenvalues --   -0.24725  -0.21230  -0.17206
 Alpha virt. eigenvalues --    0.02751   0.03695   0.04989   0.05181   0.05675
 Alpha virt. eigenvalues --    0.05947   0.06445   0.06522   0.07213   0.07798
 Alpha virt. eigenvalues --    0.08942   0.09322   0.10185   0.11627   0.11757

  Beta  occ. eigenvalues --  -75.69601 -75.69420 -75.66027 -13.16955 -13.15670
  Beta  occ. eigenvalues --  -13.14202 -13.11095 -13.09323 -13.08545 -13.05162
  Beta  occ. eigenvalues --  -13.04106 -12.99835 -11.46405 -11.45149 -11.43319
  Beta  occ. eigenvalues --  -11.41032 -11.40484 -11.37402  -8.03936  -8.03484
  Beta  occ. eigenvalues --   -7.99678  -1.37350  -1.25170  -1.12126  -1.11990
  Beta  occ. eigenvalues --   -1.05476  -0.96226  -0.86845  -0.83669  -0.76626
  Beta  occ. eigenvalues --   -0.66755  -0.66065  -0.64516  -0.61065  -0.58764
  Beta  occ. eigenvalues --   -0.55346  -0.52292  -0.49713  -0.48765  -0.45559
  Beta  occ. eigenvalues --   -0.42908  -0.42067  -0.37680  -0.34086  -0.27012
  Beta  occ. eigenvalues --   -0.23921  -0.20407
  Beta virt. eigenvalues --    0.02758   0.03497   0.04929   0.05204   0.05662
  Beta virt. eigenvalues --    0.05944   0.06042   0.06485   0.07138   0.07786
  Beta virt. eigenvalues --    0.08456   0.09300   0.09497   0.10299   0.11794

 Mulliken charges and spin densities:
               1          2
     1  H    3.526809  -0.502569
     2  C   -3.792561  -0.227322
     3  H    1.344348   0.007998
     4  C   -3.618985  -0.076692
     5  H    1.376141  -0.002537
     6  H    1.400542   0.002843
     7  H    1.486849   0.000310
     8  C   -2.880596   0.054959
     9  H    1.298383  -0.005282
    10  H    1.466101   0.009522
    11  C   -0.859952   1.002104
    12  C   -3.617630   0.016981
    13  C   -3.813921  -0.039099
    14  H    1.390808   0.002081
    15  H    1.537792  -0.012838
    16  H    1.440909   0.005848
    17  H    1.354694  -0.001312
    18  S    0.685298   0.070606
    19  S    0.642375   0.038424
    20  S   -0.367403   0.655974
 Sum of Mulliken charges =   0.00000   1.00000

 Dipole moment (field-independent basis, Debye):
    X=             -0.8855    Y=             -0.5680    Z=              0.5934  Tot=              1.2079
                          Isotropic Fermi Contact Couplings
        Atom                 a.u.       MegaHertz       Gauss      10(-4) cm-1
     1  H(1)              -0.04866    -217.50013     -77.60946     -72.55024
     2  C(13)             -0.01576     -17.71858      -6.32243      -5.91028
     3  H(1)               0.00922      41.22530      14.71021      13.75128
     4  C(13)             -0.00777      -8.73028      -3.11518      -2.91211
     5  H(1)               0.00480      21.47732       7.66364       7.16406
     6  H(1)               0.00099       4.43177       1.58137       1.47828
     7  H(1)               0.00023       1.03929       0.37084       0.34667
     8  C(13)              0.00661       7.43111       2.65160       2.47875

 Normal termination of Gaussian 16 at Wed Apr  9 01:00:57 2025.
