 Gaussian 16, Revision C.01,

 ----------------------------------------------------------------------
 #t hf aug-cc-pvdz symm=none int=(grid=ultrafine) guess=(read,tcheck) s
 table=(opt,rrhf)
 ----------------------------------------------------------------------
 -----
 title
 -----
 Symbolic Z-matrix:
 Charge =  0 Multiplicity = 1

 SCF Done:  E(RHF) =  -742.491840902     A.U. after   14 cycles
 Normal termination of Gaussian 16 at Wed Apr  9 00:59:29 2025.
 Gaussian 16:  ES64L-G16RevC.01  3-Jul-2019

 ----------------------------------------------------------------------
 #t hf aug-cc-pvdz iop(5/13=1,5/36=2,99/5=2) pseudo=read geom=check gue
 ss=(read,tcheck) scf=(maxcycle=1)
 ----------------------------------------------------------------------
 -----
 title
 -----
 Structure from the checkpoint file:  "BH10_163_forward_mol2.chk"
 Charge =  0 Multiplicity = 1

                         Standard orientation:
 ---------------------------------------------------------------------
 Center     Atomic      Atomic             Coordinates (Angstroms)
 Number     Number       Type             X           Y           Z
 ---------------------------------------------------------------------
      1          6           0       -2.529849   -0.103247    0.987313
      2         16           0       -1.792261   -0.321828   -0.653291
      3          6           0       -0.497444    0.949981   -0.599612
      4          6           0        0.646676    0.663647    0.370866
      5          6           0        1.654758    1.817138    0.379785
      6          6           0        1.353018   -0.608203   -0.039032
      7          8           0        1.481126   -1.480179    0.977739
      8          8           0        1.788795   -0.827166   -1.136358
      9          1           0       -3.405794   -0.749425    1.027321
     10          1           0       -1.847349   -0.398777    1.783398
     11          1           0       -2.851876    0.928449    1.134523
     12          1           0        1.162143    2.744582    0.677176
     13          1           0        2.084491    1.955583   -0.613805
     14          1           0        2.468448    1.626513    1.081798
     15          1           0       -0.104643    1.005700   -1.615736
     16          1           0       -0.952407    1.913870   -0.361379
     17          1           0        0.254885    0.522236    1.378766
     18          1           0        1.945949   -2.256621    0.633620
 ---------------------------------------------------------------------

 SCF Done:  E(RHF) =  -744.301661809     A.U. after    2 cycles

 The electronic state is 1-A.
 Alpha  occ. eigenvalues --  -75.67439 -21.12352 -21.04949 -13.12738 -13.09158
 Alpha  occ. eigenvalues --  -13.03818 -11.53013 -11.44902 -11.41831 -11.39549
 Alpha  occ. eigenvalues --  -11.38542  -8.01530  -1.83279  -1.65363  -1.28936
 Alpha  occ. eigenvalues --   -1.16753  -1.02477  -0.95283  -0.88395  -0.76470
 Alpha  occ. eigenvalues --   -0.69197  -0.61982  -0.61522  -0.59848  -0.58847
 Alpha  occ. eigenvalues --   -0.58018  -0.55532  -0.53631  -0.49993  -0.48819
 Alpha  occ. eigenvalues --   -0.44557  -0.43019  -0.35842  -0.33666  -0.29537
 Alpha  occ. eigenvalues --   -0.22406
 Alpha virt. eigenvalues --    0.03346   0.04094   0.04973   0.05360   0.05764
 Alpha virt. eigenvalues --    0.06108   0.06503   0.07079   0.08225   0.09502
 Alpha virt. eigenvalues --    0.09735   0.11245   0.12489   0.13254   0.13536

 Mulliken charges:
               1
     1  C   -4.869689
     2  S    0.851996
     3  C   -4.174110
     4  C   -1.361839
     5  C   -4.341769
     6  C    6.814646
     7  O   -3.352404
     8  O   -3.309342
     9  H    1.380262
    10  H    1.533756
    11  H    1.391285
    12  H    1.178589
    13  H    1.373311
    14  H    1.188327
    15  H    1.467343
    16  H    1.453138
    17  H    1.947131
    18  H    0.829368
 Sum of Mulliken charges =  -0.00000

 Dipole moment (field-independent basis, Debye):
    X=             -0.6761    Y=             -0.0481    Z=              0.8145  Tot=              1.0596

 Test job not archived.
 1\1\GINC-SE344\SP\RHF\Aug-CC-pVDZ\C5H10O2S1\OHZDE\09-Apr-2025\0\\#t hf
  aug-cc-pvdz iop(5/13=1,5/36=2,99/5=2) pseudo=read geom=check guess=(r
 ead,tcheck) scf=(maxcycle=1)\\title\\0,1\C,0,-2.529849,-0.103247,0.987
 313\S,0,-1.792261,-0.321828,-0.653291\C,0,-0.497444,0.949981,-0.599612
 \C,0,0.646676,0.663647,0.370866\C,0,1.654758,1.817138,0.379785\C,0,1.3
 53018,-0.608203,-0.039032\O,0,1.481126,-1.480179,0.977739\O,0,1.788795
 ,-0.827166,-1.136358\H,0,-3.405794,-0.749425,1.027321\H,0,-1.847349,-0
 .398777,1.783398\H,0,-2.851876,0.928449,1.134523\H,0,1.162143,2.744582

 Normal termination of Gaussian 16 at Wed Apr  9 00:59:37 2025.
