 Gaussian 16, Revision C.01,

 ----------------------------------------------------------------------
 #t hf aug-cc-pvdz symm=none int=(grid=ultrafine) guess=(read,tcheck) s
 table=(opt,rrhf)
 ----------------------------------------------------------------------
 -----
 title
 -----
 Symbolic Z-matrix:
 Charge =  0 Multiplicity = 1

 SCF Done:  E(RHF) =  -678.898197236     A.U. after   15 cycles
 Normal termination of Gaussian 16 at Wed Apr  9 01:27:29 2025.
 Gaussian 16:  ES64L-G16RevC.01  3-Jul-2019

 ----------------------------------------------------------------------
 #t hf aug-cc-pvdz iop(5/13=1,5/36=2,99/5=2) pseudo=read geom=check gue
 ss=(read,tcheck) scf=(maxcycle=1)
 ----------------------------------------------------------------------
 -----
 title
 -----
 Structure from the checkpoint file:  "BH10_283_forward_mol1.chk"
 Charge =  0 Multiplicity = 1

                         Standard orientation:
 ---------------------------------------------------------------------
 Center     Atomic      Atomic             Coordinates (Angstroms)
 Number     Number       Type             X           Y           Z
 ---------------------------------------------------------------------
      1          6           0       -1.707965    1.004765   -0.597139
      2          6           0       -0.474269   -0.848354    0.778063
      3          6           0       -2.823491    1.043222    0.473101
      4          1           0       -2.627934    1.905613    1.120309
      5          1           0       -3.794528    1.231379    0.000182
      6          1           0        0.433158   -1.168462    1.298744
      7          1           0       -1.679116    2.000081   -1.055235
      8          1           0       -0.125825    1.408220    1.147304
      9          6           0       -1.596682   -0.793210    1.839018
     10          1           0       -1.774097   -1.797451    2.241610
     11          1           0       -1.232128   -0.185799    2.673962
     12          5           0       -0.381883    0.659239    0.223244
     13          6           0        1.057145    1.882515   -0.290856
     14          6           0        1.179758    0.699896   -0.916300
     15          1           0        0.751028    0.548693   -1.897593
     16          6           0        1.195420    3.125213    0.060183
     17          1           0        1.945050    3.722229   -0.447400
     18          1           0        0.592334    3.583596    0.829523
     19          6           0        2.227134   -0.281668   -0.532439
     20          8           0        2.547537   -1.211041   -1.224565
     21          8           0        2.775807   -0.006791    0.653603
     22          6           0        3.764154   -0.935167    1.110624
     23          1           0        4.597957   -0.977905    0.410561
     24          1           0        4.091007   -0.560616    2.076573
     25          1           0        3.328970   -1.929312    1.211008
     26          6           0       -0.752332   -1.851457   -0.357223
     27          1           0        0.156228   -1.961773   -0.954693
     28          1           0       -0.945877   -2.842348    0.070458
     29          6           0       -1.964719   -0.013633   -1.721388
     30          1           0       -1.222865    0.147896   -2.513141
     31          1           0       -2.933771    0.185211   -2.193940
     32          6           0       -2.936519   -0.214772    1.351705
     33          1           0       -3.488214   -0.984594    0.812803
     34          1           0       -3.552756    0.022274    2.224554
     35          6           0       -1.915383   -1.488688   -1.294775
     36          1           0       -1.847483   -2.112353   -2.191350
     37          1           0       -2.861986   -1.760090   -0.828205
 ---------------------------------------------------------------------

 SCF Done:  E(RHF) =  -682.193716497     A.U. after    2 cycles

 The electronic state is 1-A.
 Alpha  occ. eigenvalues --  -21.09869 -21.05430 -11.56345 -11.51807 -11.48309
 Alpha  occ. eigenvalues --  -11.45625 -11.44681 -11.42437 -11.42035 -11.41829
 Alpha  occ. eigenvalues --  -11.39712 -11.37812 -11.35412 -11.33998 -11.33503
 Alpha  occ. eigenvalues --   -7.58881  -1.85885  -1.67269  -1.34621  -1.27346
 Alpha  occ. eigenvalues --   -1.15403  -1.14196  -1.09839  -1.03079  -1.00557
 Alpha  occ. eigenvalues --   -0.96289  -0.86396  -0.81962  -0.80743  -0.79643
 Alpha  occ. eigenvalues --   -0.74907  -0.70325  -0.68450  -0.66347  -0.65022
 Alpha  occ. eigenvalues --   -0.64387  -0.63685  -0.59483  -0.58644  -0.58042
 Alpha  occ. eigenvalues --   -0.56922  -0.55917  -0.55551  -0.54581  -0.52644
 Alpha  occ. eigenvalues --   -0.52010  -0.48369  -0.45083  -0.44417  -0.42991
 Alpha  occ. eigenvalues --   -0.42500  -0.42034  -0.40627  -0.40588  -0.39350
 Alpha  occ. eigenvalues --   -0.34594  -0.34345  -0.32272  -0.31582  -0.29869
 Alpha virt. eigenvalues --    0.03223   0.04143   0.04542   0.05122   0.05294
 Alpha virt. eigenvalues --    0.05819   0.06097   0.06214   0.06419   0.06535
 Alpha virt. eigenvalues --    0.06750   0.06969   0.07002   0.07487   0.07582

 Mulliken charges:
               1
     1  C   -2.976629
     2  C   -2.547358
     3  C   -3.357544
     4  H    0.596789
     5  H    1.398792
     6  H    0.692928
     7  H    0.620291
     8  H   -8.211677
     9  C   -3.874248
    10  H    1.312930
    11  H    0.872569
    12  B   24.117656
    13  C    3.557467
    14  C   -5.725695
    15  H    1.039399
    16  C   -6.616201
    17  H    1.399092
    18  H    1.528721
    19  C    8.947636
    20  O   -3.888296
    21  O   -3.941715
    22  C   -3.661003
    23  H    1.428869
    24  H    1.377667
    25  H    1.503026
    26  C   -4.237308
    27  H    1.210927
    28  H    1.241656
    29  C   -4.998748
    30  H    1.028481
    31  H    1.331476
    32  C   -3.669966
    33  H    1.268751
    34  H    1.250518
    35  C   -2.784963
    36  H    1.285072
    37  H    1.480641
 Sum of Mulliken charges =   0.00000

 Dipole moment (field-independent basis, Debye):
    X=              2.0975    Y=              2.0458    Z=              0.7694  Tot=              3.0293

 Test job not archived.
 1\1\GINC-SE177\SP\RHF\Aug-CC-pVDZ\C13H21B1O2\OHZDE\09-Apr-2025\0\\#t h
 f aug-cc-pvdz iop(5/13=1,5/36=2,99/5=2) pseudo=read geom=check guess=(
 read,tcheck) scf=(maxcycle=1)\\title\\0,1\C,0,-1.707965,1.004765,-0.59
 7139\C,0,-0.474269,-0.848354,0.778063\C,0,-2.823491,1.043222,0.473101\
 H,0,-2.627934,1.905613,1.120309\H,0,-3.794528,1.231379,0.000182\H,0,0.
 433158,-1.168462,1.298744\H,0,-1.679116,2.000081,-1.055235\H,0,-0.1258
 25,1.40822,1.147304\C,0,-1.596682,-0.79321,1.839018\H,0,-1.774097,-1.7
 97451,2.24161\H,0,-1.232128,-0.185799,2.673962\B,0,-0.381883,0.659239,

 Normal termination of Gaussian 16 at Wed Apr  9 01:28:34 2025.
