 Gaussian 16, Revision C.01,

 ----------------------------------------------------------------------
 #t hf aug-cc-pvdz symm=none int=(grid=ultrafine) guess=(read,tcheck) s
 table=(opt,rrhf)
 ----------------------------------------------------------------------
 -----
 title
 -----
 Symbolic Z-matrix:
 Charge =  0 Multiplicity = 1

 SCF Done:  E(RHF) =  -1125.15972735     A.U. after   15 cycles
 Normal termination of Gaussian 16 at Wed Apr  9 02:27:58 2025.
 Gaussian 16:  ES64L-G16RevC.01  3-Jul-2019

 ----------------------------------------------------------------------
 #t hf aug-cc-pvdz iop(5/13=1,5/36=2,99/5=2) pseudo=read geom=check gue
 ss=(read,tcheck) scf=(maxcycle=1)
 ----------------------------------------------------------------------
 -----
 title
 -----
 Structure from the checkpoint file:  "BH10_298_forward_mol1.chk"
 Charge =  0 Multiplicity = 1

                         Standard orientation:
 ---------------------------------------------------------------------
 Center     Atomic      Atomic             Coordinates (Angstroms)
 Number     Number       Type             X           Y           Z
 ---------------------------------------------------------------------
      1          6           0        1.871802   -2.468434    0.087719
      2          6           0        1.607128   -1.395582    1.160803
      3          6           0        1.424471    0.424994   -1.330839
      4          1           0        0.946328   -2.998360   -0.158761
      5          6           0        2.872854   -0.544919    1.435013
      6          1           0        2.979699   -0.419053    2.516614
      7          1           0        3.762734   -1.095522    1.112626
      8          1           0        1.201108    1.077799   -2.179638
      9          1           0        1.406641   -1.945647    2.088199
     10          1           0        0.174873    0.217825    1.936958
     11          6           0        2.879334    0.862242    0.833512
     12          1           0        2.105957    1.439803    1.341853
     13          1           0        3.824188    1.346369    1.102505
     14          6           0        2.688721    1.028877   -0.678555
     15          1           0        2.686631    2.107992   -0.866494
     16          1           0        3.569471    0.648960   -1.206249
     17          6           0        1.682670   -0.947154   -1.988777
     18          1           0        0.719186   -1.388321   -2.266206
     19          6           0        2.496625   -1.973427   -1.210296
     20          1           0        2.661618   -2.838139   -1.860801
     21          1           0        3.492357   -1.568263   -1.007962
     22          1           0        2.212128   -0.760494   -2.929977
     23          1           0        2.546823   -3.219401    0.515862
     24          6           0        0.153703    0.449098   -0.432104
     25          1           0       -0.622057    0.003488   -1.065875
     26         14           0       -0.533855    2.206066   -0.196039
     27          6           0        0.182626    3.168363    1.259153
     28          1           0        1.224120    3.450889    1.094897
     29          1           0       -0.389033    4.091098    1.393591
     30          1           0        0.134244    2.611910    2.197967
     31          6           0       -0.226880    3.236289   -1.745208
     32          1           0       -0.721088    4.207478   -1.653320
     33          1           0       -0.626835    2.747985   -2.638042
     34          1           0        0.835227    3.423611   -1.917920
     35          6           0       -2.402665    2.157942    0.040483
     36          1           0       -2.896921    1.796373   -0.864001
     37          1           0       -2.713450    1.511912    0.861302
     38          1           0       -2.775136    3.167022    0.238194
     39          5           0        0.339182   -0.427305    0.913928
     40          6           0       -1.347213   -0.873457    2.005305
     41          6           0       -1.118346   -1.800612    1.062060
     42          1           0       -0.565322   -2.694831    1.311306
     43          6           0       -1.891041   -0.205585    2.978528
     44          1           0       -2.796761   -0.601934    3.425390
     45          1           0       -1.492464    0.726397    3.350415
     46          6           0       -1.886447   -1.910850   -0.200957
     47          8           0       -1.674330   -2.760599   -1.025358
     48          8           0       -2.842436   -0.985750   -0.311848
     49          6           0       -3.592183   -1.009309   -1.530286
     50          1           0       -4.091184   -1.970179   -1.650127
     51          1           0       -4.318081   -0.206136   -1.440844
     52          1           0       -2.933767   -0.839087   -2.382243
 ---------------------------------------------------------------------

 SCF Done:  E(RHF) =  -1129.47118028     A.U. after    2 cycles

 The electronic state is 1-A.
 Alpha  occ. eigenvalues --  -76.16626 -21.09906 -21.05462 -11.56646 -11.52387
 Alpha  occ. eigenvalues --  -11.48825 -11.46641 -11.45248 -11.44855 -11.43516
 Alpha  occ. eigenvalues --  -11.42787 -11.41512 -11.40625 -11.37478 -11.35809
 Alpha  occ. eigenvalues --  -11.34861 -11.34696 -11.34196 -11.33673 -11.33268
 Alpha  occ. eigenvalues --   -7.60939  -5.50821  -2.15746  -2.14907  -2.14802
 Alpha  occ. eigenvalues --   -1.85982  -1.67291  -1.32998  -1.27923  -1.18118
 Alpha  occ. eigenvalues --   -1.15967  -1.10019  -1.07821  -1.05108  -1.01847
 Alpha  occ. eigenvalues --   -0.99964  -0.99579  -0.96740  -0.92471  -0.87893
 Alpha  occ. eigenvalues --   -0.82908  -0.81967  -0.74935  -0.73724  -0.71723
 Alpha  occ. eigenvalues --   -0.68366  -0.66836  -0.65609  -0.64680  -0.63862
 Alpha  occ. eigenvalues --   -0.63132  -0.61536  -0.59431  -0.58385  -0.57042
 Alpha  occ. eigenvalues --   -0.56843  -0.56698  -0.56212  -0.55507  -0.55212
 Alpha  occ. eigenvalues --   -0.54367  -0.54118  -0.53887  -0.52813  -0.52724
 Alpha  occ. eigenvalues --   -0.52012  -0.48486  -0.46243  -0.45364  -0.44737
 Alpha  occ. eigenvalues --   -0.43379  -0.43185  -0.42114  -0.41136  -0.39944
 Alpha  occ. eigenvalues --   -0.38398  -0.38291  -0.36755  -0.35658  -0.35357
 Alpha  occ. eigenvalues --   -0.34898  -0.32863  -0.30427  -0.30347
 Alpha virt. eigenvalues --    0.03331   0.04091   0.04524   0.04680   0.04898
 Alpha virt. eigenvalues --    0.05410   0.05540   0.05630   0.05685   0.05992
 Alpha virt. eigenvalues --    0.06071   0.06162   0.06402   0.06484   0.06857

 Mulliken charges:
               1
     1  C   -5.069772
     2  C   -4.624707
     3  C    1.330278
     4  H    1.248134
     5  C   -4.648138
     6  H    1.015748
     7  H    1.377817
     8  H    1.880346
     9  H   -0.371109
    10  H  -13.521414
    11  C   -4.258737
    12  H    1.067211
    13  H    1.644614
    14  C   -4.301473
    15  H    1.169969
    16  H    1.348183
    17  C   -5.669551
    18  H    1.388656
    19  C   -3.062234
    20  H    1.409576
    21  H    1.503513
    22  H    1.388424
    23  H    1.328244
    24  C   -8.334276
    25  H    2.162349
    26  Si  16.423346
    27  C   -7.085756
    28  H    0.887733
    29  H    0.991501
    30  H    1.015911
    31  C   -7.222544
    32  H    0.987889
    33  H    0.936590
    34  H    0.854489
    35  C   -7.172846
    36  H    0.905736
    37  H    0.981051
    38  H    1.068880
    39  B   32.507677
    40  C    1.844385
    41  C   -3.817295
    42  H    1.181282
    43  C   -7.312895
    44  H    1.290626
    45  H    1.399014
    46  C    9.455318
    47  O   -3.973230
    48  O   -3.807146
    49  C   -4.233906
    50  H    1.416542
    51  H    1.455419
    52  H    1.620578
 Sum of Mulliken charges =  -0.00000

 Dipole moment (field-independent basis, Debye):
    X=             -2.4149    Y=              0.1291    Z=              1.3856  Tot=              2.7871

 Test job not archived.
 1\1\GINC-SE227\SP\RHF\Aug-CC-pVDZ\C17H31B1O2Si1\OHZDE\09-Apr-2025\0\\#
 t hf aug-cc-pvdz iop(5/13=1,5/36=2,99/5=2) pseudo=read geom=check gues
 s=(read,tcheck) scf=(maxcycle=1)\\title\\0,1\C,0,1.871802,-2.468434,0.
 087719\C,0,1.607128,-1.395582,1.160803\C,0,1.424471,0.424994,-1.330839
 \H,0,0.946328,-2.99836,-0.158761\C,0,2.872854,-0.544919,1.435013\H,0,2
 .979699,-0.419053,2.516614\H,0,3.762734,-1.095522,1.112626\H,0,1.20110
 8,1.077799,-2.179638\H,0,1.406641,-1.945647,2.088199\H,0,0.174873,0.21
 7825,1.936958\C,0,2.879334,0.862242,0.833512\H,0,2.105957,1.439803,1.3

 Normal termination of Gaussian 16 at Wed Apr  9 02:31:06 2025.
