 Gaussian 16, Revision C.01,

 ----------------------------------------------------------------------
 #t hf aug-cc-pvdz symm=none int=(grid=ultrafine) guess=(read,tcheck) s
 table=opt
 ----------------------------------------------------------------------
 -----
 title
 -----
 Symbolic Z-matrix:
 Charge =  0 Multiplicity = 2

 SCF Done:  E(UHF) =  -815.591922123     A.U. after   24 cycles
 Normal termination of Gaussian 16 at Wed Apr  9 01:04:45 2025.
 Gaussian 16:  ES64L-G16RevC.01  3-Jul-2019

 ----------------------------------------------------------------------
 #t hf aug-cc-pvdz iop(5/13=1,5/36=2,99/5=2) pseudo=read geom=check gue
 ss=(read,tcheck) scf=(maxcycle=1)
 ----------------------------------------------------------------------
 -----
 title
 -----
 Structure from the checkpoint file:  "BH10_223_reverse_mol2.chk"
 Charge =  0 Multiplicity = 2

                         Standard orientation:
 ---------------------------------------------------------------------
 Center     Atomic      Atomic             Coordinates (Angstroms)
 Number     Number       Type             X           Y           Z
 ---------------------------------------------------------------------
      1          8           0        2.948715   -1.308680   -0.082153
      2          6           0        2.739308   -0.113695   -0.079759
      3          8           0        3.708271    0.789126   -0.351288
      4          6           0        1.465183    0.499975    0.204013
      5          6           0        0.304319   -0.344031    0.556291
      6          1           0        1.365228    1.576104    0.170970
      7          6           0       -1.020036    0.313465    0.212107
      8          1           0        0.280189   -0.511876    1.644567
      9          1           0        0.392646   -1.337157    0.111175
     10         16           0       -2.326709   -0.844617   -0.094874
     11          6           0       -3.693130    0.314926   -0.338815
     12          1           0       -3.858730    0.899781    0.562977
     13          1           0       -4.573914   -0.284826   -0.560833
     14          1           0       -3.475781    0.980004   -1.171131
     15          8           0       -1.181321    1.503977    0.179169
     16          1           0        4.518533    0.292624   -0.528594
 ---------------------------------------------------------------------

 SCF Done:  E(UHF) =  -817.615017637     A.U. after    2 cycles

 The electronic state is 2-A.
 Alpha  occ. eigenvalues --  -75.70498 -21.12314 -21.07069 -21.06795 -13.15045
 Alpha  occ. eigenvalues --  -13.11991 -13.03462 -11.53635 -11.51666 -11.45714
 Alpha  occ. eigenvalues --  -11.41280 -11.40589  -8.04865  -1.83584  -1.73562
 Alpha  occ. eigenvalues --   -1.66523  -1.25828  -1.20088  -1.04267  -0.96538
 Alpha  occ. eigenvalues --   -0.79461  -0.75655  -0.68205  -0.64747  -0.63130
 Alpha  occ. eigenvalues --   -0.61239  -0.60007  -0.57192  -0.56456  -0.54737
 Alpha  occ. eigenvalues --   -0.48808  -0.47327  -0.46009  -0.41415  -0.36537
 Alpha  occ. eigenvalues --   -0.34275  -0.31717  -0.27400  -0.25547
 Alpha virt. eigenvalues --    0.02933   0.03994   0.05457   0.05717   0.05933
 Alpha virt. eigenvalues --    0.06876   0.07580   0.09375   0.10616   0.11352
 Alpha virt. eigenvalues --    0.11776   0.11950   0.12590   0.12885   0.13276

  Beta  occ. eigenvalues --  -75.70495 -21.12333 -21.07119 -21.05683 -13.15040
  Beta  occ. eigenvalues --  -13.11990 -13.03452 -11.53935 -11.51634 -11.45008
  Beta  occ. eigenvalues --  -11.40594 -11.40390  -8.04862  -1.83152  -1.73622
  Beta  occ. eigenvalues --   -1.64845  -1.24658  -1.17798  -1.01607  -0.95827
  Beta  occ. eigenvalues --   -0.78481  -0.74653  -0.67472  -0.63018  -0.62161
  Beta  occ. eigenvalues --   -0.60956  -0.59619  -0.56085  -0.55555  -0.54622
  Beta  occ. eigenvalues --   -0.48400  -0.46825  -0.45484  -0.41247  -0.33065
  Beta  occ. eigenvalues --   -0.30765  -0.27616  -0.25702
  Beta virt. eigenvalues --    0.02902   0.03978   0.05193   0.05743   0.05834
  Beta virt. eigenvalues --    0.05951   0.07010   0.07622   0.09389   0.10692
  Beta virt. eigenvalues --    0.11382   0.11932   0.12196   0.12905   0.13201

 Mulliken charges and spin densities:
               1          2
     1  O   -3.248486   0.308279
     2  C    6.525513  -0.647939
     3  O   -3.425344  -0.007787
     4  C   -2.234729   1.645220
     5  C   -4.315937  -0.394828
     6  H    1.699681   0.010363
     7  C    3.439098   0.073253
     8  H    1.384760   0.024628
     9  H    1.752517   0.008473
    10  S    1.315298   0.003358
    11  C   -4.972742  -0.000140
    12  H    1.469776   0.000057
    13  H    1.293718  -0.000057
    14  H    1.480843  -0.000246
    15  O   -3.280182  -0.020084
    16  H    1.116216  -0.002550
 Sum of Mulliken charges =   0.00000   1.00000

 Dipole moment (field-independent basis, Debye):
    X=             -1.1724    Y=             -0.5513    Z=             -0.0759  Tot=              1.2978
                          Isotropic Fermi Contact Couplings
        Atom                 a.u.       MegaHertz       Gauss      10(-4) cm-1
     1  O(17)              0.06377     -38.65882     -13.79443     -12.89520
     2  C(13)             -0.05490     -61.71550     -22.02163     -20.58608
     3  O(17)             -0.01148       6.96185       2.48416       2.32222
     4  C(13)              0.11790     132.54743      47.29622      44.21306
     5  C(13)             -0.03312     -37.23501     -13.28638     -12.42026
     6  H(1)              -0.01669     -74.59602     -26.61771     -24.88255
     7  C(13)              0.01187      13.34674       4.76245       4.45199
     8  H(1)               0.01899      84.88881      30.29044      28.31586

 Normal termination of Gaussian 16 at Wed Apr  9 01:04:53 2025.
