 Gaussian 16, Revision C.01,

 ----------------------------------------------------------------------
 #t hf aug-cc-pvdz symm=none int=(grid=ultrafine) guess=(read,tcheck) s
 table=(opt,rrhf)
 ----------------------------------------------------------------------
 -----
 title
 -----
 Symbolic Z-matrix:
 Charge = -1 Multiplicity = 1

 SCF Done:  E(RHF) =  -1399.64616867     A.U. after   16 cycles
 Normal termination of Gaussian 16 at Wed Apr  9 01:50:44 2025.
 Gaussian 16:  ES64L-G16RevC.01  3-Jul-2019

 ----------------------------------------------------------------------
 #t hf aug-cc-pvdz iop(5/13=1,5/36=2,99/5=2) pseudo=read geom=check gue
 ss=(read,tcheck) scf=(maxcycle=1)
 ----------------------------------------------------------------------
 -----
 title
 -----
 Structure from the checkpoint file:  "BH10_314_reverse_mol2.chk"
 Charge = -1 Multiplicity = 1

                         Standard orientation:
 ---------------------------------------------------------------------
 Center     Atomic      Atomic             Coordinates (Angstroms)
 Number     Number       Type             X           Y           Z
 ---------------------------------------------------------------------
      1          6           0       -0.881603    0.978902    0.349601
      2          6           0       -2.374385    0.632262    0.244353
      3          6           0       -2.537792   -0.837857    0.693427
      4          1           0       -2.915880    1.264992    0.948458
      5          6           0       -1.575963   -1.761349   -0.036028
      6          6           0       -0.151345   -1.274406    0.005518
      7          8           0       -0.160450    0.068952   -0.458884
      8          6           0       -0.552525    2.390480   -0.199765
      9          6           0        0.886514   -1.988943   -0.827001
     10          8           0        2.203756   -1.672644   -0.401881
     11          1           0        0.755808   -1.713513   -1.877518
     12          1           0        0.771976   -3.068017   -0.723682
     13         15           0        2.669772   -0.181494    0.131059
     14          8           0        2.048953    0.086506    1.469720
     15          8           0        2.527134    0.831679   -0.974713
     16          8           0        4.245189   -0.508906    0.341664
     17          1           0        4.714928   -0.347656   -0.481686
     18          8           0       -1.960950   -2.786598   -0.553548
     19          8           0       -3.859993   -1.295836    0.547980
     20          1           0       -2.241773   -0.890661    1.748649
     21          1           0       -3.802821   -2.128036    0.056870
     22          8           0       -1.347407    3.286993   -0.045202
     23          8           0        0.608085    2.571441   -0.781028
     24          1           0        1.250770    1.789263   -0.845793
     25          8           0       -0.482293    0.895543    1.680204
     26          1           0        0.501655    0.751594    1.703515
     27          6           0       -2.921375    0.840223   -1.163532
     28          1           0       -3.947356    0.477266   -1.217215
     29          1           0       -2.907929    1.897915   -1.421059
     30          1           0       -2.324746    0.298232   -1.902003
     31          1           0        0.173435   -1.301876    1.051649
 ---------------------------------------------------------------------

 SCF Done:  E(RHF) =  -1404.38748784     A.U. after    2 cycles

 The electronic state is 1-A.
 Alpha  occ. eigenvalues -- -105.16654 -20.98350 -20.97783 -20.97214 -20.95960
 Alpha  occ. eigenvalues --  -20.95364 -20.94549 -20.93951 -20.91496 -20.87336
 Alpha  occ. eigenvalues --  -20.87256 -11.46108 -11.43813 -11.40913 -11.39873
 Alpha  occ. eigenvalues --  -11.38075 -11.33883 -11.32408 -11.27780  -2.79550
 Alpha  occ. eigenvalues --   -1.83662  -1.78476  -1.75831  -1.73136  -1.67612
 Alpha  occ. eigenvalues --   -1.65609  -1.60061  -1.57763  -1.57554  -1.51734
 Alpha  occ. eigenvalues --   -1.29825  -1.20097  -1.12357  -1.09208  -1.04971
 Alpha  occ. eigenvalues --   -0.93535  -0.87593  -0.81160  -0.77533  -0.68959
 Alpha  occ. eigenvalues --   -0.64734  -0.60539  -0.59390  -0.58901  -0.55459
 Alpha  occ. eigenvalues --   -0.53339  -0.52023  -0.50105  -0.49112  -0.46316
 Alpha  occ. eigenvalues --   -0.44548  -0.43619  -0.42663  -0.40983  -0.40472
 Alpha  occ. eigenvalues --   -0.38443  -0.37230  -0.36566  -0.35877  -0.34093
 Alpha  occ. eigenvalues --   -0.32531  -0.31550  -0.30141  -0.28509  -0.27772
 Alpha  occ. eigenvalues --   -0.25427  -0.23736  -0.23055  -0.21454  -0.20540
 Alpha  occ. eigenvalues --   -0.19874  -0.19287  -0.17349  -0.16719  -0.15029
 Alpha  occ. eigenvalues --   -0.14564  -0.09343  -0.01573
 Alpha virt. eigenvalues --    0.12240   0.12657   0.12688   0.13111   0.13478
 Alpha virt. eigenvalues --    0.13921   0.14774   0.15592   0.16321   0.16943
 Alpha virt. eigenvalues --    0.17796   0.17873   0.18770   0.20053   0.20755

 Mulliken charges:
               1
     1  C    7.974864
     2  C   -2.763303
     3  C    1.217022
     4  H    1.520357
     5  C    4.786724
     6  C   -2.570956
     7  O   -4.264568
     8  C    6.949745
     9  C   -1.034069
    10  O   -4.107862
    11  H    1.508307
    12  H    1.423120
    13  P    9.595227
    14  O   -3.224206
    15  O   -3.305720
    16  O   -2.816112
    17  H    0.847750
    18  O   -4.042514
    19  O   -3.421523
    20  H    1.308061
    21  H    0.528733
    22  O   -3.865541
    23  O   -3.919752
    24  H    2.041579
    25  O   -4.495184
    26  H    1.253939
    27  C   -4.819548
    28  H    1.182351
    29  H    1.270435
    30  H    1.442296
    31  H    2.800349
 Sum of Mulliken charges =  -1.00000

 Dipole moment (field-independent basis, Debye):
    X=             -2.4004    Y=             -4.2787    Z=             -1.2410  Tot=              5.0606

 Test job not archived.
 1\1\GINC-SE212\SP\RHF\Aug-CC-pVDZ\C8H12O10P1(1-)\OHZDE\09-Apr-2025\0\\
 #t hf aug-cc-pvdz iop(5/13=1,5/36=2,99/5=2) pseudo=read geom=check gue
 ss=(read,tcheck) scf=(maxcycle=1)\\title\\-1,1\C,0,-0.881603,0.978902,
 0.349601\C,0,-2.374385,0.632262,0.244353\C,0,-2.537792,-0.837857,0.693
 427\H,0,-2.91588,1.264992,0.948458\C,0,-1.575963,-1.761349,-0.036028\C
 ,0,-0.151345,-1.274406,0.005518\O,0,-0.16045,0.068952,-0.458884\C,0,-0
 .552525,2.39048,-0.199765\C,0,0.886514,-1.988943,-0.827001\O,0,2.20375
 6,-1.672644,-0.401881\H,0,0.755808,-1.713513,-1.877518\H,0,0.771976,-3

 Normal termination of Gaussian 16 at Wed Apr  9 01:51:40 2025.
