 Gaussian 16, Revision C.01,

 ----------------------------------------------------------------------
 #t hf aug-cc-pvdz symm=none int=(grid=ultrafine) guess=(read,tcheck) s
 table=(opt,rrhf)
 ----------------------------------------------------------------------
 -----
 title
 -----
 Symbolic Z-matrix:
 Charge =  0 Multiplicity = 1

 SCF Done:  E(RHF) =  -857.120208537     A.U. after   14 cycles
 Normal termination of Gaussian 16 at Wed Apr  9 02:05:22 2025.
 Gaussian 16:  ES64L-G16RevC.01  3-Jul-2019

 ----------------------------------------------------------------------
 #t hf aug-cc-pvdz iop(5/13=1,5/36=2,99/5=2) pseudo=read geom=check gue
 ss=(read,tcheck) scf=(maxcycle=1)
 ----------------------------------------------------------------------
 -----
 title
 -----
 Structure from the checkpoint file:  "BH10_414_forward_mol2.chk"
 Charge =  0 Multiplicity = 1

                         Standard orientation:
 ---------------------------------------------------------------------
 Center     Atomic      Atomic             Coordinates (Angstroms)
 Number     Number       Type             X           Y           Z
 ---------------------------------------------------------------------
      1         16           0       -1.470938   -0.065274    0.045488
      2          6           0       -0.352048   -1.000131   -1.046312
      3          6           0        0.517046   -2.003734   -0.301876
      4          6           0        1.709145   -1.547968    0.495292
      5          6           0        1.568002    1.674601   -0.460294
      6          6           0        0.514745    1.842789    0.594243
      7          6           0       -0.903065    1.644915    0.062962
      8          6           0        2.502392   -0.487882    0.375161
      9          6           0        2.412060    0.653396   -0.558757
     10          8           0       -1.333764   -0.588640    1.403103
     11          8           0       -2.780993   -0.048542   -0.601086
     12          1           0       -1.047330   -1.520428   -1.705381
     13          1           0        0.211309   -0.282261   -1.636798
     14          1           0        0.881172   -2.721047   -1.047367
     15          1           0       -0.128223   -2.577998    0.365042
     16          1           0        0.575255    2.859828    0.990976
     17          1           0        0.683323    1.164075    1.432315
     18          1           0       -1.040254    2.025173   -0.950383
     19          1           0       -1.647317    2.116713    0.706959
     20          1           0        1.995439   -2.268441    1.256218
     21          1           0        3.369857   -0.457390    1.031925
     22          1           0        1.631202    2.468735   -1.200371
     23          1           0        3.158968    0.678965   -1.349587
 ---------------------------------------------------------------------

 SCF Done:  E(RHF) =  -859.554205337     A.U. after    2 cycles

 The electronic state is 1-A.
 Alpha  occ. eigenvalues --  -75.86720 -21.02946 -21.02827 -13.48399 -13.40388
 Alpha  occ. eigenvalues --  -13.34505 -11.48402 -11.47649 -11.46018 -11.45199
 Alpha  occ. eigenvalues --  -11.42614 -11.42136 -11.40292 -11.38114  -8.21770
 Alpha  occ. eigenvalues --   -1.80986  -1.63267  -1.31054  -1.23622  -1.18800
 Alpha  occ. eigenvalues --   -1.06852  -1.02886  -0.92796  -0.87291  -0.81199
 Alpha  occ. eigenvalues --   -0.72928  -0.69593  -0.66707  -0.66015  -0.64339
 Alpha  occ. eigenvalues --   -0.62170  -0.60356  -0.55749  -0.54549  -0.52750
 Alpha  occ. eigenvalues --   -0.51077  -0.49747  -0.47671  -0.45471  -0.41680
 Alpha  occ. eigenvalues --   -0.37998  -0.37644  -0.36932  -0.33762  -0.33400
 Alpha  occ. eigenvalues --   -0.32978
 Alpha virt. eigenvalues --    0.03056   0.04450   0.04646   0.04783   0.05159
 Alpha virt. eigenvalues --    0.05438   0.05790   0.06432   0.06978   0.07867
 Alpha virt. eigenvalues --    0.08065   0.08872   0.10267   0.11188   0.11843

 Mulliken charges:
               1
     1  S    7.521667
     2  C   -4.712442
     3  C   -3.199877
     4  C   -0.632671
     5  C   -0.908282
     6  C   -3.400856
     7  C   -4.375285
     8  C   -0.320081
     9  C   -1.523639
    10  O   -2.720575
    11  O   -2.815624
    12  H    1.266491
    13  H    2.084110
    14  H    1.150411
    15  H    1.396621
    16  H    1.122399
    17  H    1.817406
    18  H    1.497312
    19  H    1.530777
    20  H    1.253698
    21  H    1.232697
    22  H    1.437951
    23  H    1.297793
 Sum of Mulliken charges =   0.00000

 Dipole moment (field-independent basis, Debye):
    X=              2.3346    Y=              0.5314    Z=             -0.7239  Tot=              2.5013

 Test job not archived.
 1\1\GINC-SE367\SP\RHF\Aug-CC-pVDZ\C8H12O2S1\OHZDE\09-Apr-2025\0\\#t hf
  aug-cc-pvdz iop(5/13=1,5/36=2,99/5=2) pseudo=read geom=check guess=(r
 ead,tcheck) scf=(maxcycle=1)\\title\\0,1\S,0,-1.470938,-0.065274,0.045
 488\C,0,-0.352048,-1.000131,-1.046312\C,0,0.517045,-2.003734,-0.301876
 \C,0,1.709145,-1.547968,0.495292\C,0,1.568002,1.674601,-0.460294\C,0,0
 .514745,1.842789,0.594243\C,0,-0.903065,1.644915,0.062962\C,0,2.502392
 ,-0.487883,0.375161\C,0,2.41206,0.653395,-0.558757\O,0,-1.333764,-0.58
 864,1.403103\O,0,-2.780993,-0.048541,-0.601086\H,0,-1.04733,-1.520428,

 Normal termination of Gaussian 16 at Wed Apr  9 02:05:37 2025.
