 Gaussian 16, Revision C.01,

 ----------------------------------------------------------------------
 #t hf aug-cc-pvdz symm=none int=(grid=ultrafine) guess=(read,tcheck) s
 table=(opt,rrhf)
 ----------------------------------------------------------------------
 -----
 title
 -----
 Symbolic Z-matrix:
 Charge =  0 Multiplicity = 1

 SCF Done:  E(RHF) =  -521.908113328     A.U. after   13 cycles
 Normal termination of Gaussian 16 at Wed Apr  9 00:56:51 2025.
 Gaussian 16:  ES64L-G16RevC.01  3-Jul-2019

 ----------------------------------------------------------------------
 #t hf aug-cc-pvdz iop(5/13=1,5/36=2,99/5=2) pseudo=read geom=check gue
 ss=(read,tcheck) scf=(maxcycle=1)
 ----------------------------------------------------------------------
 -----
 title
 -----
 Structure from the checkpoint file:  "BH10-RE_125_mol3.chk"
 Charge =  0 Multiplicity = 1

                         Standard orientation:
 ---------------------------------------------------------------------
 Center     Atomic      Atomic             Coordinates (Angstroms)
 Number     Number       Type             X           Y           Z
 ---------------------------------------------------------------------
      1          6           0        1.963488   -0.158892    0.000005
      2          6           0        0.564933   -0.766590   -0.000100
      3          6           0       -0.579649    0.213799   -0.000035
      4          8           0       -1.748986   -0.436848   -0.000075
      5          8           0       -0.494886    1.414709    0.000038
      6          6           0       -2.937728    0.377260   -0.000023
      7          6           0       -4.123842   -0.554665    0.000053
      8          6           0        2.274973    0.618102   -1.261739
      9          6           0        2.274875    0.617879    1.261909
     10          1           0        0.452659   -1.414285   -0.872937
     11          1           0       -2.918808    1.020195   -0.881493
     12          1           0       -2.918714    1.020226    0.881421
     13          1           0       -4.117731   -1.192322   -0.885114
     14          1           0       -5.048783    0.025311    0.000070
     15          1           0       -4.117663   -1.192266    0.885260
     16          1           0        2.098566   -0.001533   -2.142930
     17          1           0        3.322423    0.922468   -1.257765
     18          1           0        1.646869    1.506652   -1.319216
     19          1           0        2.098414   -0.001917    2.142976
     20          1           0        1.646757    1.506412    1.319502
     21          1           0        3.322321    0.922260    1.258065
     22          1           0        0.452606   -1.414470    0.872593
     23          9           0        2.823307   -1.290109   -0.000062
 ---------------------------------------------------------------------

 SCF Done:  E(RHF) =  -524.224569154     A.U. after    2 cycles

 The electronic state is 1-A.
 Alpha  occ. eigenvalues --  -29.23177 -21.09185 -21.05195 -11.54227 -11.49208
 Alpha  occ. eigenvalues --  -11.44875 -11.42781 -11.39432 -11.37957 -11.36319
 Alpha  occ. eigenvalues --   -1.85545  -1.67038  -1.31917  -1.15578  -1.07246
 Alpha  occ. eigenvalues --   -1.02748  -0.92641  -0.87901  -0.76192  -0.70882
 Alpha  occ. eigenvalues --   -0.67826  -0.65001  -0.64575  -0.62079  -0.58419
 Alpha  occ. eigenvalues --   -0.57610  -0.54143  -0.53266  -0.52419  -0.52384
 Alpha  occ. eigenvalues --   -0.50317  -0.48540  -0.46721  -0.46276  -0.41952
 Alpha  occ. eigenvalues --   -0.33983  -0.32888  -0.30234  -0.23670  -0.23313
 Alpha virt. eigenvalues --    0.03482   0.04648   0.04847   0.05297   0.05369
 Alpha virt. eigenvalues --    0.05944   0.06533   0.06759   0.07175   0.07688
 Alpha virt. eigenvalues --    0.07801   0.09001   0.10246   0.10492   0.11690

 Mulliken charges:
               1
     1  C    3.519971
     2  C   -4.625490
     3  C    6.637762
     4  O   -3.609101
     5  O   -3.128685
     6  C   -2.793113
     7  C   -3.754038
     8  C   -4.768137
     9  C   -4.768050
    10  H    1.520450
    11  H    1.648526
    12  H    1.648615
    13  H    1.335251
    14  H    1.084188
    15  H    1.335219
    16  H    1.173031
    17  H    1.137452
    18  H    1.279212
    19  H    1.173028
    20  H    1.279201
    21  H    1.137451
    22  H    1.520442
    23  F    0.016817
 Sum of Mulliken charges =  -0.00000

 Dipole moment (field-independent basis, Debye):
    X=             -0.5033    Y=             -1.5624    Z=             -0.0001  Tot=              1.6414

 Test job not archived.
 1\1\GINC-SE343\SP\RHF\Aug-CC-pVDZ\C7H13F1O2\OHZDE\09-Apr-2025\0\\#t hf
  aug-cc-pvdz iop(5/13=1,5/36=2,99/5=2) pseudo=read geom=check guess=(r
 ead,tcheck) scf=(maxcycle=1)\\title\\0,1\C,0,1.963488,-0.158892,0.0000
 05\C,0,0.564933,-0.76659,-0.0001\C,0,-0.579649,0.213799,-0.000035\O,0,
 -1.748986,-0.436848,-0.000075\O,0,-0.494886,1.414709,0.000038\C,0,-2.9
 37728,0.37726,-0.000023\C,0,-4.123842,-0.554665,0.000053\C,0,2.274973,
 0.618102,-1.261739\C,0,2.274875,0.617879,1.261909\H,0,0.452659,-1.4142
 85,-0.872937\H,0,-2.918808,1.020195,-0.881493\H,0,-2.918714,1.020226,0

 Normal termination of Gaussian 16 at Wed Apr  9 00:57:03 2025.
