 Gaussian 16, Revision C.01,

 ----------------------------------------------------------------------
 #t hf aug-cc-pvdz symm=none int=(grid=ultrafine) guess=(read,tcheck) s
 table=(opt,rrhf)
 ----------------------------------------------------------------------
 -----
 title
 -----
 Symbolic Z-matrix:
 Charge =  0 Multiplicity = 1

 SCF Done:  E(RHF) =  -743.259588003     A.U. after   14 cycles
 Normal termination of Gaussian 16 at Wed Apr  9 02:07:10 2025.
 Gaussian 16:  ES64L-G16RevC.01  3-Jul-2019

 ----------------------------------------------------------------------
 #t hf aug-cc-pvdz iop(5/13=1,5/36=2,99/5=2) pseudo=read geom=check gue
 ss=(read,tcheck) scf=(maxcycle=1)
 ----------------------------------------------------------------------
 -----
 title
 -----
 Structure from the checkpoint file:  "BH10_419_reverse_mol2.chk"
 Charge =  0 Multiplicity = 1

                         Standard orientation:
 ---------------------------------------------------------------------
 Center     Atomic      Atomic             Coordinates (Angstroms)
 Number     Number       Type             X           Y           Z
 ---------------------------------------------------------------------
      1          6           0        2.584852   -0.975396    0.050537
      2          6           0       -2.346184    1.720029   -0.199557
      3          6           0       -1.168387    1.119405   -0.208440
      4          6           0       -1.029091   -0.270573    0.356579
      5          6           0        0.155324   -1.021319   -0.269508
      6          6           0        1.457444   -0.285822   -0.064093
      7          6           0        0.106136    1.731792   -0.747120
      8          9           0       -2.158440   -1.000289    0.206832
      9          9           0        0.200648   -2.281964    0.212098
     10          6           0        1.336105    1.191192   -0.056983
     11          6           0        2.213234    1.983177    0.549657
     12          9           0       -0.112828   -1.125221   -1.612731
     13          9           0       -0.782711   -0.207142    1.703261
     14          1           0        2.094040    3.059381    0.537436
     15          1           0        3.065473    1.587745    1.087335
     16          1           0        0.063678    2.816137   -0.654216
     17          1           0        0.171047    1.495713   -1.815303
     18          1           0        3.541853   -0.475681    0.123766
     19          1           0        2.578423   -2.056715    0.070834
     20          1           0       -2.458484    2.733976   -0.564235
     21          1           0       -3.232631    1.216074    0.162807
 ---------------------------------------------------------------------

 SCF Done:  E(RHF) =  -746.249501374     A.U. after    2 cycles

 The electronic state is 1-A.
 Alpha  occ. eigenvalues --  -29.29312 -29.28979 -29.28861 -29.28549 -11.61674
 Alpha  occ. eigenvalues --  -11.57450 -11.49354 -11.46412 -11.43329 -11.43187
 Alpha  occ. eigenvalues --  -11.42034 -11.40699 -11.39241  -1.48054  -1.28715
 Alpha  occ. eigenvalues --   -1.27152  -1.12104  -1.10141  -1.01364  -0.92543
 Alpha  occ. eigenvalues --   -0.88499  -0.85819  -0.78584  -0.77365  -0.75754
 Alpha  occ. eigenvalues --   -0.70337  -0.65147  -0.62527  -0.59842  -0.59328
 Alpha  occ. eigenvalues --   -0.58711  -0.55346  -0.51705  -0.48457  -0.45397
 Alpha  occ. eigenvalues --   -0.44589  -0.43155  -0.40567  -0.38975  -0.37870
 Alpha  occ. eigenvalues --   -0.36269  -0.33795  -0.30841  -0.29905  -0.27408
 Alpha  occ. eigenvalues --   -0.26869  -0.24277  -0.21345  -0.20952
 Alpha virt. eigenvalues --    0.03571   0.04709   0.05033   0.05628   0.05885
 Alpha virt. eigenvalues --    0.06442   0.06895   0.07933   0.08976   0.10181
 Alpha virt. eigenvalues --    0.10797   0.10861   0.10893   0.11562   0.12594

 Mulliken charges:
               1
     1  C   -5.196751
     2  C   -5.370011
     3  C    2.642638
     4  C    0.350993
     5  C    0.663395
     6  C    0.870533
     7  C   -5.237649
     8  F    0.309821
     9  F    0.365318
    10  C    3.813104
    11  C   -5.245882
    12  F   -0.085963
    13  F   -0.041139
    14  H    1.579962
    15  H    1.679417
    16  H    1.267106
    17  H    1.120556
    18  H    1.573111
    19  H    1.667768
    20  H    1.550982
    21  H    1.722690
 Sum of Mulliken charges =   0.00000

 Dipole moment (field-independent basis, Debye):
    X=             -0.9120    Y=             -1.7558    Z=              0.2629  Tot=              1.9959

 Test job not archived.
 1\1\GINC-SE345\SP\RHF\Aug-CC-pVDZ\C9H8F4\OHZDE\09-Apr-2025\0\\#t hf au
 g-cc-pvdz iop(5/13=1,5/36=2,99/5=2) pseudo=read geom=check guess=(read
 ,tcheck) scf=(maxcycle=1)\\title\\0,1\C,0,2.584852,-0.975395,0.050537\
 C,0,-2.346185,1.720028,-0.199557\C,0,-1.168388,1.119404,-0.20844\C,0,-
 1.029091,-0.270573,0.356579\C,0,0.155324,-1.021319,-0.269508\C,0,1.457
 444,-0.285821,-0.064093\C,0,0.106135,1.731792,-0.74712\F,0,-2.15844,-1
 .00029,0.206832\F,0,0.200649,-2.281964,0.212098\C,0,1.336104,1.191193,
 -0.056983\C,0,2.213233,1.983178,0.549657\F,0,-0.112828,-1.125221,-1.61

 Normal termination of Gaussian 16 at Wed Apr  9 02:07:26 2025.
