 Gaussian 16, Revision C.01,

 ----------------------------------------------------------------------
 #t hf aug-cc-pvdz symm=none int=(grid=ultrafine) guess=(read,tcheck) s
 table=(opt,rrhf)
 ----------------------------------------------------------------------
 -----
 title
 -----
 Symbolic Z-matrix:
 Charge = -1 Multiplicity = 1

 SCF Done:  E(RHF) =  -1234.82052579     A.U. after   15 cycles
 Normal termination of Gaussian 16 at Wed Apr  9 01:46:08 2025.
 Gaussian 16:  ES64L-G16RevC.01  3-Jul-2019

 ----------------------------------------------------------------------
 #t hf aug-cc-pvdz iop(5/13=1,5/36=2,99/5=2) pseudo=read geom=check gue
 ss=(read,tcheck) scf=(maxcycle=1)
 ----------------------------------------------------------------------
 -----
 title
 -----
 Structure from the checkpoint file:  "BH10_322_reverse_mol1.chk"
 Charge = -1 Multiplicity = 1

                         Standard orientation:
 ---------------------------------------------------------------------
 Center     Atomic      Atomic             Coordinates (Angstroms)
 Number     Number       Type             X           Y           Z
 ---------------------------------------------------------------------
      1          6           0        2.188345    0.188457    0.898730
      2          8           0        1.992218   -0.454821    1.893569
      3          8           0        2.288680    1.525558    0.897043
      4          6           0        2.289595   -0.390133   -0.482416
      5          6           0        2.224088    0.477722   -1.699327
      6          1           0        2.182709   -0.142349   -2.593553
      7          1           0        1.338986    1.109616   -1.642368
      8          1           0        3.103727    1.113860   -1.744262
      9         17           0        4.706514   -0.335642   -0.178092
     10          1           0        2.509823   -1.435894   -0.524842
     11          8           0        0.430266   -1.048322   -0.582451
     12          6           0       -0.590866   -0.358509   -0.312340
     13          8           0       -0.579422    0.832420    0.057735
     14          6           0       -1.919826   -1.086038   -0.488676
     15          6           0       -3.069970   -0.608966    0.409898
     16          1           0       -1.748712   -2.141834   -0.284025
     17          1           0       -2.200120   -1.005148   -1.545202
     18          7           0       -4.036668   -1.688298    0.551603
     19          6           0       -3.724884    0.701256   -0.072383
     20          1           0       -2.653982   -0.396263    1.400516
     21          8           0       -4.915993    0.773630   -0.271523
     22          8           0       -2.924027    1.735517   -0.219627
     23          1           0       -1.955593    1.465136   -0.056016
     24          1           0        2.169615    1.807037    1.812269
     25          1           0       -4.871798   -1.321468    0.996043
     26          1           0       -4.341391   -1.983287   -0.371112
 ---------------------------------------------------------------------

 SCF Done:  E(RHF) =  -1238.44607516     A.U. after    2 cycles

 The electronic state is 1-A.
 Alpha  occ. eigenvalues --  -99.66460 -21.00913 -20.97681 -20.93982 -20.93465
 Alpha  occ. eigenvalues --  -20.92315 -20.91898 -15.64545 -11.45213 -11.42533
 Alpha  occ. eigenvalues --  -11.41441 -11.40043 -11.36590 -11.30107 -11.28615
 Alpha  occ. eigenvalues --  -10.23328  -9.43434  -9.42940  -9.42863  -1.72341
 Alpha  occ. eigenvalues --   -1.71365  -1.67009  -1.54565  -1.54118  -1.51028
 Alpha  occ. eigenvalues --   -1.26445  -1.09857  -1.03025  -1.01423  -0.87065
 Alpha  occ. eigenvalues --   -0.85875  -0.70884  -0.68312  -0.64756  -0.61625
 Alpha  occ. eigenvalues --   -0.55838  -0.53948  -0.52237  -0.52008  -0.50786
 Alpha  occ. eigenvalues --   -0.48594  -0.46753  -0.46515  -0.45679  -0.44075
 Alpha  occ. eigenvalues --   -0.42502  -0.41186  -0.39031  -0.38125  -0.36384
 Alpha  occ. eigenvalues --   -0.36022  -0.34885  -0.30747  -0.30231  -0.29606
 Alpha  occ. eigenvalues --   -0.26717  -0.22802  -0.22054  -0.20667  -0.19053
 Alpha  occ. eigenvalues --   -0.18758  -0.18054  -0.16579
 Alpha virt. eigenvalues --    0.11745   0.12011   0.12311   0.13603   0.14169
 Alpha virt. eigenvalues --    0.14565   0.14724   0.15296   0.15600   0.16896
 Alpha virt. eigenvalues --    0.16992   0.18820   0.19639   0.20425   0.21047

 Mulliken charges:
               1
     1  C    7.131320
     2  O   -3.724091
     3  O   -3.530902
     4  C   -1.766678
     5  C   -3.839891
     6  H    1.340655
     7  H    1.230822
     8  H    1.143827
     9  Cl  -0.761187
    10  H    1.662683
    11  O   -3.355775
    12  C    7.238911
    13  O   -4.019374
    14  C   -4.538994
    15  C   -0.470012
    16  H    1.534944
    17  H    1.507923
    18  N   -3.075620
    19  C    6.029836
    20  H    1.797929
    21  O   -3.267080
    22  O   -3.426569
    23  H    2.130392
    24  H    0.878321
    25  H    0.593009
    26  H    0.555602
 Sum of Mulliken charges =  -1.00000

 Dipole moment (field-independent basis, Debye):
    X=             -7.4312    Y=              0.6024    Z=             -0.7705  Tot=              7.4953

 Test job not archived.
 1\1\GINC-SE333\SP\RHF\Aug-CC-pVDZ\C7H11Cl1N1O6(1-)\OHZDE\09-Apr-2025\0
 \\#t hf aug-cc-pvdz iop(5/13=1,5/36=2,99/5=2) pseudo=read geom=check g
 uess=(read,tcheck) scf=(maxcycle=1)\\title\\-1,1\C,0,2.188345,0.188457
 ,0.89873\O,0,1.992218,-0.454821,1.893569\O,0,2.28868,1.525558,0.897043
 \C,0,2.289595,-0.390133,-0.482416\C,0,2.224088,0.477722,-1.699327\H,0,
 2.182709,-0.142349,-2.593553\H,0,1.338986,1.109616,-1.642368\H,0,3.103
 727,1.11386,-1.744262\Cl,0,4.706514,-0.335642,-0.178092\H,0,2.509823,-
 1.435894,-0.524842\O,0,0.430266,-1.048322,-0.582451\C,0,-0.590866,-0.3

 Normal termination of Gaussian 16 at Wed Apr  9 01:46:34 2025.
