 Gaussian 16, Revision C.01,

 ----------------------------------------------------------------------
 #t hf aug-cc-pvdz symm=none int=(grid=ultrafine) guess=(read,tcheck) s
 table=opt
 ----------------------------------------------------------------------
 -----
 title
 -----
 Symbolic Z-matrix:
 Charge =  0 Multiplicity = 2

 SCF Done:  E(UHF) =  -1028.98303007     A.U. after   17 cycles
 Normal termination of Gaussian 16 at Wed Apr  9 01:17:00 2025.
 Gaussian 16:  ES64L-G16RevC.01  3-Jul-2019

 ----------------------------------------------------------------------
 #t hf aug-cc-pvdz iop(5/13=1,5/36=2,99/5=2) pseudo=read geom=check gue
 ss=(read,tcheck) scf=(maxcycle=1)
 ----------------------------------------------------------------------
 -----
 title
 -----
 Structure from the checkpoint file:  "BH10_204_reverse_mol2.chk"
 Charge =  0 Multiplicity = 2

                         Standard orientation:
 ---------------------------------------------------------------------
 Center     Atomic      Atomic             Coordinates (Angstroms)
 Number     Number       Type             X           Y           Z
 ---------------------------------------------------------------------
      1          7           0        1.706148    0.175150   -0.772175
      2         16           0        1.330046   -1.281217   -0.092272
      3          8           0       -0.087595   -0.984267    0.595569
      4          6           0       -1.207603   -0.686263   -0.265836
      5          6           0       -2.382233   -0.370759    0.634265
      6          1           0       -1.403175   -1.554732   -0.897032
      7          1           0       -0.946425    0.165640   -0.897222
      8          6           0       -3.626138   -0.110448   -0.139371
      9          1           0       -2.134717    0.490835    1.263658
     10          1           0       -2.520562   -1.215969    1.325914
     11          6           0       -4.778896    0.598428    0.477013
     12          1           0       -3.780460   -0.643481   -1.073452
     13          6           0        2.392210    1.280762   -0.051159
     14          6           0        3.851645    0.930868    0.247706
     15          6           0        1.635551    1.604726    1.234637
     16          6           0        2.321837    2.470264   -1.007393
     17          1           0        2.831458    2.248791   -1.949247
     18          1           0        2.812971    3.336383   -0.561096
     19          1           0        1.285443    2.730647   -1.227533
     20          1           0        3.918567    0.074722    0.917153
     21          1           0        4.351853    1.781531    0.715599
     22          1           0        4.386001    0.691443   -0.675254
     23          1           0        1.662850    0.773248    1.938251
     24          1           0        0.593228    1.846795    1.021111
     25          1           0        2.099209    2.468886    1.713227
     26          8           0        2.186041   -1.611079    1.016959
     27          8           0        1.139974   -2.185654   -1.203190
     28          6           0       -5.899817    0.916429   -0.507413
     29          1           0       -4.425955    1.521900    0.954378
     30          1           0       -5.184048   -0.006943    1.304485
     31          1           0       -5.540718    1.560233   -1.313408
     32          1           0       -6.729051    1.426024   -0.013419
     33          1           0       -6.292193    0.002775   -0.960418
     34          1           0        2.045252    0.018658   -1.713508
 ---------------------------------------------------------------------

 SCF Done:  E(UHF) =  -1032.24488043     A.U. after    2 cycles

 The electronic state is 2-A.
 Alpha  occ. eigenvalues --  -75.92351 -21.09015 -21.05109 -21.04871 -15.76232
 Alpha  occ. eigenvalues --  -13.55603 -13.48338 -13.44799 -11.47094 -11.46477
 Alpha  occ. eigenvalues --  -11.43343 -11.41398 -11.40928 -11.40020 -11.38076
 Alpha  occ. eigenvalues --  -11.36195 -11.35759  -8.27628  -1.91148  -1.73945
 Alpha  occ. eigenvalues --   -1.66329  -1.43694  -1.26604  -1.21051  -1.13432
 Alpha  occ. eigenvalues --   -1.02891  -1.02116  -0.99995  -0.92281  -0.88018
 Alpha  occ. eigenvalues --   -0.82645  -0.81320  -0.70216  -0.67752  -0.67390
 Alpha  occ. eigenvalues --   -0.64409  -0.62818  -0.62526  -0.60693  -0.59374
 Alpha  occ. eigenvalues --   -0.58549  -0.56338  -0.55180  -0.54156  -0.53917
 Alpha  occ. eigenvalues --   -0.52620  -0.52448  -0.50065  -0.49222  -0.47659
 Alpha  occ. eigenvalues --   -0.46950  -0.46116  -0.45915  -0.42955  -0.41471
 Alpha  occ. eigenvalues --   -0.39126  -0.38708  -0.36347  -0.36232  -0.34324
 Alpha  occ. eigenvalues --   -0.30637
 Alpha virt. eigenvalues --    0.03386   0.03923   0.04597   0.05052   0.05236
 Alpha virt. eigenvalues --    0.05363   0.05650   0.05866   0.05977   0.06128
 Alpha virt. eigenvalues --    0.06783   0.06843   0.07325   0.07631   0.08411

  Beta  occ. eigenvalues --  -75.92352 -21.09018 -21.05109 -21.04872 -15.76232
  Beta  occ. eigenvalues --  -13.55603 -13.48339 -13.44799 -11.47095 -11.46477
  Beta  occ. eigenvalues --  -11.42662 -11.41457 -11.40928 -11.40018 -11.37615
  Beta  occ. eigenvalues --  -11.36195 -11.35065  -8.27628  -1.91142  -1.73937
  Beta  occ. eigenvalues --   -1.66329  -1.43695  -1.24033  -1.20989  -1.13349
  Beta  occ. eigenvalues --   -1.02854  -1.02113  -0.98088  -0.91816  -0.87906
  Beta  occ. eigenvalues --   -0.81474  -0.78889  -0.70033  -0.67300  -0.67148
  Beta  occ. eigenvalues --   -0.64051  -0.62581  -0.61208  -0.60188  -0.59286
  Beta  occ. eigenvalues --   -0.58066  -0.56129  -0.54809  -0.53981  -0.52909
  Beta  occ. eigenvalues --   -0.52537  -0.52243  -0.49786  -0.48312  -0.47129
  Beta  occ. eigenvalues --   -0.46821  -0.46087  -0.45566  -0.42913  -0.41407
  Beta  occ. eigenvalues --   -0.39076  -0.38571  -0.36327  -0.36160  -0.34282
  Beta virt. eigenvalues --    0.03348   0.03905   0.04440   0.05055   0.05248
  Beta virt. eigenvalues --    0.05384   0.05601   0.05780   0.05974   0.06141
  Beta virt. eigenvalues --    0.06785   0.06846   0.07304   0.07589   0.08332

 Mulliken charges and spin densities:
               1          2
     1  N   -3.983693  -0.001161
     2  S    8.550682  -0.000041
     3  O   -3.648150   0.003926
     4  C   -1.914729   0.094516
     5  C   -3.746681  -0.587633
     6  H    1.759899  -0.005932
     7  H    2.208475  -0.011315
     8  C    0.659586   1.896242
     9  H    1.527253   0.006244
    10  H    1.460673   0.016784
    11  C   -3.801851  -0.469010
    12  H    1.555105   0.008250
    13  C    4.503275   0.001640
    14  C   -4.506374  -0.000090
    15  C   -4.632106  -0.000130
    16  C   -4.859308  -0.000520
    17  H    1.327528  -0.000082
    18  H    1.202511  -0.000032
    19  H    1.253039  -0.000175
    20  H    1.500471  -0.000038
    21  H    1.145352   0.000002
    22  H    1.169112  -0.000003
    23  H    1.231163  -0.000033
    24  H    1.595251   0.000745
    25  H    1.046589  -0.000034
    26  O   -2.636313   0.000297
    27  O   -2.593484   0.000195
    28  C   -4.381635   0.020794
    29  H    1.341221   0.006407
    30  H    1.374778   0.025100
    31  H    1.345910  -0.001908
    32  H    1.127974  -0.000647
    33  H    1.347194  -0.002425
    34  H    0.471281   0.000068
 Sum of Mulliken charges =   0.00000   1.00000

 Dipole moment (field-independent basis, Debye):
    X=             -1.3205    Y=              2.7350    Z=             -0.0339  Tot=              3.0373
                          Isotropic Fermi Contact Couplings
        Atom                 a.u.       MegaHertz       Gauss      10(-4) cm-1
     1  N(14)              0.00014       0.04543       0.01621       0.01515
     2  S(33)             -0.00135      -0.46304      -0.16523      -0.15445
     3  O(17)             -0.00229       1.38847       0.49544       0.46314
     4  C(13)              0.01203      13.52084       4.82457       4.51007
     5  C(13)             -0.03687     -41.45381     -14.79175     -13.82750
     6  H(1)              -0.00053      -2.37541      -0.84761      -0.79235
     7  H(1)              -0.00059      -2.62626      -0.93712      -0.87603
     8  C(13)              0.14311     160.87908      57.40566      53.66349

 1\1\GINC-SE123\SP\UHF\Aug-CC-pVDZ\C9H20N1O3S1(2)\OHZDE\09-Apr-2025\0\\
 #t hf aug-cc-pvdz iop(5/13=1,5/36=2,99/5=2) pseudo=read geom=check gue
 ss=(read,tcheck) scf=(maxcycle=1)\\title\\0,2\N,0,1.706148,0.17515,-0.
 772175\S,0,1.330046,-1.281217,-0.092272\O,0,-0.087595,-0.984267,0.5955
 69\C,0,-1.207603,-0.686263,-0.265836\C,0,-2.382233,-0.370759,0.634265\
 H,0,-1.403175,-1.554732,-0.897032\H,0,-0.946425,0.16564,-0.897222\C,0,
 -3.626138,-0.110448,-0.139371\H,0,-2.134717,0.490835,1.263658\H,0,-2.5
 20562,-1.215969,1.325914\C,0,-4.778896,0.598428,0.477013\H,0,-3.78046,

 Normal termination of Gaussian 16 at Wed Apr  9 01:17:45 2025.
