 Gaussian 16, Revision C.01,

 ----------------------------------------------------------------------
 #t hf aug-cc-pvdz symm=none int=(grid=ultrafine) guess=(read,tcheck) s
 table=(opt,rrhf)
 ----------------------------------------------------------------------
 -----
 title
 -----
 Symbolic Z-matrix:
 Charge =  0 Multiplicity = 1

 SCF Done:  E(RHF) =  -576.011618209     A.U. after   13 cycles

 1\1\GINC-SE174\Stability\RHF\Aug-CC-pVDZ\C3H5Cl1\OHZDE\09-Apr-2025\0\\
 #t hf aug-cc-pvdz symm=none int=(grid=ultrafine) guess=(read,tcheck) s
 table=(opt,rrhf)\\title\\0,1\C,0,0.034598,0.741215,0.137322\C,0,-1.129
 787,-0.131605,0.447372\C,0,-2.215312,-0.193958,-0.308514\H,0,-1.05238,
 -0.728382,1.350995\H,0,-2.304958,0.38512,-1.221522\H,0,-3.053595,-0.82
 5498,-0.042263\H,0,0.263488,1.417643,0.958591\H,0,-0.121917,1.314529,-
 0.773196\Cl,0,1.537198,-0.238666,-0.113511\\Version=ES64L-G16RevC.01\H
 F=-576.0116182\RMSD=4.479e-09\Dipole=-0.7816751,0.4250664,0.1162947\Qu

 Normal termination of Gaussian 16 at Wed Apr  9 00:56:01 2025.
 Gaussian 16:  ES64L-G16RevC.01  3-Jul-2019

 ----------------------------------------------------------------------
 #t hf aug-cc-pvdz iop(5/13=1,5/36=2,99/5=2) pseudo=read geom=check gue
 ss=(read,tcheck) scf=(maxcycle=1)
 ----------------------------------------------------------------------
 -----
 title
 -----
 Structure from the checkpoint file:  "BH10_100_reverse_mol3.chk"
 Charge =  0 Multiplicity = 1

                         Standard orientation:
 ---------------------------------------------------------------------
 Center     Atomic      Atomic             Coordinates (Angstroms)
 Number     Number       Type             X           Y           Z
 ---------------------------------------------------------------------
      1          6           0        0.034598    0.741215    0.137322
      2          6           0       -1.129787   -0.131605    0.447372
      3          6           0       -2.215312   -0.193958   -0.308514
      4          1           0       -1.052380   -0.728382    1.350995
      5          1           0       -2.304958    0.385120   -1.221522
      6          1           0       -3.053595   -0.825498   -0.042263
      7          1           0        0.263488    1.417643    0.958591
      8          1           0       -0.121917    1.314529   -0.773196
      9         17           0        1.537198   -0.238666   -0.113511
 ---------------------------------------------------------------------

 SCF Done:  E(RHF) =  -576.840922321     A.U. after    2 cycles

 The electronic state is 1-A.
 Alpha  occ. eigenvalues --  -99.87609 -11.45583 -11.42156 -11.38570 -10.44881
 Alpha  occ. eigenvalues --   -9.64759  -9.64023  -9.63983  -1.34005  -1.17778
 Alpha  occ. eigenvalues --   -0.98999  -0.81432  -0.67965  -0.62315  -0.61538
 Alpha  occ. eigenvalues --   -0.55462  -0.52258  -0.47494  -0.46120  -0.36928
 Alpha virt. eigenvalues --    0.03122   0.05390   0.05935   0.06132   0.06681
 Alpha virt. eigenvalues --    0.07214   0.10021   0.11896   0.12545   0.13538
 Alpha virt. eigenvalues --    0.14773   0.15723   0.16150   0.17264   0.17354

 Mulliken charges:
               1
     1  C   -4.629630
     2  C    0.207264
     3  C   -2.885736
     4  H    1.353930
     5  H    1.432653
     6  H    1.371213
     7  H    1.493498
     8  H    1.558296
     9  Cl   0.098511
 Sum of Mulliken charges =  -0.00000

 Dipole moment (field-independent basis, Debye):
    X=             -2.1871    Y=              1.0351    Z=              0.2991  Tot=              2.4381

 Test job not archived.
 1\1\GINC-SE174\SP\RHF\Aug-CC-pVDZ\C3H5Cl1\OHZDE\09-Apr-2025\0\\#t hf a
 ug-cc-pvdz iop(5/13=1,5/36=2,99/5=2) pseudo=read geom=check guess=(rea
 d,tcheck) scf=(maxcycle=1)\\title\\0,1\C,0,0.034598,0.741215,0.137322\
 C,0,-1.129787,-0.131605,0.447372\C,0,-2.215312,-0.193958,-0.308514\H,0
 ,-1.05238,-0.728382,1.350995\H,0,-2.304958,0.38512,-1.221522\H,0,-3.05
 3595,-0.825498,-0.042263\H,0,0.263488,1.417643,0.958591\H,0,-0.121917,
 1.314529,-0.773196\Cl,0,1.537198,-0.238666,-0.113511\\Version=ES64L-G1
 6RevC.01\State=1-A\HF=-576.8409223\RMSD=3.951e-01\Dipole=-0.8604834,0.

 Normal termination of Gaussian 16 at Wed Apr  9 00:56:04 2025.
