 Gaussian 16, Revision C.01,

 ----------------------------------------------------------------------
 #t hf aug-cc-pvdz symm=none int=(grid=ultrafine) guess=(read,tcheck) s
 table=(opt,rrhf)
 ----------------------------------------------------------------------
 -----
 title
 -----
 Symbolic Z-matrix:
 Charge =  0 Multiplicity = 1

 SCF Done:  E(RHF) =  -911.409319719     A.U. after   13 cycles
 Normal termination of Gaussian 16 at Wed Apr  9 01:43:41 2025.
 Gaussian 16:  ES64L-G16RevC.01  3-Jul-2019

 ----------------------------------------------------------------------
 #t hf aug-cc-pvdz iop(5/13=1,5/36=2,99/5=2) pseudo=read geom=check gue
 ss=(read,tcheck) scf=(maxcycle=1)
 ----------------------------------------------------------------------
 -----
 title
 -----
 Structure from the checkpoint file:  "BH10_325_reverse_mol3.chk"
 Charge =  0 Multiplicity = 1

                         Standard orientation:
 ---------------------------------------------------------------------
 Center     Atomic      Atomic             Coordinates (Angstroms)
 Number     Number       Type             X           Y           Z
 ---------------------------------------------------------------------
      1         16           0       -2.965708   -0.392257   -0.297509
      2          6           0       -1.405753   -1.056978    0.356953
      3          6           0       -3.023551    1.244802    0.481841
      4          6           0       -0.203604   -0.766945   -0.520549
      5          1           0       -1.531435   -2.138204    0.412944
      6          1           0       -1.240626   -0.681832    1.366132
      7          6           0        0.309180    0.663811   -0.528120
      8          8           0        0.898881   -1.565668   -0.057066
      9          1           0       -0.437369   -1.054905   -1.551647
     10          6           0        2.125156   -0.856156   -0.146648
     11          6           0        1.781929    0.456216   -0.888622
     12          8           0        2.589289    1.533368   -0.488777
     13          1           0        1.877494    0.309150   -1.967586
     14          8           0        0.216363    1.228562    0.767572
     15          1           0       -0.222504    1.280175   -1.258414
     16          7           0        2.717654   -0.559796    1.132717
     17          1           0        2.835982   -1.462570   -0.711027
     18          1           0        0.848745    1.958690    0.785577
     19          1           0        3.137038    1.191113    0.238943
     20          1           0        2.004212   -0.251573    1.786206
     21          1           0        3.196450   -1.361200    1.521256
     22          1           0       -3.954131    1.706269    0.152854
     23          1           0       -2.183797    1.868300    0.185623
     24          1           0       -3.038723    1.152688    1.567290
 ---------------------------------------------------------------------

 SCF Done:  E(RHF) =  -913.966450950     A.U. after    2 cycles

 The electronic state is 1-A.
 Alpha  occ. eigenvalues --  -75.66823 -21.07414 -21.07121 -21.04540 -15.74904
 Alpha  occ. eigenvalues --  -13.12945 -13.08454 -13.02509 -11.51410 -11.50918
 Alpha  occ. eigenvalues --  -11.46552 -11.44219 -11.38819 -11.38608  -8.00900
 Alpha  occ. eigenvalues --   -1.80851  -1.72706  -1.70253  -1.33440  -1.23714
 Alpha  occ. eigenvalues --   -1.13906  -1.08555  -0.98668  -0.88936  -0.84231
 Alpha  occ. eigenvalues --   -0.81134  -0.76178  -0.68845  -0.65280  -0.63875
 Alpha  occ. eigenvalues --   -0.61791  -0.59290  -0.58399  -0.57640  -0.55674
 Alpha  occ. eigenvalues --   -0.53440  -0.52523  -0.49478  -0.45078  -0.43624
 Alpha  occ. eigenvalues --   -0.40986  -0.39068  -0.35525  -0.35309  -0.33706
 Alpha  occ. eigenvalues --   -0.32315  -0.29654  -0.21509
 Alpha virt. eigenvalues --    0.03466   0.04028   0.04259   0.04838   0.05208
 Alpha virt. eigenvalues --    0.05381   0.06079   0.06259   0.06883   0.08173
 Alpha virt. eigenvalues --    0.08908   0.09495   0.10163   0.10429   0.12075

 Mulliken charges:
               1
     1  S    0.933044
     2  C   -4.223240
     3  C   -4.985361
     4  C    1.939252
     5  H    1.424836
     6  H    1.605147
     7  C    0.321298
     8  O   -4.131056
     9  H    1.923710
    10  C    2.015214
    11  C    0.401265
    12  O   -3.142660
    13  H    1.350582
    14  O   -3.263250
    15  H    1.894694
    16  N   -2.898035
    17  H    1.875734
    18  H    0.808436
    19  H    0.624158
    20  H    0.556921
    21  H    0.610048
    22  H    1.371071
    23  H    1.602934
    24  H    1.385256
 Sum of Mulliken charges =  -0.00000

 Dipole moment (field-independent basis, Debye):
    X=              0.2235    Y=             -0.6567    Z=              0.4754  Tot=              0.8410

 Test job not archived.
 1\1\GINC-SE334\SP\RHF\Aug-CC-pVDZ\C6H13N1O3S1\OHZDE\09-Apr-2025\0\\#t
 hf aug-cc-pvdz iop(5/13=1,5/36=2,99/5=2) pseudo=read geom=check guess=
 (read,tcheck) scf=(maxcycle=1)\\title\\0,1\S,0,-2.965708,-0.392257,-0.
 297509\C,0,-1.405753,-1.056978,0.356953\C,0,-3.023551,1.244802,0.48184
 1\C,0,-0.203604,-0.766945,-0.520549\H,0,-1.531435,-2.138204,0.412944\H
 ,0,-1.240626,-0.681832,1.366132\C,0,0.30918,0.663811,-0.52812\O,0,0.89
 8881,-1.565668,-0.057066\H,0,-0.437369,-1.054905,-1.551647\C,0,2.12515
 6,-0.856156,-0.146648\C,0,1.781929,0.456216,-0.888622\O,0,2.589289,1.5

 Normal termination of Gaussian 16 at Wed Apr  9 01:43:58 2025.
