 Gaussian 16, Revision C.01,

 ----------------------------------------------------------------------
 #t hf aug-cc-pvdz symm=none int=(grid=ultrafine) guess=(read,tcheck) s
 table=(opt,rrhf)
 ----------------------------------------------------------------------
 -----
 title
 -----
 Symbolic Z-matrix:
 Charge =  0 Multiplicity = 1

 SCF Done:  E(RHF) =  -743.126047851     A.U. after   16 cycles
 Normal termination of Gaussian 16 at Wed Apr  9 02:06:20 2025.
 Gaussian 16:  ES64L-G16RevC.01  3-Jul-2019

 ----------------------------------------------------------------------
 #t hf aug-cc-pvdz iop(5/13=1,5/36=2,99/5=2) pseudo=read geom=check gue
 ss=(read,tcheck) scf=(maxcycle=1)
 ----------------------------------------------------------------------
 -----
 title
 -----
 Structure from the checkpoint file:  "BH10_418_forward_mol1.chk"
 Charge =  0 Multiplicity = 1

                         Standard orientation:
 ---------------------------------------------------------------------
 Center     Atomic      Atomic             Coordinates (Angstroms)
 Number     Number       Type             X           Y           Z
 ---------------------------------------------------------------------
      1          6           0        0.662918    0.838661    1.741357
      2          6           0       -0.015770    2.081044    0.520303
      3          6           0       -0.077619    1.346659   -0.690552
      4          6           0       -1.048269    0.235060   -0.624014
      5          6           0       -0.432022   -0.882012    0.476665
      6          6           0        0.856064   -0.353805    0.989448
      7          6           0        1.130020    0.961253   -1.284425
      8          9           0       -1.221970   -0.417288   -1.793398
      9          9           0       -1.367941   -1.028622    1.442501
     10          6           0        1.830781   -0.313296   -0.002447
     11          6           0        3.002660   -0.784094   -0.355721
     12          9           0       -0.327299   -2.059432   -0.170060
     13          1           0        1.938126    1.684847   -1.275170
     14          9           0       -2.271157    0.598014   -0.176386
     15          1           0        3.495590   -0.474828   -1.268967
     16          1           0        3.507461   -1.513779    0.265917
     17          1           0        1.089098    0.331734   -2.165947
     18          1           0        1.569423    1.323001    2.087856
     19          1           0       -0.123977    0.802809    2.486663
     20          1           0        0.727470    2.871109    0.551331
     21          1           0       -0.960467    2.364237    0.970728
 ---------------------------------------------------------------------

 SCF Done:  E(RHF) =  -746.183823190     A.U. after    2 cycles

 The electronic state is 1-A.
 Alpha  occ. eigenvalues --  -29.29016 -29.28913 -29.28849 -29.28715 -11.65252
 Alpha  occ. eigenvalues --  -11.54838 -11.51322 -11.48340 -11.45138 -11.43218
 Alpha  occ. eigenvalues --  -11.42859 -11.41261 -11.39601  -1.47659  -1.28400
 Alpha  occ. eigenvalues --   -1.25772  -1.14236  -1.09779  -1.02122  -0.93559
 Alpha  occ. eigenvalues --   -0.88198  -0.85183  -0.77832  -0.77111  -0.74603
 Alpha  occ. eigenvalues --   -0.71500  -0.64658  -0.63257  -0.62119  -0.58569
 Alpha  occ. eigenvalues --   -0.56169  -0.54177  -0.53102  -0.50734  -0.47003
 Alpha  occ. eigenvalues --   -0.44482  -0.40715  -0.40291  -0.38395  -0.36842
 Alpha  occ. eigenvalues --   -0.36184  -0.34579  -0.32805  -0.29565  -0.25137
 Alpha  occ. eigenvalues --   -0.24122  -0.23815  -0.22870  -0.18990
 Alpha virt. eigenvalues --    0.03552   0.04362   0.04786   0.04941   0.05435
 Alpha virt. eigenvalues --    0.06125   0.07106   0.07402   0.07841   0.09970
 Alpha virt. eigenvalues --    0.10575   0.10991   0.11394   0.11534   0.11967

 Mulliken charges:
               1
     1  C   -2.883037
     2  C   -3.026624
     3  C   -1.462586
     4  C    0.889669
     5  C    1.261798
     6  C   -3.201394
     7  C   -3.661714
     8  F    0.341303
     9  F    0.287032
    10  C    5.078689
    11  C   -5.324761
    12  F    0.362522
    13  H    1.424786
    14  F    0.334634
    15  H    1.617792
    16  H    1.282814
    17  H    1.328581
    18  H    1.407631
    19  H    1.287419
    20  H    1.401353
    21  H    1.254092
 Sum of Mulliken charges =  -0.00000

 Dipole moment (field-independent basis, Debye):
    X=             -1.8403    Y=             -1.2616    Z=             -0.3536  Tot=              2.2591

 Test job not archived.
 1\1\GINC-SE460\SP\RHF\Aug-CC-pVDZ\C9H8F4\OHZDE\09-Apr-2025\0\\#t hf au
 g-cc-pvdz iop(5/13=1,5/36=2,99/5=2) pseudo=read geom=check guess=(read
 ,tcheck) scf=(maxcycle=1)\\title\\0,1\C,0,0.662918,0.838661,1.741357\C
 ,0,-0.01577,2.081044,0.520303\C,0,-0.077619,1.346659,-0.690552\C,0,-1.
 048269,0.23506,-0.624014\C,0,-0.432022,-0.882012,0.476665\C,0,0.856064
 ,-0.353805,0.989448\C,0,1.13002,0.961253,-1.284425\F,0,-1.22197,-0.417
 288,-1.793398\F,0,-1.367941,-1.028622,1.442501\C,0,1.830781,-0.313296,
 -0.002447\C,0,3.00266,-0.784094,-0.355721\F,0,-0.327299,-2.059432,-0.1

 Normal termination of Gaussian 16 at Wed Apr  9 02:06:36 2025.
