 Gaussian 16, Revision C.01,

 ----------------------------------------------------------------------
 #t hf aug-cc-pvdz symm=none int=(grid=ultrafine) guess=(read,tcheck) s
 table=(opt,rrhf)
 ----------------------------------------------------------------------
 -----
 title
 -----
 Symbolic Z-matrix:
 Charge = -1 Multiplicity = 1

 SCF Done:  E(RHF) =  -1360.54409302     A.U. after   15 cycles
 Normal termination of Gaussian 16 at Wed Apr  9 01:42:47 2025.
 Gaussian 16:  ES64L-G16RevC.01  3-Jul-2019

 ----------------------------------------------------------------------
 #t hf aug-cc-pvdz iop(5/13=1,5/36=2,99/5=2) pseudo=read geom=check gue
 ss=(read,tcheck) scf=(maxcycle=1)
 ----------------------------------------------------------------------
 -----
 title
 -----
 Structure from the checkpoint file:  "BH10_313_forward_mol1.chk"
 Charge = -1 Multiplicity = 1

                         Standard orientation:
 ---------------------------------------------------------------------
 Center     Atomic      Atomic             Coordinates (Angstroms)
 Number     Number       Type             X           Y           Z
 ---------------------------------------------------------------------
      1          6           0       -1.288032    0.973226    0.201172
      2          6           0       -2.620278    0.251583    0.115396
      3          6           0       -2.421909   -1.192771    0.543800
      4          1           0       -2.977841    0.286420   -0.915258
      5          1           0       -3.357773    0.745669    0.747533
      6          6           0       -1.223880   -1.857987   -0.144679
      7          6           0       -0.081769   -1.043055   -0.382708
      8          8           0       -0.344382    0.370463   -0.633480
      9          6           0       -1.377127    2.418795   -0.306570
     10          6           0        0.993366   -1.488227   -1.313766
     11          1           0        0.736662   -0.847241    0.812737
     12          8           0        2.345520   -1.262754   -0.828514
     13          1           0        0.914343   -0.973305   -2.276521
     14          1           0        0.907970   -2.562575   -1.460964
     15         15           0        2.730885   -0.132802    0.258196
     16          8           0        4.132093   -0.234097    0.680922
     17          8           0        1.594267   -0.281022    1.344827
     18          8           0        2.448443    1.280833   -0.474176
     19          1           0        1.503345    1.444554   -0.617943
     20          8           0       -1.298782   -3.076006   -0.338543
     21          8           0       -3.580669   -1.955557    0.293930
     22          1           0       -2.188495   -1.207626    1.616016
     23          1           0       -3.233123   -2.831170    0.054041
     24          8           0       -2.386700    3.023737   -0.539177
     25          8           0       -0.154602    2.964410   -0.425927
     26          1           0       -0.264994    3.881491   -0.709295
     27          8           0       -0.876835    1.021082    1.545831
     28          1           0        0.087586    0.877713    1.595292
 ---------------------------------------------------------------------

 SCF Done:  E(RHF) =  -1365.08854636     A.U. after    2 cycles

 The electronic state is 1-A.
 Alpha  occ. eigenvalues -- -105.17542 -21.04396 -20.97807 -20.97201 -20.96365
 Alpha  occ. eigenvalues --  -20.95908 -20.95894 -20.93741 -20.91836 -20.91571
 Alpha  occ. eigenvalues --  -20.87740 -11.47361 -11.42957 -11.42027 -11.37181
 Alpha  occ. eigenvalues --  -11.36126 -11.31456 -11.28596  -2.80573  -1.85304
 Alpha  occ. eigenvalues --   -1.77824  -1.76400  -1.75759  -1.70960  -1.63183
 Alpha  occ. eigenvalues --   -1.59599  -1.58471  -1.57885  -1.55327  -1.28907
 Alpha  occ. eigenvalues --   -1.24226  -1.10508  -1.08084  -1.02689  -0.89935
 Alpha  occ. eigenvalues --   -0.84173  -0.77204  -0.70362  -0.64760  -0.59668
 Alpha  occ. eigenvalues --   -0.58533  -0.58118  -0.54286  -0.53860  -0.52056
 Alpha  occ. eigenvalues --   -0.50201  -0.48508  -0.47395  -0.44417  -0.44059
 Alpha  occ. eigenvalues --   -0.42334  -0.41257  -0.40247  -0.38045  -0.36139
 Alpha  occ. eigenvalues --   -0.34975  -0.32500  -0.30920  -0.29015  -0.28920
 Alpha  occ. eigenvalues --   -0.27954  -0.26236  -0.25952  -0.23504  -0.23084
 Alpha  occ. eigenvalues --   -0.22388  -0.21628  -0.20319  -0.19506  -0.16733
 Alpha  occ. eigenvalues --   -0.12796  -0.12100  -0.10453  -0.01627
 Alpha virt. eigenvalues --    0.11603   0.12770   0.13217   0.13704   0.14202
 Alpha virt. eigenvalues --    0.14343   0.15849   0.16340   0.16875   0.17434
 Alpha virt. eigenvalues --    0.18795   0.19245   0.20109   0.20558   0.20806

 Mulliken charges:
               1
     1  C    5.172668
     2  C   -4.648812
     3  C    1.854395
     4  H    1.349711
     5  H    1.355670
     6  C    4.348557
     7  C    0.124526
     8  O   -4.646959
     9  C    7.759407
    10  C   -2.034946
    11  H    2.989375
    12  O   -3.426763
    13  H    1.369914
    14  H    1.398229
    15  P    8.659632
    16  O   -3.133715
    17  O   -3.426073
    18  O   -3.142575
    19  H    1.556966
    20  O   -4.140665
    21  O   -3.497882
    22  H    1.380323
    23  H    0.606284
    24  O   -3.536177
    25  O   -3.498531
    26  H    1.110939
    27  O   -3.853581
    28  H    0.950083
 Sum of Mulliken charges =  -1.00000

 Dipole moment (field-independent basis, Debye):
    X=             -4.0614    Y=              3.2451    Z=             -1.7535  Tot=              5.4864

 Test job not archived.
 1\1\GINC-SE095\SP\RHF\Aug-CC-pVDZ\C7H10O10P1(1-)\OHZDE\09-Apr-2025\0\\
 #t hf aug-cc-pvdz iop(5/13=1,5/36=2,99/5=2) pseudo=read geom=check gue
 ss=(read,tcheck) scf=(maxcycle=1)\\title\\-1,1\C,0,-1.288032,0.973226,
 0.201172\C,0,-2.620278,0.251583,0.115396\C,0,-2.421909,-1.192771,0.543
 8\H,0,-2.977841,0.28642,-0.915258\H,0,-3.357773,0.745669,0.747533\C,0,
 -1.22388,-1.857987,-0.144679\C,0,-0.081769,-1.043055,-0.382708\O,0,-0.
 344382,0.370463,-0.63348\C,0,-1.377127,2.418795,-0.30657\C,0,0.993366,
 -1.488227,-1.313766\H,0,0.736662,-0.847241,0.812737\O,0,2.34552,-1.262

 Normal termination of Gaussian 16 at Wed Apr  9 01:43:30 2025.
