 Gaussian 16, Revision C.01,

 ----------------------------------------------------------------------
 #t hf aug-cc-pvdz symm=none int=(grid=ultrafine) guess=(read,tcheck) s
 table=(opt,rrhf)
 ----------------------------------------------------------------------
 -----
 title
 -----
 Symbolic Z-matrix:
 Charge =  0 Multiplicity = 1

 SCF Done:  E(RHF) =  -827.557196823     A.U. after   13 cycles
 Normal termination of Gaussian 16 at Wed Apr  9 00:57:17 2025.
 Gaussian 16:  ES64L-G16RevC.01  3-Jul-2019

 ----------------------------------------------------------------------
 #t hf aug-cc-pvdz iop(5/13=1,5/36=2,99/5=2) pseudo=read geom=check gue
 ss=(read,tcheck) scf=(maxcycle=1)
 ----------------------------------------------------------------------
 -----
 title
 -----
 Structure from the checkpoint file:  "BH10_111_forward_mol2.chk"
 Charge =  0 Multiplicity = 1

                         Standard orientation:
 ---------------------------------------------------------------------
 Center     Atomic      Atomic             Coordinates (Angstroms)
 Number     Number       Type             X           Y           Z
 ---------------------------------------------------------------------
      1          6           0        1.934642    0.000105    0.839308
      2          6           0        0.480419    0.000060    0.500790
      3          6           0       -0.206643    1.199461    0.337518
      4          6           0       -0.206594   -1.199384    0.337619
      5          1           0        0.319811    2.139281    0.457012
      6          6           0       -1.555310    1.209774    0.018225
      7          6           0       -1.555259   -1.209779    0.018326
      8          6           0       -2.201945   -0.000022   -0.135294
      9          1           0        0.319901   -2.139172    0.457191
     10          1           0       -2.104913    2.132789   -0.110408
     11          1           0       -2.104824   -2.132827   -0.110230
     12          9           0       -3.513787   -0.000063   -0.442844
     13          1           0        2.219813   -0.886547    1.399075
     14          1           0        2.219804    0.886891    1.398867
     15         17           0        2.977567   -0.000067   -0.647345
 ---------------------------------------------------------------------

 SCF Done:  E(RHF) =  -829.432508493     A.U. after    2 cycles

 The electronic state is 1-A.
 Alpha  occ. eigenvalues --  -99.87858 -29.28942 -11.54312 -11.47837 -11.46007
 Alpha  occ. eigenvalues --  -11.44948 -11.43756 -11.42028 -11.38622 -10.45108
 Alpha  occ. eigenvalues --   -9.65069  -9.64339  -9.64258  -1.40723  -1.31559
 Alpha  occ. eigenvalues --   -1.17921  -1.12310  -1.02603  -0.90549  -0.88856
 Alpha  occ. eigenvalues --   -0.77712  -0.68602  -0.67202  -0.62741  -0.61267
 Alpha  occ. eigenvalues --   -0.60651  -0.58943  -0.55273  -0.52118  -0.48846
 Alpha  occ. eigenvalues --   -0.46623  -0.45627  -0.41745  -0.39044  -0.35422
 Alpha  occ. eigenvalues --   -0.27767  -0.23958
 Alpha virt. eigenvalues --    0.03125   0.04674   0.04998   0.06108   0.06847
 Alpha virt. eigenvalues --    0.07187   0.07854   0.09271   0.10170   0.10184
 Alpha virt. eigenvalues --    0.11239   0.12016   0.12405   0.13488   0.13779

 Mulliken charges:
               1
     1  C   -5.184144
     2  C    3.562805
     3  C   -0.303016
     4  C   -0.303055
     5  H    1.716655
     6  C   -5.255278
     7  C   -5.255231
     8  C    2.551097
     9  H    1.716648
    10  H    1.651779
    11  H    1.651785
    12  F    0.660766
    13  H    1.312181
    14  H    1.312248
    15  Cl   0.164760
 Sum of Mulliken charges =   0.00000

 Dipole moment (field-independent basis, Debye):
    X=             -3.7749    Y=              0.0001    Z=              1.1923  Tot=              3.9587

 Test job not archived.
 1\1\GINC-SE166\SP\RHF\Aug-CC-pVDZ\C7H6Cl1F1\OHZDE\09-Apr-2025\0\\#t hf
  aug-cc-pvdz iop(5/13=1,5/36=2,99/5=2) pseudo=read geom=check guess=(r
 ead,tcheck) scf=(maxcycle=1)\\title\\0,1\C,0,1.934642,0.000105,0.83930
 8\C,0,0.480419,0.00006,0.50079\C,0,-0.206643,1.199461,0.337518\C,0,-0.
 206594,-1.199384,0.337619\H,0,0.319811,2.139281,0.457012\C,0,-1.55531,
 1.209774,0.018225\C,0,-1.555259,-1.209779,0.018326\C,0,-2.201945,-0.00
 0022,-0.135294\H,0,0.319901,-2.139172,0.457191\H,0,-2.104913,2.132789,
 -0.110408\H,0,-2.104824,-2.132827,-0.11023\F,0,-3.513787,-0.000063,-0.

 Normal termination of Gaussian 16 at Wed Apr  9 00:57:24 2025.
