 Gaussian 16, Revision C.01,

 ----------------------------------------------------------------------
 #t hf aug-cc-pvdz symm=none int=(grid=ultrafine) guess=(read,tcheck) s
 table=opt
 ----------------------------------------------------------------------
 -----
 title
 -----
 Symbolic Z-matrix:
 Charge =  0 Multiplicity = 2

 SCF Done:  E(UHF) =  -1565.97237927     A.U. after   19 cycles

 1\1\GINC-SE116\Stability\UHF\Aug-CC-pVDZ\C1Cl3O2\OHZDE\09-Apr-2025\0\\
 #t hf aug-cc-pvdz symm=none int=(grid=ultrafine) guess=(read,tcheck) s
 table=opt\\title\\0,2\O,0,-1.855519,0.,1.24389\O,0,-0.55635,0.,1.33331
 7\C,0,0.099228,0.,0.044159\Cl,0,1.804678,-0.000005,0.463997\Cl,0,-0.35
 2355,-1.452606,-0.846195\Cl,0,-0.352347,1.452612,-0.84619\\Version=ES6
 4L-G16RevC.01\HF=-1565.9723793\S2=0.761339\S2-1=0.\S2A=0.750097\RMSD=9
 .747e-09\Dipole=0.1900753,-0.0000009,-0.242883\Quadrupole=0.1239755,1.
 0882852,-1.2122608,0.0000009,0.963758,0.0000015\PG=Unknown\\@

 Normal termination of Gaussian 16 at Wed Apr  9 00:59:43 2025.
 Gaussian 16:  ES64L-G16RevC.01  3-Jul-2019

 ----------------------------------------------------------------------
 #t hf aug-cc-pvdz iop(5/13=1,5/36=2,99/5=2) pseudo=read geom=check gue
 ss=(read,tcheck) scf=(maxcycle=1)
 ----------------------------------------------------------------------
 -----
 title
 -----
 Structure from the checkpoint file:  "BH10_166_forward_mol3.chk"
 Charge =  0 Multiplicity = 2

                         Standard orientation:
 ---------------------------------------------------------------------
 Center     Atomic      Atomic             Coordinates (Angstroms)
 Number     Number       Type             X           Y           Z
 ---------------------------------------------------------------------
      1          8           0       -1.855519    0.000001    1.243890
      2          8           0       -0.556350    0.000000    1.333317
      3          6           0        0.099228   -0.000000    0.044159
      4         17           0        1.804678   -0.000006    0.463997
      5         17           0       -0.352356   -1.452606   -0.846195
      6         17           0       -0.352346    1.452612   -0.846190
 ---------------------------------------------------------------------

 SCF Done:  E(UHF) =  -1567.44535729     A.U. after    2 cycles

 The electronic state is 2-A.
 Alpha  occ. eigenvalues --  -99.93718 -99.93397 -99.93375 -21.19260 -21.18397
 Alpha  occ. eigenvalues --  -11.59786 -10.51255 -10.50898 -10.50803  -9.71137
 Alpha  occ. eigenvalues --   -9.70818  -9.70560  -9.70172  -9.70144  -9.69860
 Alpha  occ. eigenvalues --   -9.69820  -9.69799  -9.69748  -2.11983  -1.51534
 Alpha  occ. eigenvalues --   -1.36470  -1.33365  -1.33347  -0.96114  -0.76471
 Alpha  occ. eigenvalues --   -0.76441  -0.72350  -0.64467  -0.60059  -0.55872
 Alpha  occ. eigenvalues --   -0.54311  -0.53136  -0.52893  -0.51896  -0.51691
 Alpha  occ. eigenvalues --   -0.38754  -0.35443
 Alpha virt. eigenvalues --   -0.00445   0.05406   0.05855   0.06322   0.09429
 Alpha virt. eigenvalues --    0.09601   0.11205   0.13242   0.14447   0.14668
 Alpha virt. eigenvalues --    0.14965   0.16400   0.17642   0.17699   0.18270

  Beta  occ. eigenvalues --  -99.93724 -99.93391 -99.93369 -21.17855 -21.15288
  Beta  occ. eigenvalues --  -11.59861 -10.51261 -10.50895 -10.50798  -9.71151
  Beta  occ. eigenvalues --   -9.70785  -9.70534  -9.70183  -9.70145  -9.69859
  Beta  occ. eigenvalues --   -9.69818  -9.69797  -9.69746  -2.06905  -1.48856
  Beta  occ. eigenvalues --   -1.33703  -1.33289  -1.29908  -0.95513  -0.76311
  Beta  occ. eigenvalues --   -0.75431  -0.71588  -0.59816  -0.59777  -0.53947
  Beta  occ. eigenvalues --   -0.53384  -0.52712  -0.51891  -0.50521  -0.46305
  Beta  occ. eigenvalues --   -0.36521
  Beta virt. eigenvalues --   -0.00364   0.03889   0.05445   0.05878   0.08654
  Beta virt. eigenvalues --    0.09432   0.11276   0.11727   0.13319   0.14938
  Beta virt. eigenvalues --    0.15000   0.15123   0.16430   0.17725   0.18139

 Mulliken charges and spin densities:
               1          2
     1  O   -0.228447   0.911685
     2  O   -0.808992   0.073220
     3  C   -0.639023   0.013559
     4  Cl   0.484191  -0.007735
     5  Cl   0.596136   0.004635
     6  Cl   0.596135   0.004635
 Sum of Mulliken charges =  -0.00000   1.00000

 Dipole moment (field-independent basis, Debye):
    X=             -0.9453    Y=             -0.0000    Z=              0.9886  Tot=              1.3679
                          Isotropic Fermi Contact Couplings
        Atom                 a.u.       MegaHertz       Gauss      10(-4) cm-1
     1  O(17)              0.19935    -120.84803     -43.12158     -40.31056
     2  O(17)              0.05143     -31.17813     -11.12513     -10.39991
     3  C(13)             -0.01521     -17.09651      -6.10046      -5.70278
     4  Cl(35)            -0.00529      -2.31973      -0.82774      -0.77378
     5  Cl(35)            -0.00127      -0.55642      -0.19854      -0.18560
     6  Cl(35)            -0.00127      -0.55637      -0.19853      -0.18559
 --------------------------------------------------------
       Center         ----  Spin Dipole Couplings  ----

 Normal termination of Gaussian 16 at Wed Apr  9 00:59:46 2025.
