 Gaussian 16, Revision C.01,

 ----------------------------------------------------------------------
 #t hf aug-cc-pvdz symm=none int=(grid=ultrafine) guess=(read,tcheck) s
 table=(opt,rrhf)
 ----------------------------------------------------------------------
 -----
 title
 -----
 Symbolic Z-matrix:
 Charge =  0 Multiplicity = 1

 SCF Done:  E(RHF) =  -1310.51841596     A.U. after   15 cycles
 Normal termination of Gaussian 16 at Wed Apr  9 02:32:41 2025.
 Gaussian 16:  ES64L-G16RevC.01  3-Jul-2019

 ----------------------------------------------------------------------
 #t hf aug-cc-pvdz iop(5/13=1,5/36=2,99/5=2) pseudo=read geom=check gue
 ss=(read,tcheck) scf=(maxcycle=1)
 ----------------------------------------------------------------------
 -----
 title
 -----
 Structure from the checkpoint file:  "BH10_88_reverse_mol2.chk"
 Charge =  0 Multiplicity = 1

                         Standard orientation:
 ---------------------------------------------------------------------
 Center     Atomic      Atomic             Coordinates (Angstroms)
 Number     Number       Type             X           Y           Z
 ---------------------------------------------------------------------
      1          6           0        0.178413   -0.823932   -0.251321
      2          6           0        0.500657   -0.272352    1.130337
      3          6           0       -0.564110   -2.225417   -0.101967
      4          8           0       -1.366366   -2.245085   -1.271389
      5          6           0       -1.602871   -2.057438    0.990328
      6          6           0       -2.559970   -1.317695    0.447685
      7          6           0       -2.113499   -1.063430   -0.978505
      8          6           0       -0.942530   -0.033538   -0.995351
      9          6           0       -1.204798    1.374631   -0.526340
     10          8           0       -2.427548    1.543859   -0.036993
     11          8           0       -0.417906    2.282477   -0.669853
     12          8           0       -0.130481    0.600147    1.670003
     13          8           0        1.488552   -0.938219    1.712770
     14          6           0        1.927608   -0.413504    2.970391
     15          6           0       -2.710640    2.842510    0.498822
     16         16           0        1.657913   -1.140659   -1.282432
     17          6           0        2.179990    0.504161   -1.853826
     18          6           0        2.969451    1.333536   -0.854407
     19          8           0        2.228455    1.668188    0.297614
     20          1           0        2.736767   -1.064048    3.290772
     21          1           0        1.113307   -0.423203    3.694574
     22          1           0        2.281880    0.606383    2.825380
     23          1           0       -3.737290    2.795994    0.851167
     24          1           0       -2.599565    3.604287   -0.271600
     25          1           0       -2.027689    3.050810    1.321518
     26          1           0        1.312237    1.062419   -2.209276
     27          1           0        2.806519    0.292878   -2.723904
     28          1           0        3.329212    2.238006   -1.363973
     29          1           0        3.839884    0.774028   -0.508613
     30          1           0        1.413353    2.117914    0.030295
     31          1           0       -3.433059   -0.891018    0.914570
     32          1           0       -1.497128   -2.382814    2.014391
     33          1           0        0.106321   -3.077919   -0.056420
     34          1           0       -2.881053   -0.889682   -1.726354
     35          1           0       -0.634177    0.060390   -2.035895
 ---------------------------------------------------------------------

 SCF Done:  E(RHF) =  -1314.80969563     A.U. after    2 cycles

 The electronic state is 1-A.
 Alpha  occ. eigenvalues --  -75.67877 -21.10096 -21.08964 -21.05375 -21.04876
 Alpha  occ. eigenvalues --  -21.04831 -21.04314 -13.18416 -13.13711 -13.09030
 Alpha  occ. eigenvalues --  -11.67160 -11.57119 -11.56068 -11.51474 -11.48421
 Alpha  occ. eigenvalues --  -11.45832 -11.44838 -11.43144 -11.42401 -11.41352
 Alpha  occ. eigenvalues --  -11.38956 -11.38834  -8.01951  -1.87067  -1.85462
 Alpha  occ. eigenvalues --   -1.80810  -1.70237  -1.67417  -1.66880  -1.29861
 Alpha  occ. eigenvalues --   -1.20712  -1.15215  -1.12675  -1.03452  -1.02505
 Alpha  occ. eigenvalues --   -1.00732  -0.92119  -0.86778  -0.85367  -0.80050
 Alpha  occ. eigenvalues --   -0.79785  -0.75787  -0.72068  -0.70438  -0.66161
 Alpha  occ. eigenvalues --   -0.65020  -0.64309  -0.62894  -0.62643  -0.61733
 Alpha  occ. eigenvalues --   -0.60413  -0.58559  -0.56806  -0.56472  -0.55340
 Alpha  occ. eigenvalues --   -0.53416  -0.52463  -0.51539  -0.51303  -0.50377
 Alpha  occ. eigenvalues --   -0.48657  -0.45811  -0.43821  -0.43144  -0.41551
 Alpha  occ. eigenvalues --   -0.40982  -0.39152  -0.36304  -0.35358  -0.34139
 Alpha  occ. eigenvalues --   -0.32135  -0.31000  -0.30526  -0.29448  -0.27891
 Alpha  occ. eigenvalues --   -0.21376
 Alpha virt. eigenvalues --    0.03428   0.03578   0.03775   0.04725   0.04914
 Alpha virt. eigenvalues --    0.05554   0.06096   0.06183   0.06761   0.06992
 Alpha virt. eigenvalues --    0.07156   0.07345   0.07997   0.08219   0.09533

 Mulliken charges:
               1
     1  C    3.926989
     2  C    8.614407
     3  C   -1.091658
     4  O   -4.249948
     5  C   -1.088974
     6  C   -1.564196
     7  C    0.000716
     8  C   -4.414360
     9  C    9.182197
    10  O   -3.859521
    11  O   -3.824793
    12  O   -3.937521
    13  O   -4.811354
    14  C   -4.249782
    15  C   -4.067232
    16  S   -0.013291
    17  C   -4.725377
    18  C   -1.648782
    19  O   -3.265431
    20  H    1.520198
    21  H    1.483115
    22  H    1.430188
    23  H    1.401509
    24  H    1.473890
    25  H    1.467716
    26  H    1.836090
    27  H    1.490555
    28  H    1.305526
    29  H    1.671073
    30  H    1.496400
    31  H    1.445050
    32  H    1.503841
    33  H    1.930334
    34  H    1.873511
    35  H    1.758918
 Sum of Mulliken charges =  -0.00000

 Dipole moment (field-independent basis, Debye):
    X=             -0.7046    Y=             -0.5988    Z=              0.8656  Tot=              1.2666

 Test job not archived.
 1\1\GINC-SE069\SP\RHF\Aug-CC-pVDZ\C12H16O6S1\OHZDE\09-Apr-2025\0\\#t h
 f aug-cc-pvdz iop(5/13=1,5/36=2,99/5=2) pseudo=read geom=check guess=(
 read,tcheck) scf=(maxcycle=1)\\title\\0,1\C,0,0.178413,-0.823932,-0.25
 1321\C,0,0.500657,-0.272352,1.130337\C,0,-0.56411,-2.225417,-0.101967\
 O,0,-1.366366,-2.245085,-1.271389\C,0,-1.602871,-2.057438,0.990328\C,0
 ,-2.55997,-1.317695,0.447685\C,0,-2.113499,-1.06343,-0.978505\C,0,-0.9
 4253,-0.033538,-0.995351\C,0,-1.204798,1.374631,-0.52634\O,0,-2.427548
 ,1.543859,-0.036993\O,0,-0.417906,2.282477,-0.669853\O,0,-0.130481,0.6

 Normal termination of Gaussian 16 at Wed Apr  9 02:33:52 2025.
