 Gaussian 16, Revision C.01,

 ----------------------------------------------------------------------
 #t hf aug-cc-pvdz symm=none int=(grid=ultrafine) guess=(read,tcheck) s
 table=(opt,rrhf)
 ----------------------------------------------------------------------
 -----
 title
 -----
 Symbolic Z-matrix:
 Charge =  0 Multiplicity = 1

 SCF Done:  E(RHF) =  -833.164940479     A.U. after   13 cycles
 Normal termination of Gaussian 16 at Wed Apr  9 00:56:34 2025.
 Gaussian 16:  ES64L-G16RevC.01  3-Jul-2019

 ----------------------------------------------------------------------
 #t hf aug-cc-pvdz iop(5/13=1,5/36=2,99/5=2) pseudo=read geom=check gue
 ss=(read,tcheck) scf=(maxcycle=1)
 ----------------------------------------------------------------------
 -----
 title
 -----
 Structure from the checkpoint file:  "BH10_107_reverse_mol3.chk"
 Charge =  0 Multiplicity = 1

                         Standard orientation:
 ---------------------------------------------------------------------
 Center     Atomic      Atomic             Coordinates (Angstroms)
 Number     Number       Type             X           Y           Z
 ---------------------------------------------------------------------
      1          9           0        1.871725   -0.652518   -0.000002
      2         16           0        0.997302    0.736788    0.000001
      3          6           0       -0.638626   -0.043836    0.000000
      4          9           0       -1.512847    0.969162   -0.000001
      5          9           0       -0.853054   -0.798633    1.072499
      6          9           0       -0.853055   -0.798632   -1.072499
 ---------------------------------------------------------------------

 SCF Done:  E(RHF) =  -834.887263108     A.U. after    2 cycles

 The electronic state is 1-A.
 Alpha  occ. eigenvalues --  -75.80034 -29.34624 -29.33857 -29.33811 -29.31206
 Alpha  occ. eigenvalues --  -13.24754 -13.20394 -13.11275 -11.61447  -8.14332
 Alpha  occ. eigenvalues --   -1.47622  -1.21716  -0.93787  -0.92325  -0.78991
 Alpha  occ. eigenvalues --   -0.63568  -0.51161  -0.47211  -0.46475  -0.45981
 Alpha  occ. eigenvalues --   -0.41950  -0.39025  -0.37862  -0.34796  -0.28914
 Alpha  occ. eigenvalues --   -0.28606  -0.25690  -0.24075  -0.19831
 Alpha virt. eigenvalues --    0.06615   0.09750   0.11136   0.11600   0.13286
 Alpha virt. eigenvalues --    0.13715   0.15454   0.18412   0.19707   0.22076
 Alpha virt. eigenvalues --    0.22389   0.24382   0.25661   0.28432   0.28467

 Mulliken charges:
               1
     1  F   -0.170774
     2  S    0.288765
     3  C   -2.049342
     4  F    0.683404
     5  F    0.623972
     6  F    0.623973
 Sum of Mulliken charges =   0.00000

 Dipole moment (field-independent basis, Debye):
    X=             -0.0390    Y=             -2.4373    Z=             -0.0000  Tot=              2.4376

 Test job not archived.
 1\1\GINC-SE059\SP\RHF\Aug-CC-pVDZ\C1F4S1\OHZDE\09-Apr-2025\0\\#t hf au
 g-cc-pvdz iop(5/13=1,5/36=2,99/5=2) pseudo=read geom=check guess=(read
 ,tcheck) scf=(maxcycle=1)\\title\\0,1\F,0,-1.871725,-0.652518,0.000002
 \S,0,-0.997302,0.736788,-0.000001\C,0,0.638626,-0.043836,0.\F,0,1.5128
 47,0.969162,0.000001\F,0,0.853054,-0.798633,-1.072499\F,0,0.853055,-0.
 798632,1.072499\\Version=ES64L-G16RevC.01\State=1-A\HF=-834.8872631\RM
 SD=6.105e-02\Dipole=0.015336,-0.9589062,0.0000019\Quadrupole=3.147467,
 -0.8833904,-2.2640766,1.7104796,0.0000023,-0.0000013\PG=C01 [X(C1F4S1)

 Normal termination of Gaussian 16 at Wed Apr  9 00:56:36 2025.
