 Gaussian 16, Revision C.01,

 ----------------------------------------------------------------------
 #t hf aug-cc-pvdz symm=none int=(grid=ultrafine) guess=(read,tcheck) s
 table=(opt,rrhf)
 ----------------------------------------------------------------------
 -----
 title
 -----
 Symbolic Z-matrix:
 Charge =  0 Multiplicity = 1

 SCF Done:  E(RHF) =  -808.942240633     A.U. after   15 cycles
 Normal termination of Gaussian 16 at Wed Apr  9 01:22:26 2025.
 Gaussian 16:  ES64L-G16RevC.01  3-Jul-2019

 ----------------------------------------------------------------------
 #t hf aug-cc-pvdz iop(5/13=1,5/36=2,99/5=2) pseudo=read geom=check gue
 ss=(read,tcheck) scf=(maxcycle=1)
 ----------------------------------------------------------------------
 -----
 title
 -----
 Structure from the checkpoint file:  "BH10_290_forward_mol2.chk"
 Charge =  0 Multiplicity = 1

                         Standard orientation:
 ---------------------------------------------------------------------
 Center     Atomic      Atomic             Coordinates (Angstroms)
 Number     Number       Type             X           Y           Z
 ---------------------------------------------------------------------
      1          6           0       -2.737445    1.214736    0.227099
      2          6           0       -1.566251    0.493464    0.037768
      3          6           0       -1.607197   -0.889454   -0.153689
      4          6           0       -2.808277   -1.565177   -0.140679
      5          6           0       -3.991606   -0.852070    0.057331
      6          6           0       -3.946652    0.522596    0.237943
      7          1           0       -2.724240    2.288337    0.363080
      8          1           0       -2.836019   -2.639092   -0.289665
      9          1           0       -4.942712   -1.369477    0.063225
     10          1           0       -4.868104    1.074130    0.383364
     11          6           0       -0.196327   -1.390324   -0.308317
     12          6           0        0.594459   -0.090045   -0.587987
     13          1           0        0.615802    0.063529   -1.682097
     14          7           0       -0.250476    0.966023    0.014567
     15          1           0       -0.075991   -2.120399   -1.109111
     16          6           0       -0.027275    2.317671   -0.445304
     17          1           0       -0.312634    2.448050   -1.501344
     18          1           0       -0.602095    3.020759    0.157242
     19          1           0        1.023712    2.578258   -0.339843
     20         14           0        2.371169   -0.175179    0.088190
     21          6           0        2.298753   -0.263458    1.958171
     22          1           0        1.758804    0.597111    2.359209
     23          1           0        1.785418   -1.163347    2.304083
     24          1           0        3.302548   -0.267597    2.390637
     25          6           0        3.413207    1.300373   -0.436157
     26          1           0        4.469983    1.094082   -0.245610
     27          1           0        3.308252    1.512375   -1.503232
     28          1           0        3.157417    2.207667    0.114697
     29          6           0        3.145661   -1.730644   -0.627508
     30          1           0        3.162316   -1.699703   -1.720302
     31          1           0        4.178072   -1.843326   -0.286849
     32          1           0        2.599807   -2.628395   -0.328547
     33          1           0        0.130338   -1.868617    0.622411
 ---------------------------------------------------------------------

 SCF Done:  E(RHF) =  -811.699495556     A.U. after    2 cycles

 The electronic state is 1-A.
 Alpha  occ. eigenvalues --  -76.17971 -15.71731 -11.51395 -11.46912 -11.44875
 Alpha  occ. eigenvalues --  -11.42715 -11.40488 -11.39908 -11.39346 -11.38379
 Alpha  occ. eigenvalues --  -11.35395 -11.35028 -11.34713 -11.34342  -5.52298
 Alpha  occ. eigenvalues --   -2.17152  -2.16199  -2.16116  -1.49381  -1.28732
 Alpha  occ. eigenvalues --   -1.17521  -1.08571  -1.07238  -1.03846  -1.00944
 Alpha  occ. eigenvalues --   -1.00912  -0.97595  -0.87839  -0.82970  -0.80150
 Alpha  occ. eigenvalues --   -0.69269  -0.67070  -0.66034  -0.63449  -0.60633
 Alpha  occ. eigenvalues --   -0.59935  -0.58188  -0.56646  -0.56174  -0.55586
 Alpha  occ. eigenvalues --   -0.54526  -0.54313  -0.54021  -0.53193  -0.52214
 Alpha  occ. eigenvalues --   -0.51011  -0.49298  -0.47092  -0.44148  -0.41868
 Alpha  occ. eigenvalues --   -0.40725  -0.38751  -0.38627  -0.34974  -0.31758
 Alpha  occ. eigenvalues --   -0.24796
 Alpha virt. eigenvalues --    0.03288   0.04591   0.04843   0.05275   0.05510
 Alpha virt. eigenvalues --    0.05532   0.05712   0.06011   0.06290   0.06468
 Alpha virt. eigenvalues --    0.07230   0.07393   0.07834   0.07976   0.08194

 Mulliken charges:
               1
     1  C   -4.317423
     2  C    6.496513
     3  C    3.555879
     4  C   -0.464920
     5  C   -2.745176
     6  C   -1.818989
     7  H    1.914929
     8  H    1.803008
     9  H    1.575674
    10  H    1.540419
    11  C   -4.811190
    12  C   -3.535878
    13  H    1.804009
    14  N   -5.057187
    15  H    0.979999
    16  C   -5.094887
    17  H    1.377232
    18  H    1.442456
    19  H    1.864152
    20  Si  12.854293
    21  C   -6.459354
    22  H    0.900641
    23  H    0.927451
    24  H    0.967910
    25  C   -6.528235
    26  H    0.976443
    27  H    0.900173
    28  H    1.278984
    29  C   -6.307672
    30  H    0.928409
    31  H    1.114945
    32  H    1.088647
    33  H    0.848745
 Sum of Mulliken charges =   0.00000

 Dipole moment (field-independent basis, Debye):
    X=              1.2612    Y=              0.2409    Z=             -0.2441  Tot=              1.3070

 Test job not archived.
 1\1\GINC-SE461\SP\RHF\Aug-CC-pVDZ\C12H19N1Si1\OHZDE\09-Apr-2025\0\\#t
 hf aug-cc-pvdz iop(5/13=1,5/36=2,99/5=2) pseudo=read geom=check guess=
 (read,tcheck) scf=(maxcycle=1)\\title\\0,1\C,0,-2.737445,1.214736,0.22
 7099\C,0,-1.566251,0.493464,0.037768\C,0,-1.607197,-0.889454,-0.153689
 \C,0,-2.808277,-1.565177,-0.140679\C,0,-3.991606,-0.85207,0.057331\C,0
 ,-3.946652,0.522596,0.237943\H,0,-2.72424,2.288337,0.36308\H,0,-2.8360
 19,-2.639092,-0.289665\H,0,-4.942712,-1.369477,0.063225\H,0,-4.868104,
 1.07413,0.383364\C,0,-0.196327,-1.390324,-0.308317\C,0,0.594459,-0.090

 Normal termination of Gaussian 16 at Wed Apr  9 01:23:07 2025.
