 Gaussian 16, Revision C.01,

 ----------------------------------------------------------------------
 #t hf aug-cc-pvdz symm=none int=(grid=ultrafine) guess=(read,tcheck) s
 table=opt
 ----------------------------------------------------------------------
 -----
 title
 -----
 Symbolic Z-matrix:
 Charge =  0 Multiplicity = 2

 SCF Done:  E(UHF) =  -515.207450593     A.U. after   15 cycles
 Normal termination of Gaussian 16 at Wed Apr  9 00:57:39 2025.
 Gaussian 16:  ES64L-G16RevC.01  3-Jul-2019

 ----------------------------------------------------------------------
 #t hf aug-cc-pvdz iop(5/13=1,5/36=2,99/5=2) pseudo=read geom=check gue
 ss=(read,tcheck) scf=(maxcycle=1)
 ----------------------------------------------------------------------
 -----
 title
 -----
 Structure from the checkpoint file:  "BH10_143_reverse_mol2.chk"
 Charge =  0 Multiplicity = 2

                         Standard orientation:
 ---------------------------------------------------------------------
 Center     Atomic      Atomic             Coordinates (Angstroms)
 Number     Number       Type             X           Y           Z
 ---------------------------------------------------------------------
      1         16           0        1.814164   -0.091051   -0.000045
      2          6           0        0.125264    0.534687    0.000012
      3          6           0       -0.969256   -0.524014    0.000001
      4          6           0       -2.363119    0.095118    0.000062
      5          1           0        0.037731    1.194577   -0.870616
      6          1           0        0.037781    1.194503    0.870703
      7          1           0       -0.842793   -1.166971    0.874839
      8          1           0       -0.842841   -1.166905   -0.874892
      9          1           0       -2.519053    0.721376   -0.882372
     10          1           0       -2.519008    0.721306    0.882553
     11          1           0       -3.135772   -0.675813    0.000051
 ---------------------------------------------------------------------

 SCF Done:  E(UHF) =  -516.016459070     A.U. after    2 cycles

 The electronic state is 2-A.
 Alpha  occ. eigenvalues --  -75.69908 -13.11932 -13.03947 -13.02917 -11.42353
 Alpha  occ. eigenvalues --  -11.39609 -11.35822  -8.03539  -1.26064  -1.10716
 Alpha  occ. eigenvalues --   -0.94499  -0.84255  -0.65761  -0.58861  -0.56111
 Alpha  occ. eigenvalues --   -0.54089  -0.48206  -0.47652  -0.39488  -0.28915
 Alpha  occ. eigenvalues --   -0.23844
 Alpha virt. eigenvalues --    0.03358   0.05185   0.05654   0.05683   0.06753
 Alpha virt. eigenvalues --    0.06818   0.07175   0.07355   0.11026   0.13208
 Alpha virt. eigenvalues --    0.14768   0.15218   0.16185   0.16420   0.17094

  Beta  occ. eigenvalues --  -75.68929 -13.11362 -13.02339 -12.98051 -11.42425
  Beta  occ. eigenvalues --  -11.39647 -11.35837  -8.02444  -1.24649  -1.07147
  Beta  occ. eigenvalues --   -0.91097  -0.82642  -0.65105  -0.58733  -0.55297
  Beta  occ. eigenvalues --   -0.53718  -0.48172  -0.47408  -0.38780  -0.22276
  Beta virt. eigenvalues --    0.03398   0.04216   0.05238   0.05751   0.05900
  Beta virt. eigenvalues --    0.06783   0.06990   0.07304   0.08432   0.11140
  Beta virt. eigenvalues --    0.13233   0.14895   0.15255   0.16506   0.17102

 Mulliken charges and spin densities:
               1          2
     1  S    0.590644   1.123083
     2  C   -3.725918  -0.146110
     3  C   -2.975769   0.002146
     4  C   -3.409542   0.000719
     5  H    1.471980   0.014400
     6  H    1.471995   0.014399
     7  H    1.438423  -0.002333
     8  H    1.438421  -0.002332
     9  H    1.241175  -0.001767
    10  H    1.241176  -0.001767
    11  H    1.217414  -0.000437
 Sum of Mulliken charges =  -0.00000   1.00000

 Dipole moment (field-independent basis, Debye):
    X=             -0.2785    Y=              0.0809    Z=              0.0000  Tot=              0.2900
                          Isotropic Fermi Contact Couplings
        Atom                 a.u.       MegaHertz       Gauss      10(-4) cm-1
     1  S(33)              0.26011      89.33965      31.87861      29.80050
     2  C(13)             -0.01621     -18.22835      -6.50433      -6.08032
     3  C(13)             -0.00057      -0.64261      -0.22930      -0.21435
     4  C(13)             -0.00107      -1.19982      -0.42813      -0.40022
     5  H(1)               0.01071      47.89405      17.08979      15.97574
     6  H(1)               0.01072      47.89776      17.09111      15.97697
     7  H(1)              -0.00026      -1.15116      -0.41076      -0.38399
     8  H(1)              -0.00026      -1.15119      -0.41077      -0.38399

 Normal termination of Gaussian 16 at Wed Apr  9 00:57:43 2025.
