 Gaussian 16, Revision C.01,

 ----------------------------------------------------------------------
 #t hf aug-cc-pvdz symm=none int=(grid=ultrafine) guess=(read,tcheck) s
 table=(opt,rrhf)
 ----------------------------------------------------------------------
 -----
 title
 -----
 Symbolic Z-matrix:
 Charge =  0 Multiplicity = 1

 SCF Done:  E(RHF) =  -626.109386246     A.U. after   14 cycles
 Normal termination of Gaussian 16 at Wed Apr  9 02:09:33 2025.
 Gaussian 16:  ES64L-G16RevC.01  3-Jul-2019

 ----------------------------------------------------------------------
 #t hf aug-cc-pvdz iop(5/13=1,5/36=2,99/5=2) pseudo=read geom=check gue
 ss=(read,tcheck) scf=(maxcycle=1)
 ----------------------------------------------------------------------
 -----
 title
 -----
 Structure from the checkpoint file:  "BH10_90_forward_mol2.chk"
 Charge =  0 Multiplicity = 1

                         Standard orientation:
 ---------------------------------------------------------------------
 Center     Atomic      Atomic             Coordinates (Angstroms)
 Number     Number       Type             X           Y           Z
 ---------------------------------------------------------------------
      1          6           0       -0.045543    0.385809    1.261670
      2          6           0       -0.045543    1.611162    0.731860
      3          6           0       -0.045543    0.385809   -1.261670
      4          6           0       -0.045543    1.611162   -0.731860
      5         16           0       -0.286337   -0.849040    0.000000
      6          8           0        0.735089   -1.950549    0.000000
      7          1           0       -0.054693    0.088729   -2.298922
      8          1           0       -0.048451    2.523963   -1.313268
      9          1           0       -0.054693    0.088729    2.298922
     10          1           0       -0.048451    2.523963    1.313268
 ---------------------------------------------------------------------

 SCF Done:  E(RHF) =  -627.390585449     A.U. after    2 cycles

 The electronic state is 1-A'.
 Alpha  occ. eigenvalues --  -75.79545 -21.01046 -13.34978 -13.22035 -13.17525
 Alpha  occ. eigenvalues --  -11.49364 -11.45893 -11.43397 -11.40609  -8.14028
 Alpha  occ. eigenvalues --   -1.68820  -1.35171  -1.08354  -1.05752  -0.83031
 Alpha  occ. eigenvalues --   -0.80052  -0.73549  -0.59789  -0.54155  -0.52733
 Alpha  occ. eigenvalues --   -0.51779  -0.47148  -0.38235  -0.36596  -0.32815
 Alpha  occ. eigenvalues --   -0.25434
 Alpha virt. eigenvalues --    0.02507   0.04578   0.05079   0.05097   0.06056
 Alpha virt. eigenvalues --    0.08518   0.11212   0.11953   0.12872   0.13542
 Alpha virt. eigenvalues --    0.13772   0.13994   0.14577   0.15258   0.15269

 Mulliken charges:
               1
     1  C   -2.707267
     2  C   -0.365767
     3  C   -2.707267
     4  C   -0.365767
     5  S    3.235791
     6  O   -2.306900
     7  H    1.194222
     8  H    1.414366
     9  H    1.194222
    10  H    1.414366
 Sum of Mulliken charges =  -0.00000

 Dipole moment (field-independent basis, Debye):
    X=             -1.0677    Y=              1.7643    Z=             -0.0000  Tot=              2.0623

 Test job not archived.
 1\1\GINC-SE127\SP\RHF\Aug-CC-pVDZ\C4H4O1S1\OHZDE\09-Apr-2025\0\\#t hf
 aug-cc-pvdz iop(5/13=1,5/36=2,99/5=2) pseudo=read geom=check guess=(re
 ad,tcheck) scf=(maxcycle=1)\\title\\0,1\C,0,0.045543,-0.385809,1.26167
 \C,0,0.045543,-1.611162,0.73186\C,0,0.045543,-0.385809,-1.26167\C,0,0.
 045543,-1.611162,-0.73186\S,0,0.286337,0.84904,0.\O,0,-0.735089,1.9505
 49,0.\H,0,0.054693,-0.088729,-2.298922\H,0,0.048451,-2.523963,-1.31326
 8\H,0,0.054693,-0.088729,2.298922\H,0,0.048451,-2.523963,1.313268\\Ver
 sion=ES64L-G16RevC.01\State=1-A'\HF=-627.3905854\RMSD=1.230e+00\Dipole

 Normal termination of Gaussian 16 at Wed Apr  9 02:09:36 2025.
