 Gaussian 16, Revision C.01,

 ----------------------------------------------------------------------
 #t hf aug-cc-pvdz symm=none int=(grid=ultrafine) guess=(read,tcheck) s
 table=(opt,rrhf)
 ----------------------------------------------------------------------
 -----
 title
 -----
 Symbolic Z-matrix:
 Charge =  0 Multiplicity = 1

 SCF Done:  E(RHF) =  -1332.30593317     A.U. after   14 cycles
 Normal termination of Gaussian 16 at Wed Apr  9 00:58:53 2025.
 Gaussian 16:  ES64L-G16RevC.01  3-Jul-2019

 ----------------------------------------------------------------------
 #t hf aug-cc-pvdz iop(5/13=1,5/36=2,99/5=2) pseudo=read geom=check gue
 ss=(read,tcheck) scf=(maxcycle=1)
 ----------------------------------------------------------------------
 -----
 title
 -----
 Structure from the checkpoint file:  "BH10-RE_123_mol3.chk"
 Charge =  0 Multiplicity = 1

                         Standard orientation:
 ---------------------------------------------------------------------
 Center     Atomic      Atomic             Coordinates (Angstroms)
 Number     Number       Type             X           Y           Z
 ---------------------------------------------------------------------
      1          7           0       -0.275339    0.300524   -0.295080
      2         16           0        1.048835   -0.425341    0.514729
      3          8           0        2.241216    0.345947   -0.206469
      4          6           0        2.460231    0.096947   -1.608843
      5          6           0       -1.642729   -0.358722   -0.204475
      6         17           0       -0.293724    2.001405    0.125286
      7          8           0        1.130730   -0.055583    1.897535
      8          8           0        1.054364   -1.808576    0.108751
      9          1           0        3.364640    0.647649   -1.850466
     10          1           0        1.615266    0.473940   -2.184553
     11          1           0        2.601490   -0.969154   -1.780991
     12          6           0       -1.592421   -1.673894   -0.988430
     13          6           0       -2.633813    0.563650   -0.916352
     14          6           0       -2.063932   -0.585355    1.244746
     15          1           0       -1.210198   -1.502440   -1.995805
     16          1           0       -2.611542   -2.055687   -1.068718
     17          1           0       -0.976802   -2.426766   -0.507870
     18          1           0       -2.269505    0.836726   -1.907781
     19          1           0       -2.834722    1.472598   -0.353514
     20          1           0       -3.574908    0.025357   -1.033019
     21          1           0       -1.420656   -1.312682    1.741518
     22          1           0       -3.086085   -0.967281    1.270170
     23          1           0       -2.032140    0.345576    1.812656
 ---------------------------------------------------------------------

 SCF Done:  E(RHF) =  -1335.03432227     A.U. after    2 cycles

 The electronic state is 1-A.
 Alpha  occ. eigenvalues --  -99.92615 -75.93756 -21.10854 -21.06685 -21.06453
 Alpha  occ. eigenvalues --  -15.80124 -13.57355 -13.49123 -13.44005 -11.47551
 Alpha  occ. eigenvalues --  -11.43809 -11.40906 -11.40345 -11.36417 -10.49810
 Alpha  occ. eigenvalues --   -9.69793  -9.69290  -9.68859  -8.29069  -1.92687
 Alpha  occ. eigenvalues --   -1.75319  -1.67824  -1.50417  -1.29069  -1.18290
 Alpha  occ. eigenvalues --   -1.04801  -1.03114  -1.02230  -0.91609  -0.80303
 Alpha  occ. eigenvalues --   -0.70882  -0.69170  -0.67884  -0.65094  -0.64145
 Alpha  occ. eigenvalues --   -0.61290  -0.60820  -0.59896  -0.55458  -0.55182
 Alpha  occ. eigenvalues --   -0.54317  -0.52712  -0.51407  -0.50531  -0.47603
 Alpha  occ. eigenvalues --   -0.46067  -0.44410  -0.43064  -0.41498  -0.40350
 Alpha  occ. eigenvalues --   -0.37459  -0.37080  -0.36206
 Alpha virt. eigenvalues --    0.03216   0.03992   0.04188   0.05516   0.05698
 Alpha virt. eigenvalues --    0.05753   0.05948   0.06523   0.06850   0.07228
 Alpha virt. eigenvalues --    0.08184   0.08632   0.09167   0.10168   0.11333

 Mulliken charges:
               1
     1  N   -3.209842
     2  S    8.687028
     3  O   -3.289071
     4  C   -3.138464
     5  C    4.438920
     6  Cl   0.008415
     7  O   -2.737940
     8  O   -2.714010
     9  H    1.314380
    10  H    1.534065
    11  H    1.467285
    12  C   -4.733158
    13  C   -4.244994
    14  C   -4.354013
    15  H    1.404996
    16  H    1.030006
    17  H    1.569410
    18  H    1.183335
    19  H    1.222675
    20  H    1.128100
    21  H    1.156446
    22  H    1.108819
    23  H    1.167612
 Sum of Mulliken charges =   0.00000

 Dipole moment (field-independent basis, Debye):
    X=             -0.6504    Y=             -0.8313    Z=             -2.1472  Tot=              2.3926

 Test job not archived.
 1\1\GINC-SE116\SP\RHF\Aug-CC-pVDZ\C5H12Cl1N1O3S1\OHZDE\09-Apr-2025\0\\
 #t hf aug-cc-pvdz iop(5/13=1,5/36=2,99/5=2) pseudo=read geom=check gue
 ss=(read,tcheck) scf=(maxcycle=1)\\title\\0,1\N,0,-0.275339,0.300524,-
 0.29508\S,0,1.048835,-0.425341,0.514729\O,0,2.241216,0.345947,-0.20646
 9\C,0,2.460231,0.096947,-1.608843\C,0,-1.642729,-0.358722,-0.204475\Cl
 ,0,-0.293724,2.001405,0.125286\O,0,1.13073,-0.055583,1.897535\O,0,1.05
 4364,-1.808576,0.108751\H,0,3.36464,0.647649,-1.850466\H,0,1.615266,0.
 47394,-2.184553\H,0,2.60149,-0.969154,-1.780991\C,0,-1.592421,-1.67389

 Normal termination of Gaussian 16 at Wed Apr  9 00:59:12 2025.
