 Gaussian 16, Revision C.01,

 ----------------------------------------------------------------------
 #t hf aug-cc-pvdz symm=none int=(grid=ultrafine) guess=(read,tcheck) s
 table=(opt,rrhf)
 ----------------------------------------------------------------------
 -----
 title
 -----
 Symbolic Z-matrix:
 Charge =  0 Multiplicity = 1

 SCF Done:  E(RHF) =  -878.883883098     A.U. after   17 cycles
 Normal termination of Gaussian 16 at Wed Apr  9 00:56:51 2025.
 Gaussian 16:  ES64L-G16RevC.01  3-Jul-2019

 ----------------------------------------------------------------------
 #t hf aug-cc-pvdz iop(5/13=1,5/36=2,99/5=2) pseudo=read geom=check gue
 ss=(read,tcheck) scf=(maxcycle=1)
 ----------------------------------------------------------------------
 -----
 title
 -----
 Structure from the checkpoint file:  "BH10-RE_116_mol3.chk"
 Charge =  0 Multiplicity = 1

                         Standard orientation:
 ---------------------------------------------------------------------
 Center     Atomic      Atomic             Coordinates (Angstroms)
 Number     Number       Type             X           Y           Z
 ---------------------------------------------------------------------
      1         16           0       -3.083717   -0.455257    0.000040
      2          6           0       -1.335560   -0.253689    0.000009
      3          6           0       -0.727455    0.994096    0.000046
      4          6           0        0.657506    1.069186    0.000037
      5          6           0        1.440262   -0.080934    0.000002
      6          6           0        0.808505   -1.325824   -0.000032
      7          6           0       -0.566996   -1.419757   -0.000035
      8          1           0       -1.328426    1.892228    0.000076
      9          1           0        1.120715    2.047375    0.000062
     10          1           0        1.424365   -2.215832   -0.000065
     11          1           0       -1.041787   -2.394781   -0.000076
     12          6           0        2.934176   -0.042329   -0.000005
     13          8           0        3.573804   -1.070553   -0.000034
     14          6           0        3.625298    1.299084    0.000027
     15          1           0        3.344616    1.879777   -0.881627
     16          1           0        4.700585    1.137216    0.000019
     17          1           0        3.344621    1.879733    0.881711
     18          9           0       -3.536675    1.131537   -0.000084
 ---------------------------------------------------------------------

 SCF Done:  E(RHF) =  -881.209305860     A.U. after    2 cycles

 The electronic state is 1-A.
 Alpha  occ. eigenvalues --  -75.77917 -29.29053 -21.05129 -13.25590 -13.22884
 Alpha  occ. eigenvalues --  -13.08714 -11.53618 -11.50964 -11.46872 -11.46320
 Alpha  occ. eigenvalues --  -11.44300 -11.43402 -11.40317 -11.38889  -8.12036
 Alpha  occ. eigenvalues --   -1.71542  -1.39662  -1.24865  -1.14141  -1.11817
 Alpha  occ. eigenvalues --   -1.07251  -0.90814  -0.90022  -0.79141  -0.72817
 Alpha  occ. eigenvalues --   -0.67028  -0.65187  -0.62293  -0.60831  -0.60706
 Alpha  occ. eigenvalues --   -0.59099  -0.54969  -0.53186  -0.50257  -0.47022
 Alpha  occ. eigenvalues --   -0.46565  -0.44561  -0.42269  -0.35933  -0.35385
 Alpha  occ. eigenvalues --   -0.34161  -0.30400  -0.28870  -0.18418
 Alpha virt. eigenvalues --    0.02754   0.04513   0.05292   0.06075   0.06440
 Alpha virt. eigenvalues --    0.06914   0.07492   0.07663   0.08083   0.08941
 Alpha virt. eigenvalues --    0.10250   0.10481   0.11205   0.12683   0.12888

 Mulliken charges:
               1
     1  S    0.555894
     2  C    1.230697
     3  C   -5.107632
     4  C    1.307043
     5  C    2.508864
     6  C   -2.874596
     7  C   -2.376916
     8  H    1.672900
     9  H    1.897924
    10  H    1.945839
    11  H    1.726005
    12  C    3.591569
    13  O   -3.869555
    14  C   -5.441691
    15  H    1.257250
    16  H    1.114400
    17  H    1.257250
    18  F   -0.395245
 Sum of Mulliken charges =   0.00000

 Dipole moment (field-independent basis, Debye):
    X=             -2.9541    Y=              2.7331    Z=             -0.0001  Tot=              4.0245

 Test job not archived.
 1\1\GINC-SE036\SP\RHF\Aug-CC-pVDZ\C8H7F1O1S1\OHZDE\09-Apr-2025\0\\#t h
 f aug-cc-pvdz iop(5/13=1,5/36=2,99/5=2) pseudo=read geom=check guess=(
 read,tcheck) scf=(maxcycle=1)\\title\\0,1\S,0,-3.083717,-0.455257,0.00
 004\C,0,-1.33556,-0.253689,0.000009\C,0,-0.727455,0.994096,0.000046\C,
 0,0.657506,1.069186,0.000037\C,0,1.440262,-0.080934,0.000002\C,0,0.808
 505,-1.325824,-0.000032\C,0,-0.566996,-1.419757,-0.000035\H,0,-1.32842
 6,1.892228,0.000076\H,0,1.120715,2.047375,0.000062\H,0,1.424365,-2.215
 832,-0.000065\H,0,-1.041787,-2.394781,-0.000076\C,0,2.934176,-0.042329

 Normal termination of Gaussian 16 at Wed Apr  9 00:57:03 2025.
