 Gaussian 16, Revision C.01,

 ----------------------------------------------------------------------
 #t hf aug-cc-pvdz symm=none int=(grid=ultrafine) guess=(read,tcheck) s
 table=(opt,rrhf)
 ----------------------------------------------------------------------
 -----
 title
 -----
 Symbolic Z-matrix:
 Charge =  0 Multiplicity = 1

 SCF Done:  E(RHF) =  -703.133695262     A.U. after   15 cycles
 Normal termination of Gaussian 16 at Wed Apr  9 01:01:40 2025.
 Gaussian 16:  ES64L-G16RevC.01  3-Jul-2019

 ----------------------------------------------------------------------
 #t hf aug-cc-pvdz iop(5/13=1,5/36=2,99/5=2) pseudo=read geom=check gue
 ss=(read,tcheck) scf=(maxcycle=1)
 ----------------------------------------------------------------------
 -----
 title
 -----
 Structure from the checkpoint file:  "BH10_180_reverse_mol3.chk"
 Charge =  0 Multiplicity = 1

                         Standard orientation:
 ---------------------------------------------------------------------
 Center     Atomic      Atomic             Coordinates (Angstroms)
 Number     Number       Type             X           Y           Z
 ---------------------------------------------------------------------
      1          6           0       -1.831862    0.016550    0.005511
      2          6           0       -1.144844   -1.190839   -0.000185
      3          6           0        0.242309   -1.195638   -0.009971
      4          6           0        0.952824   -0.002038   -0.007534
      5          6           0        0.252637    1.202236   -0.016128
      6          6           0       -1.130559    1.216513   -0.002972
      7         16           0        2.742790   -0.016432   -0.071300
      8          1           0       -1.690526   -2.128734   -0.000060
      9          1           0        0.777878   -2.136258   -0.018251
     10          1           0        0.800380    2.135819   -0.034222
     11          1           0       -1.682752    2.147351   -0.006167
     12          8           0       -3.190665    0.086032    0.015125
     13          1           0       -3.567840   -0.798019    0.012444
     14          1           0        2.960509    0.073807    1.253742
 ---------------------------------------------------------------------

 SCF Done:  E(RHF) =  -704.763267257     A.U. after    2 cycles

 The electronic state is 1-A.
 Alpha  occ. eigenvalues --  -75.69057 -21.11233 -13.17418 -13.11898 -13.06106
 Alpha  occ. eigenvalues --  -11.52663 -11.46391 -11.44072 -11.42986 -11.41055
 Alpha  occ. eigenvalues --  -11.37552  -8.02959  -1.76914  -1.34857  -1.15415
 Alpha  occ. eigenvalues --   -1.10869  -1.02040  -0.89275  -0.83953  -0.70982
 Alpha  occ. eigenvalues --   -0.65915  -0.63251  -0.59307  -0.56859  -0.55451
 Alpha  occ. eigenvalues --   -0.51127  -0.48089  -0.44373  -0.42705  -0.38396
 Alpha  occ. eigenvalues --   -0.34491  -0.28050  -0.24498
 Alpha virt. eigenvalues --    0.02921   0.04730   0.04860   0.05688   0.06337
 Alpha virt. eigenvalues --    0.06877   0.08207   0.09878   0.10419   0.11703
 Alpha virt. eigenvalues --    0.12509   0.12639   0.13255   0.13824   0.14196

 Mulliken charges:
               1
     1  C    5.267323
     2  C   -4.158838
     3  C   -1.686977
     4  C    1.385117
     5  C   -1.907159
     6  C   -2.971808
     7  S   -0.676039
     8  H    1.687081
     9  H    1.761106
    10  H    1.830395
    11  H    1.781294
    12  O   -4.478706
    13  H    1.030476
    14  H    1.136733
 Sum of Mulliken charges =   0.00000

 Dipole moment (field-independent basis, Debye):
    X=             -1.2536    Y=             -0.6600    Z=             -0.8517  Tot=              1.6531

 Test job not archived.
 1\1\GINC-SE058\SP\RHF\Aug-CC-pVDZ\C6H6O1S1\OHZDE\09-Apr-2025\0\\#t hf
 aug-cc-pvdz iop(5/13=1,5/36=2,99/5=2) pseudo=read geom=check guess=(re
 ad,tcheck) scf=(maxcycle=1)\\title\\0,1\C,0,-1.831862,0.01655,0.005511
 \C,0,-1.144844,-1.190839,-0.000185\C,0,0.242309,-1.195638,-0.009971\C,
 0,0.952824,-0.002038,-0.007534\C,0,0.252637,1.202236,-0.016128\C,0,-1.
 130559,1.216513,-0.002972\S,0,2.74279,-0.016432,-0.0713\H,0,-1.690526,
 -2.128734,-0.00006\H,0,0.777878,-2.136258,-0.018251\H,0,0.80038,2.1358
 19,-0.034222\H,0,-1.682752,2.147351,-0.006167\O,0,-3.190665,0.086032,0

 Normal termination of Gaussian 16 at Wed Apr  9 01:01:46 2025.
