 Gaussian 16, Revision C.01,

 ----------------------------------------------------------------------
 #t hf aug-cc-pvdz symm=none int=(grid=ultrafine) guess=(read,tcheck) s
 table=(opt,rrhf)
 ----------------------------------------------------------------------
 -----
 title
 -----
 Symbolic Z-matrix:
 Charge =  0 Multiplicity = 1

 SCF Done:  E(RHF) =  -857.106176313     A.U. after   14 cycles
 Normal termination of Gaussian 16 at Wed Apr  9 02:05:07 2025.
 Gaussian 16:  ES64L-G16RevC.01  3-Jul-2019

 ----------------------------------------------------------------------
 #t hf aug-cc-pvdz iop(5/13=1,5/36=2,99/5=2) pseudo=read geom=check gue
 ss=(read,tcheck) scf=(maxcycle=1)
 ----------------------------------------------------------------------
 -----
 title
 -----
 Structure from the checkpoint file:  "BH10_413_reverse_mol2.chk"
 Charge =  0 Multiplicity = 1

                         Standard orientation:
 ---------------------------------------------------------------------
 Center     Atomic      Atomic             Coordinates (Angstroms)
 Number     Number       Type             X           Y           Z
 ---------------------------------------------------------------------
      1         16           0       -1.585684   -0.020516    0.128780
      2          6           0       -0.734422   -1.312826   -0.822062
      3          6           0        0.623281   -1.794690   -0.296820
      4          6           0        1.421517   -0.669603    0.340204
      5          6           0        1.517839    0.675583   -0.452668
      6          6           0        0.624517    1.785087    0.071112
      7          6           0       -0.827596    1.561360   -0.337867
      8          6           0        2.935850   -0.614900    0.386009
      9          6           0        3.005660    0.596485   -0.166019
     10          8           0       -1.368281   -0.246516    1.555988
     11          8           0       -2.945826    0.029669   -0.400656
     12          1           0       -1.478590   -2.110030   -0.843559
     13          1           0       -0.667335   -0.906448   -1.832107
     14          1           0        1.167152   -2.223390   -1.143378
     15          1           0        0.471636   -2.596201    0.428014
     16          1           0        0.928439    2.756562   -0.329917
     17          1           0        0.702877    1.846941    1.159155
     18          1           0       -0.962074    1.623797   -1.419434
     19          1           0       -1.504440    2.282040    0.124202
     20          1           0        1.004491   -0.475329    1.329259
     21          1           0        1.323528    0.523372   -1.521048
     22          1           0        3.821484    1.278101   -0.372649
     23          1           0        3.676768   -1.295363    0.786988
 ---------------------------------------------------------------------

 SCF Done:  E(RHF) =  -859.548589698     A.U. after    2 cycles

 The electronic state is 1-A.
 Alpha  occ. eigenvalues --  -75.87002 -21.03112 -21.02913 -13.48951 -13.40961
 Alpha  occ. eigenvalues --  -13.34511 -11.52958 -11.47393 -11.46850 -11.43809
 Alpha  occ. eigenvalues --  -11.42712 -11.41763 -11.40820 -11.36872  -8.21993
 Alpha  occ. eigenvalues --   -1.81115  -1.63384  -1.39405  -1.21362  -1.20313
 Alpha  occ. eigenvalues --   -1.04710  -0.99684  -0.91908  -0.87185  -0.82257
 Alpha  occ. eigenvalues --   -0.75617  -0.70543  -0.67861  -0.65676  -0.63274
 Alpha  occ. eigenvalues --   -0.62355  -0.59469  -0.55658  -0.54889  -0.51915
 Alpha  occ. eigenvalues --   -0.50837  -0.48755  -0.47834  -0.42323  -0.41640
 Alpha  occ. eigenvalues --   -0.40898  -0.37776  -0.36175  -0.34660  -0.33649
 Alpha  occ. eigenvalues --   -0.33088
 Alpha virt. eigenvalues --    0.03435   0.04358   0.04547   0.04633   0.04943
 Alpha virt. eigenvalues --    0.05492   0.05770   0.06564   0.07078   0.07708
 Alpha virt. eigenvalues --    0.08218   0.08519   0.10838   0.11202   0.11679

 Mulliken charges:
               1
     1  S    7.575967
     2  C   -4.047521
     3  C   -3.370355
     4  C   -0.580821
     5  C   -0.744814
     6  C   -3.152214
     7  C   -4.214501
     8  C   -1.578280
     9  C   -0.997230
    10  O   -2.867874
    11  O   -2.812340
    12  H    1.515332
    13  H    1.516516
    14  H    1.297239
    15  H    1.139987
    16  H    1.213891
    17  H    1.327830
    18  H    1.423848
    19  H    1.485323
    20  H    1.949141
    21  H    1.637374
    22  H    1.149825
    23  H    1.133676
 Sum of Mulliken charges =   0.00000

 Dipole moment (field-independent basis, Debye):
    X=              2.5492    Y=              0.2007    Z=             -1.0164  Tot=              2.7516

 Test job not archived.
 1\1\GINC-SE461\SP\RHF\Aug-CC-pVDZ\C8H12O2S1\OHZDE\09-Apr-2025\0\\#t hf
  aug-cc-pvdz iop(5/13=1,5/36=2,99/5=2) pseudo=read geom=check guess=(r
 ead,tcheck) scf=(maxcycle=1)\\title\\0,1\S,0,-1.585684,-0.020516,0.128
 78\C,0,-0.734422,-1.312826,-0.822062\C,0,0.623281,-1.79469,-0.29682\C,
 0,1.421517,-0.669603,0.340204\C,0,1.517839,0.675583,-0.452668\C,0,0.62
 4517,1.785087,0.071112\C,0,-0.827596,1.56136,-0.337867\C,0,2.93585,-0.
 6149,0.386009\C,0,3.00566,0.596485,-0.166019\O,0,-1.368281,-0.246516,1
 .555988\O,0,-2.945826,0.029669,-0.400656\H,0,-1.47859,-2.11003,-0.8435

 Normal termination of Gaussian 16 at Wed Apr  9 02:05:24 2025.
