 Gaussian 16, Revision C.01,

 ----------------------------------------------------------------------
 #t hf aug-cc-pvdz symm=none int=(grid=ultrafine) guess=(read,tcheck) s
 table=(opt,rrhf)
 ----------------------------------------------------------------------
 -----
 title
 -----
 Symbolic Z-matrix:
 Charge =  0 Multiplicity = 1

 SCF Done:  E(RHF) =  -458.580566395     A.U. after   14 cycles
 Normal termination of Gaussian 16 at Wed Apr  9 00:55:29 2025.
 Gaussian 16:  ES64L-G16RevC.01  3-Jul-2019

 ----------------------------------------------------------------------
 #t hf aug-cc-pvdz iop(5/13=1,5/36=2,99/5=2) pseudo=read geom=check gue
 ss=(read,tcheck) scf=(maxcycle=1)
 ----------------------------------------------------------------------
 -----
 title
 -----
 Structure from the checkpoint file:  "BH10-RE_124_mol2.chk"
 Charge =  0 Multiplicity = 1

                         Standard orientation:
 ---------------------------------------------------------------------
 Center     Atomic      Atomic             Coordinates (Angstroms)
 Number     Number       Type             X           Y           Z
 ---------------------------------------------------------------------
      1          7           0       -0.026097   -0.358681   -0.000014
      2          6           0        1.366764   -0.091891    0.000002
      3          6           0       -1.158222    0.464685   -0.000005
      4          8           0       -1.035247    1.662497   -0.000018
      5          8           0        2.135455   -1.009890    0.000002
      6          6           0       -2.470476   -0.262495    0.000019
      7          6           0        1.756265    1.355857    0.000014
      8          9           0       -0.307416   -1.701451   -0.000007
      9          1           0       -2.556526   -0.902484    0.878979
     10          1           0       -2.556550   -0.902497   -0.878929
     11          1           0       -3.259855    0.484436    0.000024
     12          1           0        2.843270    1.389726    0.000054
     13          1           0        1.355679    1.868432    0.873857
     14          1           0        1.355750    1.868419   -0.873871
 ---------------------------------------------------------------------

 SCF Done:  E(RHF) =  -460.504594865     A.U. after    2 cycles

 The electronic state is 1-A.
 Alpha  occ. eigenvalues --  -29.31506 -21.07013 -21.06350 -15.84217 -11.55535
 Alpha  occ. eigenvalues --  -11.54145 -11.41469 -11.40410  -1.76692  -1.74098
 Alpha  occ. eigenvalues --   -1.48089  -1.15433  -1.11036  -0.92144  -0.85555
 Alpha  occ. eigenvalues --   -0.69586  -0.68827  -0.66756  -0.61059  -0.59745
 Alpha  occ. eigenvalues --   -0.57067  -0.56326  -0.53340  -0.51654  -0.46581
 Alpha  occ. eigenvalues --   -0.42778  -0.40250  -0.34930  -0.31099  -0.28116
 Alpha  occ. eigenvalues --   -0.23240
 Alpha virt. eigenvalues --    0.03345   0.05147   0.05553   0.06041   0.06572
 Alpha virt. eigenvalues --    0.06936   0.08732   0.10471   0.10854   0.11767
 Alpha virt. eigenvalues --    0.13017   0.13631   0.13867   0.14630   0.14865

 Mulliken charges:
               1
     1  N   -1.511391
     2  C    4.054582
     3  C    4.694444
     4  O   -3.168501
     5  O   -3.073683
     6  C   -4.046283
     7  C   -4.061514
     8  F   -0.355597
     9  H    1.284199
    10  H    1.284194
    11  H    1.106549
    12  H    0.978865
    13  H    1.407078
    14  H    1.407059
 Sum of Mulliken charges =  -0.00000

 Dipole moment (field-independent basis, Debye):
    X=             -1.4754    Y=             -1.3616    Z=              0.0000  Tot=              2.0077

 Test job not archived.
 1\1\GINC-SE363\SP\RHF\Aug-CC-pVDZ\C4H6F1N1O2\OHZDE\09-Apr-2025\0\\#t h
 f aug-cc-pvdz iop(5/13=1,5/36=2,99/5=2) pseudo=read geom=check guess=(
 read,tcheck) scf=(maxcycle=1)\\title\\0,1\N,0,-0.026097,-0.358681,-0.0
 00014\C,0,1.366764,-0.091891,0.000002\C,0,-1.158222,0.464685,-0.000005
 \O,0,-1.035247,1.662497,-0.000018\O,0,2.135455,-1.00989,0.000002\C,0,-
 2.470476,-0.262495,0.000019\C,0,1.756265,1.355857,0.000014\F,0,-0.3074
 16,-1.701451,-0.000007\H,0,-2.556526,-0.902484,0.878979\H,0,-2.55655,-
 0.902497,-0.878929\H,0,-3.259855,0.484436,0.000024\H,0,2.84327,1.38972

 Normal termination of Gaussian 16 at Wed Apr  9 00:55:34 2025.
