 Gaussian 16, Revision C.01,

 ----------------------------------------------------------------------
 #t hf aug-cc-pvdz symm=none int=(grid=ultrafine) guess=(read,tcheck) s
 table=opt
 ----------------------------------------------------------------------
 -----
 title
 -----
 Symbolic Z-matrix:
 Charge =  0 Multiplicity = 2

 SCF Done:  E(UHF) =  -759.107537711     A.U. after   16 cycles
 Normal termination of Gaussian 16 at Wed Apr  9 01:30:55 2025.
 Gaussian 16:  ES64L-G16RevC.01  3-Jul-2019

 ----------------------------------------------------------------------
 #t hf aug-cc-pvdz iop(5/13=1,5/36=2,99/5=2) pseudo=read geom=check gue
 ss=(read,tcheck) scf=(maxcycle=1)
 ----------------------------------------------------------------------
 -----
 title
 -----
 Structure from the checkpoint file:  "BH10_287_reverse_mol2.chk"
 Charge =  0 Multiplicity = 2

                         Standard orientation:
 ---------------------------------------------------------------------
 Center     Atomic      Atomic             Coordinates (Angstroms)
 Number     Number       Type             X           Y           Z
 ---------------------------------------------------------------------
      1         14           0        1.444292   -0.002664    0.049038
      2          6           0        1.563014   -1.428156   -1.177528
      3          6           0        2.251247   -2.684392   -0.634156
      4          6           0        0.553579    1.438578   -0.779833
      5          6           0        0.490299    2.724122    0.051159
      6          6           0        3.169690    0.535681    0.594089
      7          6           0        4.065672    1.035093   -0.544500
      8          6           0        0.474312   -0.576709    1.585594
      9          6           0       -0.874172   -1.080415    1.235355
     10          6           0       -2.074053   -0.198758    1.184682
     11          6           0       -3.020487   -0.509214    0.024277
     12          6           0       -5.187683    0.073445   -1.169138
     13          6           0       -4.253325    0.386936   -0.006301
     14          1           0        0.548424   -1.673130   -1.508570
     15          1           0        2.088224   -1.072770   -2.070718
     16          1           0        1.721699   -3.087181    0.233048
     17          1           0        2.296073   -3.478196   -1.383607
     18          1           0        3.277387   -2.476349   -0.319978
     19          1           0       -0.457674    1.110854   -1.041998
     20          1           0        1.051104    1.641238   -1.734628
     21          1           0       -0.049879    3.517595   -0.470862
     22          1           0       -0.015230    2.562995    1.006762
     23          1           0        1.489817    3.104780    0.275769
     24          1           0        3.650595   -0.305904    1.104184
     25          1           0        3.064889    1.316313    1.355311
     26          1           0        4.221558    0.260966   -1.300243
     27          1           0        3.626299    1.898186   -1.051452
     28          1           0        5.051078    1.338315   -0.182505
     29          1           0       -2.643966   -0.277321    2.125337
     30          1           0       -1.760076    0.849643    1.126498
     31          1           0       -2.474863   -0.411426   -0.921107
     32          1           0       -3.332968   -1.558021    0.086301
     33          1           0       -5.545260   -0.958496   -1.118572
     34          1           0       -6.061656    0.728310   -1.170307
     35          1           0       -4.677252    0.198320   -2.127915
     36          1           0       -3.935046    1.433747   -0.063147
     37          1           0       -4.796118    0.285428    0.939736
     38          1           0       -0.996974   -2.129367    0.985349
     39          1           0        1.076144   -1.348196    2.078052
     40          1           0        0.415014    0.269693    2.280538
 ---------------------------------------------------------------------

 SCF Done:  E(UHF) =  -761.736041809     A.U. after    2 cycles

 The electronic state is 2-A.
 Alpha  occ. eigenvalues --  -76.16628 -11.43724 -11.41502 -11.39896 -11.39589
 Alpha  occ. eigenvalues --  -11.39146 -11.38931 -11.37100 -11.35468 -11.34722
 Alpha  occ. eigenvalues --  -11.34342 -11.33933 -11.33524  -5.51082  -2.15629
 Alpha  occ. eigenvalues --   -2.15558  -2.15365  -1.26967  -1.17539  -1.14881
 Alpha  occ. eigenvalues --   -1.13359  -1.12631  -1.04224  -0.93074  -0.89904
 Alpha  occ. eigenvalues --   -0.87713  -0.86967  -0.83015  -0.80731  -0.65907
 Alpha  occ. eigenvalues --   -0.65595  -0.61737  -0.61503  -0.61307  -0.58751
 Alpha  occ. eigenvalues --   -0.58372  -0.57600  -0.56850  -0.56544  -0.54300
 Alpha  occ. eigenvalues --   -0.53123  -0.51896  -0.50680  -0.49694  -0.48994
 Alpha  occ. eigenvalues --   -0.48614  -0.48522  -0.47571  -0.47103  -0.46491
 Alpha  occ. eigenvalues --   -0.45341  -0.44734  -0.42918  -0.38334  -0.35333
 Alpha  occ. eigenvalues --   -0.35201  -0.24676
 Alpha virt. eigenvalues --    0.04008   0.04443   0.04706   0.04988   0.05086
 Alpha virt. eigenvalues --    0.05305   0.05601   0.05838   0.06020   0.06335
 Alpha virt. eigenvalues --    0.06595   0.06645   0.06728   0.07102   0.07552

  Beta  occ. eigenvalues --  -76.16560 -11.43291 -11.41303 -11.39901 -11.39503
  Beta  occ. eigenvalues --  -11.39082 -11.38730 -11.37151 -11.35144 -11.34684
  Beta  occ. eigenvalues --  -11.34284 -11.33762 -11.33216  -5.50970  -2.15517
  Beta  occ. eigenvalues --   -2.15429  -2.15062  -1.25677  -1.17139  -1.13378
  Beta  occ. eigenvalues --   -1.13133  -1.12439  -1.03853  -0.92368  -0.89850
  Beta  occ. eigenvalues --   -0.87662  -0.86963  -0.82524  -0.76847  -0.65494
  Beta  occ. eigenvalues --   -0.64798  -0.61534  -0.61253  -0.61092  -0.58588
  Beta  occ. eigenvalues --   -0.57729  -0.57235  -0.56793  -0.56231  -0.53718
  Beta  occ. eigenvalues --   -0.52643  -0.51626  -0.50375  -0.49044  -0.48724
  Beta  occ. eigenvalues --   -0.48520  -0.48412  -0.47499  -0.46981  -0.46185
  Beta  occ. eigenvalues --   -0.44937  -0.44578  -0.40961  -0.36716  -0.35333
  Beta  occ. eigenvalues --   -0.34997
  Beta virt. eigenvalues --    0.04005   0.04437   0.04698   0.04990   0.05081
  Beta virt. eigenvalues --    0.05301   0.05603   0.05864   0.06023   0.06339
  Beta virt. eigenvalues --    0.06599   0.06639   0.06731   0.07049   0.07558

 Mulliken charges and spin densities:
               1          2
     1  Si  15.268774  -0.141976
     2  C   -5.101310  -0.006030
     3  C   -4.566862   0.015815
     4  C   -5.432622  -0.036228
     5  C   -4.645029   0.011896
     6  C   -4.998717   0.005204
     7  C   -4.569858   0.007674
     8  C   -4.980863  -0.358153
     9  C   -1.097616   2.014957
    10  C   -4.411417  -0.617949
    11  C   -2.805241   0.111557
    12  C   -4.744265  -0.003580
    13  C   -3.179729  -0.008198
    14  H    1.089341   0.007747
    15  H    0.830314  -0.015507
    16  H    1.261357   0.000222
    17  H    1.122368   0.001589
    18  H    1.275665   0.000634
    19  H    1.705404  -0.006093
    20  H    0.780714  -0.014388
    21  H    1.160325  -0.000491
    22  H    1.504418   0.004067
    23  H    1.297644  -0.000036
    24  H    0.968423  -0.000255
    25  H    1.054486  -0.001244
    26  H    1.265479   0.001798
    27  H    1.295873   0.002733
    28  H    1.057640   0.000168
    29  H    1.368873   0.022444
    30  H    2.231893  -0.003275
    31  H    1.982958   0.026150
    32  H    1.704988  -0.005956
    33  H    1.319354  -0.000111
    34  H    1.068963   0.000055
    35  H    1.359211   0.000796
    36  H    1.569095   0.000702
    37  H    1.451117  -0.000086
    38  H    1.677236  -0.009805
    39  H    0.888137  -0.009406
    40  H    0.973481   0.002558
 Sum of Mulliken charges =   0.00000   1.00000

 Dipole moment (field-independent basis, Debye):
    X=              0.0820    Y=              0.0918    Z=             -0.0190  Tot=              0.1246
                          Isotropic Fermi Contact Couplings
        Atom                 a.u.       MegaHertz       Gauss      10(-4) cm-1
     1  Si(29)             0.08056     -71.59214     -25.54586     -23.88057
     2  C(13)             -0.00152      -1.70958      -0.61002      -0.57025
     3  C(13)              0.00012       0.14012       0.05000       0.04674
     4  C(13)             -0.00133      -1.49546      -0.53362      -0.49883
     5  C(13)              0.00041       0.46525       0.16601       0.15519
     6  C(13)              0.00525       5.90356       2.10654       1.96922
     7  C(13)              0.00191       2.14451       0.76521       0.71533
     8  C(13)             -0.03207     -36.04996     -12.86352     -12.02497

 Normal termination of Gaussian 16 at Wed Apr  9 01:32:00 2025.
