 Gaussian 16, Revision C.01,

 ----------------------------------------------------------------------
 #t hf aug-cc-pvdz symm=none int=(grid=ultrafine) guess=(read,tcheck) s
 table=opt
 ----------------------------------------------------------------------
 -----
 title
 -----
 Symbolic Z-matrix:
 Charge =  0 Multiplicity = 2

 SCF Done:  E(UHF) =  -733.731012268     A.U. after   14 cycles
 Normal termination of Gaussian 16 at Wed Apr  9 00:56:01 2025.
 Gaussian 16:  ES64L-G16RevC.01  3-Jul-2019

 ----------------------------------------------------------------------
 #t hf aug-cc-pvdz iop(5/13=1,5/36=2,99/5=2) pseudo=read geom=check gue
 ss=(read,tcheck) scf=(maxcycle=1)
 ----------------------------------------------------------------------
 -----
 title
 -----
 Structure from the checkpoint file:  "BH10_107_forward_mol3.chk"
 Charge =  0 Multiplicity = 2

                         Standard orientation:
 ---------------------------------------------------------------------
 Center     Atomic      Atomic             Coordinates (Angstroms)
 Number     Number       Type             X           Y           Z
 ---------------------------------------------------------------------
      1         16           0       -1.479997   -0.040421    0.000067
      2          6           0        0.323519   -0.004107    0.000003
      3          9           0        0.716912    1.275611   -0.001235
      4          9           0        0.849204   -0.601553   -1.073285
      5          9           0        0.849311   -0.599459    1.074399
 ---------------------------------------------------------------------

 SCF Done:  E(UHF) =  -735.085664284     A.U. after    2 cycles

 The electronic state is 2-A.
 Alpha  occ. eigenvalues --  -75.75754 -29.33322 -29.32821 -29.32771 -13.17117
 Alpha  occ. eigenvalues --  -13.09721 -13.07423 -11.60466  -8.09623  -1.45621
 Alpha  occ. eigenvalues --   -1.13229  -0.91719  -0.90673  -0.69517  -0.50052
 Alpha  occ. eigenvalues --   -0.45342  -0.45121  -0.42350  -0.40036  -0.33427
 Alpha  occ. eigenvalues --   -0.31222  -0.28168  -0.25404  -0.23489  -0.22935
 Alpha virt. eigenvalues --    0.06073   0.09495   0.11824   0.12672   0.13519
 Alpha virt. eigenvalues --    0.13995   0.14559   0.19031   0.21456   0.22291
 Alpha virt. eigenvalues --    0.22518   0.26765   0.26928   0.27986   0.30003

  Beta  occ. eigenvalues --  -75.74748 -29.33201 -29.32804 -29.32754 -13.16572
  Beta  occ. eigenvalues --  -13.06842 -13.03622 -11.60596  -8.08494  -1.44886
  Beta  occ. eigenvalues --   -1.05273  -0.91119  -0.90694  -0.67435  -0.49999
  Beta  occ. eigenvalues --   -0.45230  -0.45092  -0.39688  -0.39135  -0.30528
  Beta  occ. eigenvalues --   -0.28385  -0.27580  -0.22969  -0.22604
  Beta virt. eigenvalues --    0.02512   0.06298   0.09826   0.12806   0.13306
  Beta virt. eigenvalues --    0.14053   0.14840   0.15672   0.19332   0.22286
  Beta virt. eigenvalues --    0.22622   0.22659   0.27941   0.28255   0.28524

 Mulliken charges and spin densities:
               1          2
     1  S    0.077879   1.107468
     2  C   -2.060599  -0.103055
     3  F    0.661300  -0.003127
     4  F    0.660705  -0.000646
     5  F    0.660715  -0.000640
 Sum of Mulliken charges =  -0.00000   1.00000

 Dipole moment (field-independent basis, Debye):
    X=              1.9028    Y=              0.1765    Z=             -0.0003  Tot=              1.9109
                          Isotropic Fermi Contact Couplings
        Atom                 a.u.       MegaHertz       Gauss      10(-4) cm-1
     1  S(33)              0.27534      94.57079      33.74521      31.54542
     2  C(13)             -0.01191     -13.38712      -4.77686      -4.46546
     3  F(19)              0.01661      69.90627      24.94430      23.31822
     4  F(19)              0.00055       2.30327       0.82186       0.76829
     5  F(19)              0.00054       2.27352       0.81125       0.75836
 --------------------------------------------------------
       Center         ----  Spin Dipole Couplings  ----
                      3XX-RR        3YY-RR        3ZZ-RR

 Normal termination of Gaussian 16 at Wed Apr  9 00:56:03 2025.
