 Gaussian 16, Revision C.01,

 ----------------------------------------------------------------------
 #t hf aug-cc-pvdz symm=none int=(grid=ultrafine) guess=(read,tcheck) s
 table=(opt,rrhf)
 ----------------------------------------------------------------------
 -----
 title
 -----
 Symbolic Z-matrix:
 Charge =  0 Multiplicity = 1

 SCF Done:  E(RHF) =  -1667.46334714     A.U. after   14 cycles
 Normal termination of Gaussian 16 at Wed Apr  9 03:12:35 2025.
 Gaussian 16:  ES64L-G16RevC.01  3-Jul-2019

 ----------------------------------------------------------------------
 #t hf aug-cc-pvdz iop(5/13=1,5/36=2,99/5=2) pseudo=read geom=check gue
 ss=(read,tcheck) scf=(maxcycle=1)
 ----------------------------------------------------------------------
 -----
 title
 -----
 Structure from the checkpoint file:  "BH10_358_forward_mol1.chk"
 Charge =  0 Multiplicity = 1

                         Standard orientation:
 ---------------------------------------------------------------------
 Center     Atomic      Atomic             Coordinates (Angstroms)
 Number     Number       Type             X           Y           Z
 ---------------------------------------------------------------------
      1          6           0       -0.688438    1.844416   -0.175500
      2          6           0       -0.456469    0.527385    0.512351
      3          6           0        0.731564    0.296984    1.213443
      4          6           0        2.003956    0.196335   -0.312895
      5          6           0        3.326535    0.164667    0.458224
      6          6           0        4.454727    0.006746   -0.538255
      7          7           0       -1.301221   -0.477514    0.345639
      8          6           0       -2.545546   -0.449975   -0.406126
      9          6           0       -3.748356   -0.059779    0.447790
     10          1           0       -2.697419   -1.443624   -0.832032
     11          1           0       -2.435607    0.237380   -1.246119
     12          6           0       -5.037428   -0.044615   -0.364194
     13          1           0       -3.568904    0.922576    0.896902
     14          1           0       -3.840063   -0.768489    1.276957
     15          6           0       -6.244654    0.351013    0.480879
     16          1           0       -5.215081   -1.026563   -0.804420
     17          1           0       -4.936524    0.663402   -1.195829
     18          6           0       -7.574319    0.380287   -0.279071
     19          1           0       -6.080572    1.352713    0.891817
     20          1           0       -6.336414   -0.329727    1.334394
     21          6           0       -8.093564   -1.031397   -0.606338
     22          7           0       -8.641901    1.128128    0.394064
     23          1           0       -7.414057    0.853886   -1.253423
     24          8           0       -7.379106   -1.945662   -0.910462
     25          8           0       -9.418222   -1.142558   -0.548897
     26          1           0       -9.743230   -0.271348   -0.235410
     27          8           0        0.294143    2.790099    0.114748
     28          1           0       -1.661333    2.243841    0.125117
     29          1           0       -0.725880    1.643287   -1.255168
     30          1           0        1.081552    2.497199   -0.395190
     31          8           0        0.732623   -0.918898    1.889801
     32          1           0        1.143566    1.152801    1.739682
     33          1           0        1.659151   -1.194904    1.981577
     34          8           0        1.894341    1.142954   -1.145086
     35          1           0        1.663075   -0.820480   -0.589565
     36          8           0        3.346976   -0.921028    1.382069
     37          1           0        3.452380    1.114054    0.988615
     38          1           0        4.240360   -0.993959    1.734564
     39          8           0        5.658497   -0.143354    0.252061
     40          1           0        4.530041    0.881726   -1.180245
     41          1           0        4.312749   -0.892594   -1.143208
     42          1           0       -8.625124    2.112150    0.160656
     43          1           0       -8.576165    1.045912    1.403185
     44         15           0        7.086568   -0.264556   -0.466383
     45          8           0        8.064387   -0.190301    0.799018
     46          1           0        8.267508    0.705244    1.089211
     47          8           0        7.233125   -1.795859   -0.888023
     48          1           0        7.195066   -2.428975   -0.163073
     49          8           0        7.311460    0.672128   -1.565148
     50          1           0       -1.059576   -1.314035    0.866339
 ---------------------------------------------------------------------

 SCF Done:  E(RHF) =  -1673.55457790     A.U. after    2 cycles

 The electronic state is 1-A.
 Alpha  occ. eigenvalues -- -105.33137 -21.12549 -21.12305 -21.11216 -21.08733
 Alpha  occ. eigenvalues --  -21.08676 -21.06716 -21.04746 -21.04693 -21.02434
 Alpha  occ. eigenvalues --  -20.97222 -15.79906 -15.77843 -11.54006 -11.53732
 Alpha  occ. eigenvalues --  -11.49587 -11.49391 -11.48669 -11.47776 -11.45650
 Alpha  occ. eigenvalues --  -11.45278 -11.42202 -11.41542 -11.40994 -11.38237
 Alpha  occ. eigenvalues --   -2.96229  -2.01376  -1.93716  -1.91620  -1.83053
 Alpha  occ. eigenvalues --   -1.77174  -1.75210  -1.72186  -1.70549  -1.65937
 Alpha  occ. eigenvalues --   -1.64141  -1.47144  -1.44640  -1.41517  -1.39655
 Alpha  occ. eigenvalues --   -1.25663  -1.25422  -1.15837  -1.11327  -1.08882
 Alpha  occ. eigenvalues --   -1.02030  -0.99098  -0.94402  -0.91718  -0.86884
 Alpha  occ. eigenvalues --   -0.82582  -0.80037  -0.78567  -0.76790  -0.74603
 Alpha  occ. eigenvalues --   -0.72693  -0.71473  -0.69764  -0.68596  -0.67913
 Alpha  occ. eigenvalues --   -0.67541  -0.65530  -0.65069  -0.64050  -0.62356
 Alpha  occ. eigenvalues --   -0.61351  -0.61120  -0.59838  -0.59060  -0.58431
 Alpha  occ. eigenvalues --   -0.57484  -0.55437  -0.54834  -0.53757  -0.53254
 Alpha  occ. eigenvalues --   -0.52678  -0.51246  -0.50458  -0.50042  -0.48992
 Alpha  occ. eigenvalues --   -0.48304  -0.48064  -0.46978  -0.45410  -0.45200
 Alpha  occ. eigenvalues --   -0.44573  -0.43327  -0.42375  -0.41569  -0.39690
 Alpha  occ. eigenvalues --   -0.38056  -0.37800  -0.37230  -0.34817  -0.34314
 Alpha  occ. eigenvalues --   -0.34062  -0.33414  -0.31229  -0.29049  -0.28922
 Alpha  occ. eigenvalues --   -0.28068  -0.24744  -0.21695
 Alpha virt. eigenvalues --   -0.15969   0.02553   0.03368   0.03847   0.03943
 Alpha virt. eigenvalues --    0.04021   0.04710   0.04912   0.05133   0.05432
 Alpha virt. eigenvalues --    0.05723   0.06237   0.06405   0.06757   0.06851

 Mulliken charges:
               1
     1  C    0.152488
     2  C    2.264924
     3  C    0.461746
     4  C    1.471696
     5  C    0.842812
     6  C   -0.915052
     7  N   -3.979714
     8  C   -3.369880
     9  C   -2.187945
    10  H    1.701039
    11  H    1.956899
    12  C   -3.645128
    13  H    1.942788
    14  H    1.668983
    15  C   -3.369413
    16  H    1.845902
    17  H    1.630305
    18  C   -1.309185
    19  H    1.375041
    20  H    1.349710
    21  C    7.004008
    22  N   -3.184949
    23  H    1.558424
    24  O   -3.263340
    25  O   -3.395810
    26  H    1.082921
    27  O   -3.395935
    28  H    1.140627
    29  H    1.467686
    30  H    0.991279
    31  O   -3.991585
    32  H    1.802366
    33  H    1.355735
    34  O   -3.385395
    35  H    1.560388
    36  O   -3.599589
    37  H    1.791088
    38  H    0.947628
    39  O   -4.683964
    40  H    1.482235
    41  H    1.638556
    42  H    0.322900
    43  H    0.467401
    44  P    9.606769
    45  O   -2.414333
    46  H   -0.418026
    47  O   -2.738499
    48  H    0.883023
    49  O   -1.261016
    50  H    0.741390
 Sum of Mulliken charges =   0.00000

 Dipole moment (field-independent basis, Debye):
    X=             50.1649    Y=             -0.7927    Z=            -11.9435  Tot=             51.5732

 Test job not archived.
 1\1\GINC-SE024\SP\RHF\Aug-CC-pVDZ\C12H25N2O10P1\OHZDE\09-Apr-2025\0\\#
 t hf aug-cc-pvdz iop(5/13=1,5/36=2,99/5=2) pseudo=read geom=check gues
 s=(read,tcheck) scf=(maxcycle=1)\\title\\0,1\C,0,-0.688438,1.844416,-0
 .1755\C,0,-0.456469,0.527385,0.512351\C,0,0.731564,0.296984,1.213443\C
 ,0,2.003956,0.196335,-0.312895\C,0,3.326535,0.164667,0.458224\C,0,4.45
 4727,0.006746,-0.538255\N,0,-1.301221,-0.477514,0.345639\C,0,-2.545546
 ,-0.449975,-0.406126\C,0,-3.748356,-0.059779,0.44779\H,0,-2.697419,-1.
 443624,-0.832032\H,0,-2.435607,0.23738,-1.246119\C,0,-5.037428,-0.0446

 Normal termination of Gaussian 16 at Wed Apr  9 03:14:35 2025.
