 Gaussian 16, Revision C.01,

 ----------------------------------------------------------------------
 #t hf aug-cc-pvdz symm=none int=(grid=ultrafine) guess=(read,tcheck) s
 table=(opt,rrhf)
 ----------------------------------------------------------------------
 -----
 title
 -----
 Symbolic Z-matrix:
 Charge =  0 Multiplicity = 1

 SCF Done:  E(RHF) =  -907.765687278     A.U. after   14 cycles
 Normal termination of Gaussian 16 at Wed Apr  9 01:54:18 2025.
 Gaussian 16:  ES64L-G16RevC.01  3-Jul-2019

 ----------------------------------------------------------------------
 #t hf aug-cc-pvdz iop(5/13=1,5/36=2,99/5=2) pseudo=read geom=check gue
 ss=(read,tcheck) scf=(maxcycle=1)
 ----------------------------------------------------------------------
 -----
 title
 -----
 Structure from the checkpoint file:  "BH10_358_forward_mol2.chk"
 Charge =  0 Multiplicity = 1

                         Standard orientation:
 ---------------------------------------------------------------------
 Center     Atomic      Atomic             Coordinates (Angstroms)
 Number     Number       Type             X           Y           Z
 ---------------------------------------------------------------------
      1          6           0        2.618024    0.239804   -0.700101
      2          6           0        1.833182   -0.812192    0.056827
      3          6           0        0.566464   -1.201488   -0.686128
      4          8           0        3.013380    1.227813   -0.145451
      5          8           0        1.535740   -0.325159    1.346136
      6          1           0        2.473140   -1.704565    0.127071
      7          1           0        2.048192    0.493750    1.460028
      8          8           0       -0.232377   -0.042780   -0.885519
      9          1           0        0.026205   -1.970880   -0.131291
     10          1           0        0.821707   -1.600754   -1.669589
     11         15           0       -1.542102    0.285478    0.001569
     12          8           0       -2.617459   -0.829351   -0.416284
     13          1           0       -3.337580   -0.455123   -0.934813
     14          8           0       -1.165593   -0.229463    1.450798
     15          1           0       -0.210152   -0.166874    1.661098
     16          8           0       -1.986036    1.664202   -0.198844
     17          1           0        2.822752    0.043433   -1.766320
 ---------------------------------------------------------------------

 SCF Done:  E(RHF) =  -910.352519370     A.U. after    2 cycles

 The electronic state is 1-A.
 Alpha  occ. eigenvalues -- -105.32490 -21.11522 -21.11322 -21.10519 -21.10049
 Alpha  occ. eigenvalues --  -21.09262 -21.01868 -11.53216 -11.51609 -11.45234
 Alpha  occ. eigenvalues --   -2.95623  -2.00849  -1.92838  -1.90794  -1.80628
 Alpha  occ. eigenvalues --   -1.74867  -1.72358  -1.45036  -1.40185  -1.25091
 Alpha  occ. eigenvalues --   -1.15141  -0.96843  -0.84114  -0.74040  -0.73212
 Alpha  occ. eigenvalues --   -0.69170  -0.65910  -0.60429  -0.59319  -0.57099
 Alpha  occ. eigenvalues --   -0.53463  -0.50493  -0.47404  -0.45912  -0.45734
 Alpha  occ. eigenvalues --   -0.41506  -0.39293  -0.36252  -0.35675  -0.34081
 Alpha  occ. eigenvalues --   -0.33822  -0.28403  -0.27119  -0.15818
 Alpha virt. eigenvalues --    0.02902   0.04110   0.04481   0.05208   0.05932
 Alpha virt. eigenvalues --    0.06835   0.07968   0.08905   0.10791   0.11296
 Alpha virt. eigenvalues --    0.11439   0.12399   0.12804   0.13340   0.13976

 Mulliken charges:
               1
     1  C    1.523293
     2  C    0.201419
     3  C   -1.640354
     4  O   -2.684786
     5  O   -3.425754
     6  H    1.597094
     7  H    0.927471
     8  O   -3.395848
     9  H    1.564563
    10  H    1.361008
    11  P    8.974998
    12  O   -2.840409
    13  H    0.975589
    14  O   -3.300815
    15  H    1.472338
    16  O   -2.856102
    17  H    1.546296
 Sum of Mulliken charges =   0.00000

 Dipole moment (field-independent basis, Debye):
    X=              2.3759    Y=             -3.5306    Z=             -0.5821  Tot=              4.2952

 Test job not archived.
 1\1\GINC-SE419\SP\RHF\Aug-CC-pVDZ\C3H7O6P1\OHZDE\09-Apr-2025\0\\#t hf
 aug-cc-pvdz iop(5/13=1,5/36=2,99/5=2) pseudo=read geom=check guess=(re
 ad,tcheck) scf=(maxcycle=1)\\title\\0,1\C,0,2.618024,0.239804,-0.70010
 1\C,0,1.833182,-0.812192,0.056827\C,0,0.566464,-1.201488,-0.686128\O,0
 ,3.01338,1.227813,-0.145451\O,0,1.53574,-0.325159,1.346136\H,0,2.47314
 ,-1.704565,0.127071\H,0,2.048192,0.49375,1.460028\O,0,-0.232377,-0.042
 78,-0.885519\H,0,0.026205,-1.97088,-0.131291\H,0,0.821707,-1.600754,-1
 .669589\P,0,-1.542102,0.285478,0.001569\O,0,-2.617459,-0.829351,-0.416

 Normal termination of Gaussian 16 at Wed Apr  9 01:54:27 2025.
