 Gaussian 16, Revision C.01,

 ----------------------------------------------------------------------
 #t hf aug-cc-pvdz symm=none int=(grid=ultrafine) guess=(read,tcheck) s
 table=(opt,rrhf)
 ----------------------------------------------------------------------
 -----
 title
 -----
 Symbolic Z-matrix:
 Charge =  0 Multiplicity = 1

 SCF Done:  E(RHF) =  -336.386537780     A.U. after   12 cycles

 1\1\GINC-SE368\Stability\RHF\Aug-CC-pVDZ\C8H15B1\OHZDE\09-Apr-2025\0\\
 #t hf aug-cc-pvdz symm=none int=(grid=ultrafine) guess=(read,tcheck) s
 table=(opt,rrhf)\\title\\0,1\C,0,-0.004175,1.297467,0.706683\C,0,-0.00
 4185,-1.297467,0.706683\C,0,-1.287618,1.287234,-0.174055\H,0,-2.150528
 ,1.44512,0.483636\H,0,-1.266469,2.148245,-0.851023\H,0,-0.031724,-2.21
 5011,1.30083\H,0,-0.031707,2.215011,1.300831\H,0,-0.444351,0.000001,2.
 721408\C,0,-1.287635,-1.28722,-0.174047\H,0,-2.150544,-1.445087,0.4836
 5\H,0,-1.266504,-2.148236,-0.851009\B,0,-0.136935,0.,1.565978\C,0,1.31

 Normal termination of Gaussian 16 at Wed Apr  9 01:09:50 2025.
 Gaussian 16:  ES64L-G16RevC.01  3-Jul-2019

 ----------------------------------------------------------------------
 #t hf aug-cc-pvdz iop(5/13=1,5/36=2,99/5=2) pseudo=read geom=check gue
 ss=(read,tcheck) scf=(maxcycle=1)
 ----------------------------------------------------------------------
 -----
 title
 -----
 Structure from the checkpoint file:  "BH10_282_forward_mol3.chk"
 Charge =  0 Multiplicity = 1

                         Standard orientation:
 ---------------------------------------------------------------------
 Center     Atomic      Atomic             Coordinates (Angstroms)
 Number     Number       Type             X           Y           Z
 ---------------------------------------------------------------------
      1          6           0        0.004174   -1.297467    0.706683
      2          6           0        0.004186    1.297467    0.706683
      3          6           0        1.287617   -1.287235   -0.174055
      4          1           0        2.150527   -1.445121    0.483636
      5          1           0        1.266468   -2.148246   -0.851023
      6          1           0        0.031725    2.215011    1.300830
      7          1           0        0.031706   -2.215011    1.300831
      8          1           0        0.444351   -0.000001    2.721408
      9          6           0        1.287636    1.287219   -0.174047
     10          1           0        2.150545    1.445086    0.483650
     11          1           0        1.266505    2.148235   -0.851009
     12          5           0        0.136935   -0.000000    1.565978
     13          6           0       -1.316342    1.287603   -0.093432
     14          1           0       -2.135028    1.450855    0.617181
     15          1           0       -1.341782    2.143177   -0.777862
     16          6           0       -1.316360   -1.287587   -0.093423
     17          1           0       -2.135045   -1.450820    0.617196
     18          1           0       -1.341817   -2.143166   -0.777846
     19          6           0        1.515361   -0.000007   -0.980270
     20          1           0        0.879740    0.000001   -1.864476
     21          1           0        2.541732   -0.000013   -1.359190
     22          6           0       -1.601385    0.000007   -0.878454
     23          1           0       -2.651891    0.000012   -1.184187
     24          1           0       -1.031732   -0.000000   -1.807138
 ---------------------------------------------------------------------

 SCF Done:  E(RHF) =  -338.106704845     A.U. after    2 cycles

 The electronic state is 1-A.
 Alpha  occ. eigenvalues --  -11.44829 -11.43040 -11.41491 -11.40629 -11.38042
 Alpha  occ. eigenvalues --  -11.36249 -11.33741 -11.33485  -7.58405  -1.34301
 Alpha  occ. eigenvalues --   -1.17089  -1.15065  -1.03730  -0.97668  -0.83358
 Alpha  occ. eigenvalues --   -0.82042  -0.81621  -0.69677  -0.66654  -0.60792
 Alpha  occ. eigenvalues --   -0.60064  -0.59114  -0.58451  -0.55594  -0.53493
 Alpha  occ. eigenvalues --   -0.49935  -0.46029  -0.45140  -0.43778  -0.43477
 Alpha  occ. eigenvalues --   -0.42045  -0.39225  -0.34321  -0.33244
 Alpha virt. eigenvalues --    0.03660   0.04487   0.04598   0.04654   0.05528
 Alpha virt. eigenvalues --    0.05947   0.05978   0.06021   0.06621   0.07898
 Alpha virt. eigenvalues --    0.07916   0.08055   0.08215   0.08367   0.08673

 Mulliken charges:
               1
     1  C   -1.541568
     2  C   -1.541565
     3  C   -3.092889
     4  H    1.149672
     5  H    1.269083
     6  H    1.616762
     7  H    1.616764
     8  H   -6.299568
     9  C   -3.092883
    10  H    1.149673
    11  H    1.269086
    12  B    9.663245
    13  C   -3.175821
    14  H    1.166810
    15  H    1.259409
    16  C   -3.175811
    17  H    1.166814
    18  H    1.259410
    19  C   -3.030372
    20  H    1.617327
    21  H    1.164271
    22  C   -3.229604
    23  H    1.167054
    24  H    1.644701
 Sum of Mulliken charges =   0.00000

 Dipole moment (field-independent basis, Debye):
    X=              0.0018    Y=              0.0000    Z=             -0.7352  Tot=              0.7352

 Test job not archived.
 1\1\GINC-SE368\SP\RHF\Aug-CC-pVDZ\C8H15B1\OHZDE\09-Apr-2025\0\\#t hf a
 ug-cc-pvdz iop(5/13=1,5/36=2,99/5=2) pseudo=read geom=check guess=(rea
 d,tcheck) scf=(maxcycle=1)\\title\\0,1\C,0,-0.004175,1.297467,0.706683
 \C,0,-0.004185,-1.297467,0.706683\C,0,-1.287618,1.287234,-0.174055\H,0
 ,-2.150528,1.44512,0.483636\H,0,-1.266469,2.148245,-0.851023\H,0,-0.03
 1724,-2.215011,1.30083\H,0,-0.031707,2.215011,1.300831\H,0,-0.444351,0
 .000001,2.721408\C,0,-1.287635,-1.28722,-0.174047\H,0,-2.150544,-1.445
 087,0.48365\H,0,-1.266504,-2.148236,-0.851009\B,0,-0.136935,0.,1.56597

 Normal termination of Gaussian 16 at Wed Apr  9 01:10:02 2025.
