 Gaussian 16, Revision C.01,

 ----------------------------------------------------------------------
 #t hf aug-cc-pvdz symm=none int=(grid=ultrafine) guess=(read,tcheck) s
 table=(opt,rrhf)
 ----------------------------------------------------------------------
 -----
 title
 -----
 Symbolic Z-matrix:
 Charge =  0 Multiplicity = 1

 SCF Done:  E(RHF) =  -887.707708756     A.U. after   17 cycles
 Normal termination of Gaussian 16 at Wed Apr  9 01:57:46 2025.
 Gaussian 16:  ES64L-G16RevC.01  3-Jul-2019

 ----------------------------------------------------------------------
 #t hf aug-cc-pvdz iop(5/13=1,5/36=2,99/5=2) pseudo=read geom=check gue
 ss=(read,tcheck) scf=(maxcycle=1)
 ----------------------------------------------------------------------
 -----
 title
 -----
 Structure from the checkpoint file:  "BH10_377_forward_mol2.chk"
 Charge =  0 Multiplicity = 1

                         Standard orientation:
 ---------------------------------------------------------------------
 Center     Atomic      Atomic             Coordinates (Angstroms)
 Number     Number       Type             X           Y           Z
 ---------------------------------------------------------------------
      1          7           0       -2.097162   -1.028316    0.000024
      2          7           0       -3.100539   -0.306477   -0.000015
      3          7           0       -4.106701    0.184734   -0.000034
      4          6           0       -0.821658   -0.462655    0.000011
      5          6           0       -0.521198    0.896447    0.000010
      6          6           0        0.253325   -1.351427    0.000006
      7          6           0        0.782761    1.355714    0.000001
      8          6           0        1.559990   -0.903946   -0.000003
      9          6           0        1.830472    0.454167   -0.000005
     10          9           0       -1.515773    1.790684    0.000020
     11          9           0        1.026236    2.661351    0.000000
     12          9           0        3.085615    0.886157   -0.000013
     13          9           0        2.560989   -1.776398   -0.000009
     14          9           0        0.023895   -2.659503    0.000008
 ---------------------------------------------------------------------

 SCF Done:  E(RHF) =  -891.118891518     A.U. after    2 cycles

 The electronic state is 1-A.
 Alpha  occ. eigenvalues --  -29.33493 -29.33175 -29.33052 -29.32917 -29.32379
 Alpha  occ. eigenvalues --  -16.00117 -15.89488 -15.81676 -11.61772 -11.55232
 Alpha  occ. eigenvalues --  -11.53918 -11.52465 -11.51945 -11.47133  -1.72321
 Alpha  occ. eigenvalues --   -1.51043  -1.41087  -1.30010  -1.25179  -1.10418
 Alpha  occ. eigenvalues --   -1.07623  -0.92610  -0.91919  -0.80487  -0.77895
 Alpha  occ. eigenvalues --   -0.76946  -0.72451  -0.71537  -0.67739  -0.67614
 Alpha  occ. eigenvalues --   -0.66022  -0.63417  -0.57334  -0.55470  -0.47180
 Alpha  occ. eigenvalues --   -0.45174  -0.44030  -0.43312  -0.43003  -0.42741
 Alpha  occ. eigenvalues --   -0.41938  -0.40676  -0.38453  -0.32694  -0.31943
 Alpha  occ. eigenvalues --   -0.31620  -0.30821  -0.29727  -0.28457  -0.21756
 Alpha  occ. eigenvalues --   -0.19652
 Alpha virt. eigenvalues --    0.07009   0.08748   0.09640   0.10141   0.10413
 Alpha virt. eigenvalues --    0.10974   0.11397   0.11632   0.11738   0.12277
 Alpha virt. eigenvalues --    0.12400   0.13125   0.13261   0.13949   0.14546

 Mulliken charges:
               1
     1  N   -2.550011
     2  N    2.583409
     3  N   -1.672254
     4  C   -6.218608
     5  C    1.705280
     6  C    2.570111
     7  C   -1.450276
     8  C   -1.427062
     9  C    0.866327
    10  F    1.071720
    11  F    1.196174
    12  F    1.126933
    13  F    1.181351
    14  F    1.016907
 Sum of Mulliken charges =  -0.00000

 Dipole moment (field-independent basis, Debye):
    X=              2.8906    Y=              1.2339    Z=             -0.0000  Tot=              3.1430

 Test job not archived.
 1\1\GINC-SE219\SP\RHF\Aug-CC-pVDZ\C6F5N3\OHZDE\09-Apr-2025\0\\#t hf au
 g-cc-pvdz iop(5/13=1,5/36=2,99/5=2) pseudo=read geom=check guess=(read
 ,tcheck) scf=(maxcycle=1)\\title\\0,1\N,0,2.097162,-1.028316,-0.000024
 \N,0,3.100539,-0.306477,0.000015\N,0,4.106701,0.184734,0.000034\C,0,0.
 821658,-0.462655,-0.000011\C,0,0.521198,0.896447,-0.00001\C,0,-0.25332
 5,-1.351427,-0.000006\C,0,-0.782761,1.355714,-0.000001\C,0,-1.55999,-0
 .903946,0.000003\C,0,-1.830472,0.454167,0.000005\F,0,1.515773,1.790684
 ,-0.00002\F,0,-1.026236,2.661351,0.\F,0,-3.085615,0.886157,0.000013\F,

 Normal termination of Gaussian 16 at Wed Apr  9 01:57:55 2025.
