 Gaussian 16, Revision C.01,

 ----------------------------------------------------------------------
 #t hf aug-cc-pvdz symm=none int=(grid=ultrafine) guess=(read,tcheck) s
 table=(opt,rrhf)
 ----------------------------------------------------------------------
 -----
 title
 -----
 Symbolic Z-matrix:
 Charge =  0 Multiplicity = 1

 SCF Done:  E(RHF) =  -1749.93723048     A.U. after   16 cycles
 Normal termination of Gaussian 16 at Wed Apr  9 01:13:12 2025.
 Gaussian 16:  ES64L-G16RevC.01  3-Jul-2019

 ----------------------------------------------------------------------
 #t hf aug-cc-pvdz iop(5/13=1,5/36=2,99/5=2) pseudo=read geom=check gue
 ss=(read,tcheck) scf=(maxcycle=1)
 ----------------------------------------------------------------------
 -----
 title
 -----
 Structure from the checkpoint file:  "BH10_277_reverse_mol2.chk"
 Charge =  0 Multiplicity = 1

                         Standard orientation:
 ---------------------------------------------------------------------
 Center     Atomic      Atomic             Coordinates (Angstroms)
 Number     Number       Type             X           Y           Z
 ---------------------------------------------------------------------
      1          6           0       -3.314440    1.414702   -0.490479
      2          6           0       -2.199422    0.615585   -0.631229
      3          6           0       -2.208000   -0.691319   -0.112320
      4          6           0       -3.349857   -1.163504    0.555299
      5          6           0       -4.467773   -0.361977    0.678986
      6          6           0       -4.447086    0.926141    0.156715
      7          1           0       -3.304354    2.425417   -0.877271
      8          1           0       -1.307779    1.008513   -1.102945
      9          1           0       -3.349143   -2.166363    0.966562
     10          1           0       -5.349773   -0.730727    1.186255
     11          1           0       -5.318947    1.560679    0.261430
     12          6           0       -1.092896   -1.574200   -0.256544
     13          6           0        0.135588   -1.302298   -0.903037
     14          6           0        0.803484   -0.908512    0.496882
     15          1           0       -1.188599   -2.542622    0.228525
     16          1           0        0.163404   -0.462042   -1.587014
     17          1           0        0.683845   -2.159760   -1.279480
     18          5           0        2.081217    0.095147    0.145339
     19         17           0        2.886179    0.425382    1.775338
     20         17           0        1.416881    1.680124   -0.605617
     21         17           0        3.232351   -0.752988   -1.032051
     22          1           0        1.143865   -1.803321    1.013508
     23          1           0        0.161800   -0.326006    1.157693
 ---------------------------------------------------------------------

 SCF Done:  E(RHF) =  -1752.49585389     A.U. after    2 cycles

 The electronic state is 1-A.
 Alpha  occ. eigenvalues --  -99.82936 -99.82496 -99.82127 -11.58563 -11.57158
 Alpha  occ. eigenvalues --  -11.50095 -11.49341 -11.47730 -11.46831 -11.46047
 Alpha  occ. eigenvalues --  -11.42751 -11.39333 -10.40304 -10.39848 -10.39337
 Alpha  occ. eigenvalues --   -9.60277  -9.59969  -9.59792  -9.59772  -9.59458
 Alpha  occ. eigenvalues --   -9.59369  -9.59304  -9.58999  -9.58906  -7.66492
 Alpha  occ. eigenvalues --   -1.43754  -1.35383  -1.28240  -1.22544  -1.22049
 Alpha  occ. eigenvalues --   -1.16159  -1.15213  -1.01762  -0.94865  -0.92240
 Alpha  occ. eigenvalues --   -0.86380  -0.77789  -0.75653  -0.73322  -0.69000
 Alpha  occ. eigenvalues --   -0.65513  -0.64048  -0.62562  -0.59863  -0.59695
 Alpha  occ. eigenvalues --   -0.57552  -0.56617  -0.54345  -0.52722  -0.52186
 Alpha  occ. eigenvalues --   -0.50441  -0.49700  -0.47591  -0.46752  -0.43759
 Alpha  occ. eigenvalues --   -0.43473  -0.42782  -0.41887  -0.38591  -0.35982
 Alpha virt. eigenvalues --   -0.00314   0.01214   0.03041   0.03172   0.04461
 Alpha virt. eigenvalues --    0.04804   0.05373   0.05834   0.06125   0.06792
 Alpha virt. eigenvalues --    0.07229   0.07689   0.08737   0.09005   0.10112

 Mulliken charges:
               1
     1  C   -2.581117
     2  C   -0.902679
     3  C    5.525679
     4  C   -3.660537
     5  C   -1.674696
     6  C   -3.600166
     7  H    1.467345
     8  H    2.165585
     9  H    1.732156
    10  H    1.488611
    11  H    1.534425
    12  C   -2.057228
    13  C   -3.370760
    14  C   -3.223699
    15  H    1.510431
    16  H    1.359481
    17  H    1.186751
    18  B    3.640904
    19  Cl  -1.211576
    20  Cl  -1.129518
    21  Cl  -1.248555
    22  H    1.168026
    23  H    1.881136
 Sum of Mulliken charges =   0.00000

 Dipole moment (field-independent basis, Debye):
    X=            -13.0309    Y=             -3.9126    Z=             -0.4265  Tot=             13.6123

 Test job not archived.
 1\1\GINC-SE159\SP\RHF\Aug-CC-pVDZ\C9H10B1Cl3\OHZDE\09-Apr-2025\0\\#t h
 f aug-cc-pvdz iop(5/13=1,5/36=2,99/5=2) pseudo=read geom=check guess=(
 read,tcheck) scf=(maxcycle=1)\\title\\0,1\C,0,3.31444,-1.414702,-0.490
 479\C,0,2.199422,-0.615585,-0.631229\C,0,2.208,0.691319,-0.11232\C,0,3
 .349857,1.163504,0.555299\C,0,4.467773,0.361977,0.678986\C,0,4.447086,
 -0.926141,0.156715\H,0,3.304354,-2.425417,-0.877271\H,0,1.307779,-1.00
 8513,-1.102945\H,0,3.349143,2.166363,0.966562\H,0,5.349773,0.730727,1.
 186255\H,0,5.318947,-1.560679,0.26143\C,0,1.092896,1.5742,-0.256544\C,

 Normal termination of Gaussian 16 at Wed Apr  9 01:13:33 2025.
