 Gaussian 16, Revision C.01,

 ----------------------------------------------------------------------
 #t hf aug-cc-pvdz symm=none int=(grid=ultrafine) guess=(read,tcheck) s
 table=opt
 ----------------------------------------------------------------------
 -----
 title
 -----
 Symbolic Z-matrix:
 Charge =  0 Multiplicity = 2

 SCF Done:  E(UHF) =  -722.039462993     A.U. after   22 cycles
 Normal termination of Gaussian 16 at Wed Apr  9 01:02:02 2025.
 Gaussian 16:  ES64L-G16RevC.01  3-Jul-2019

 ----------------------------------------------------------------------
 #t hf aug-cc-pvdz iop(5/13=1,5/36=2,99/5=2) pseudo=read geom=check gue
 ss=(read,tcheck) scf=(maxcycle=1)
 ----------------------------------------------------------------------
 -----
 title
 -----
 Structure from the checkpoint file:  "BH10_169_reverse_mol2.chk"
 Charge =  0 Multiplicity = 2

                         Standard orientation:
 ---------------------------------------------------------------------
 Center     Atomic      Atomic             Coordinates (Angstroms)
 Number     Number       Type             X           Y           Z
 ---------------------------------------------------------------------
      1          6           0       -1.771319   -1.290705   -0.819498
      2         16           0       -2.128092    0.306439   -0.038520
      3          6           0       -0.654647    0.472683    1.052066
      4          6           0        0.594036    0.646301    0.279658
      5          6           0        0.877229    1.938375   -0.407345
      6          6           0        1.490735   -0.502168    0.174440
      7          8           0        1.219479   -1.589562    0.671503
      8          1           0       -0.924725   -1.225677   -1.500828
      9          1           0       -1.571285   -2.050345   -0.066044
     10          1           0       -2.661983   -1.563759   -1.384288
     11          1           0        0.005768    2.591516   -0.377261
     12          1           0        1.141683    1.793833   -1.459342
     13          1           0        1.710618    2.471844    0.068643
     14          1           0       -0.872002    1.357330    1.654519
     15          1           0       -0.597682   -0.401354    1.696820
     16          7           0        2.649932   -0.322685   -0.537494
     17          1           0        2.983033    0.590745   -0.790630
     18          1           0        3.314490   -1.078777   -0.510762
 ---------------------------------------------------------------------

 SCF Done:  E(UHF) =  -723.779548998     A.U. after    2 cycles

 The electronic state is 2-A.
 Alpha  occ. eigenvalues --  -75.67060 -21.03101 -15.77480 -13.11627 -13.08606
 Alpha  occ. eigenvalues --  -13.03193 -11.51548 -11.44120 -11.41027 -11.38520
 Alpha  occ. eigenvalues --  -11.38413  -8.01094  -1.71551  -1.35638  -1.27001
 Alpha  occ. eigenvalues --   -1.15987  -1.02769  -0.95767  -0.87729  -0.75745
 Alpha  occ. eigenvalues --   -0.71686  -0.65432  -0.63547  -0.58809  -0.58265
 Alpha  occ. eigenvalues --   -0.57703  -0.55511  -0.53773  -0.51360  -0.46951
 Alpha  occ. eigenvalues --   -0.45395  -0.38109  -0.34721  -0.30224  -0.27636
 Alpha  occ. eigenvalues --   -0.21496
 Alpha virt. eigenvalues --    0.02988   0.04372   0.04774   0.05367   0.05649
 Alpha virt. eigenvalues --    0.05996   0.06693   0.07386   0.08479   0.09395
 Alpha virt. eigenvalues --    0.10090   0.10798   0.11527   0.12894   0.13589

  Beta  occ. eigenvalues --  -75.66941 -21.02130 -15.77480 -13.11015 -13.08458
  Beta  occ. eigenvalues --  -13.03118 -11.51685 -11.43315 -11.41198 -11.38426
  Beta  occ. eigenvalues --  -11.38016  -8.00956  -1.69899  -1.34731  -1.25204
  Beta  occ. eigenvalues --   -1.13982  -1.02749  -0.93597  -0.87244  -0.74755
  Beta  occ. eigenvalues --   -0.70778  -0.64897  -0.59558  -0.58255  -0.57748
  Beta  occ. eigenvalues --   -0.57596  -0.55248  -0.52729  -0.50808  -0.46343
  Beta  occ. eigenvalues --   -0.44301  -0.36419  -0.31755  -0.29017  -0.21731
  Beta virt. eigenvalues --    0.02972   0.04359   0.04792   0.05233   0.05576
  Beta virt. eigenvalues --    0.05880   0.06362   0.07380   0.08063   0.08765
  Beta virt. eigenvalues --    0.09445   0.10301   0.11334   0.11640   0.12963

 Mulliken charges and spin densities:
               1          2
     1  C   -5.092882   0.001039
     2  S    0.991631   0.088219
     3  C   -4.380051  -0.283534
     4  C    1.969275   1.832501
     5  C   -4.391684  -0.316088
     6  C    5.482644  -0.643021
     7  O   -3.645811   0.285270
     8  H    1.647227  -0.018061
     9  H    1.488204  -0.002025
    10  H    1.320381   0.001443
    11  H    1.553744  -0.001537
    12  H    1.169270   0.016204
    13  H    1.189381   0.037139
    14  H    1.222061   0.011774
    15  H    1.322064  -0.003078
    16  N   -3.430096  -0.007150
    17  H    0.768883   0.003577
    18  H    0.815757  -0.002671
 Sum of Mulliken charges =   0.00000   1.00000

 Dipole moment (field-independent basis, Debye):
    X=              0.6385    Y=              1.9334    Z=             -0.7047  Tot=              2.1546
                          Isotropic Fermi Contact Couplings
        Atom                 a.u.       MegaHertz       Gauss      10(-4) cm-1
     1  C(13)             -0.00119      -1.33589      -0.47668      -0.44560
     2  S(33)              0.04579      15.72605       5.61145       5.24565
     3  C(13)             -0.04070     -45.75232     -16.32556     -15.26133
     4  C(13)              0.12950     145.57769      51.94574      48.55949
     5  C(13)             -0.03181     -35.76098     -12.76041     -11.92858
     6  C(13)             -0.04926     -55.38213     -19.76172     -18.47349
     7  O(17)              0.05788     -35.08792     -12.52024     -11.70407
     8  H(1)              -0.00010      -0.43636      -0.15570      -0.14555

 1\1\GINC-SE273\SP\UHF\Aug-CC-pVDZ\C5H10N1O1S1(2)\OHZDE\09-Apr-2025\0\\
 #t hf aug-cc-pvdz iop(5/13=1,5/36=2,99/5=2) pseudo=read geom=check gue
 ss=(read,tcheck) scf=(maxcycle=1)\\title\\0,2\C,0,-1.771319,-1.290705,
 -0.819498\S,0,-2.128092,0.306438,-0.03852\C,0,-0.654647,0.472683,1.052
 066\C,0,0.594036,0.646301,0.279658\C,0,0.877229,1.938375,-0.407345\C,0
 ,1.490735,-0.502168,0.17444\O,0,1.219479,-1.589562,0.671503\H,0,-0.924
 725,-1.225677,-1.500828\H,0,-1.571285,-2.050345,-0.066044\H,0,-2.66198
 3,-1.56376,-1.384288\H,0,0.005768,2.591516,-0.377261\H,0,1.141683,1.79

 Normal termination of Gaussian 16 at Wed Apr  9 01:02:12 2025.
