 Gaussian 16, Revision C.01,

 ----------------------------------------------------------------------
 #t hf aug-cc-pvdz symm=none int=(grid=ultrafine) guess=(read,tcheck) s
 table=(opt,rrhf)
 ----------------------------------------------------------------------
 -----
 title
 -----
 Symbolic Z-matrix:
 Charge =  0 Multiplicity = 1

 SCF Done:  E(RHF) =  -753.639988825     A.U. after   15 cycles
 Normal termination of Gaussian 16 at Wed Apr  9 02:29:31 2025.
 Gaussian 16:  ES64L-G16RevC.01  3-Jul-2019

 ----------------------------------------------------------------------
 #t hf aug-cc-pvdz iop(5/13=1,5/36=2,99/5=2) pseudo=read geom=check gue
 ss=(read,tcheck) scf=(maxcycle=1)
 ----------------------------------------------------------------------
 -----
 title
 -----
 Structure from the checkpoint file:  "BH10_94_forward_mol2.chk"
 Charge =  0 Multiplicity = 1

                         Standard orientation:
 ---------------------------------------------------------------------
 Center     Atomic      Atomic             Coordinates (Angstroms)
 Number     Number       Type             X           Y           Z
 ---------------------------------------------------------------------
      1          6           0       -0.734046    4.610883   -0.847598
      2          8           0        0.020673    3.430769   -0.629617
      3          1           0       -1.628817    4.400474   -1.437397
      4          6           0        1.634834    1.059397   -0.159683
      5          6           0        0.366684    1.113763    0.259007
      6          6           0        2.558216   -0.077133   -0.037782
      7          6           0        2.131459   -1.363036    0.305723
      8          6           0        3.917855    0.125146   -0.279184
      9          6           0        3.037676   -2.402897    0.420221
     10          6           0        4.828857   -0.914313   -0.161017
     11          6           0       -2.480216    1.489052    1.219099
     12          6           0        4.391568   -2.182624    0.191240
     13          6           0       -2.969697    0.395987    0.326251
     14          6           0       -2.733909   -0.897647    0.534871
     15          6           0       -3.211250   -1.975255   -0.317337
     16          6           0       -2.954002   -3.263926   -0.098759
     17          6           0       -3.419818   -4.391432   -0.960225
     18          8           0       -1.799055    2.506306    0.491076
     19          5           0       -0.513019    2.374643    0.043597
     20          1           0        1.077644   -1.553616    0.466808
     21          1           0        4.261401    1.115196   -0.557625
     22          1           0        2.688086   -3.394433    0.682538
     23          1           0        5.880721   -0.733870   -0.347484
     24          1           0       -1.839180    1.083589    2.007286
     25          1           0       -3.321733    1.990642    1.703187
     26          1           0        5.098605   -2.998516    0.280368
     27          1           0       -2.572320   -4.961397   -1.352298
     28          1           0       -4.008052   -4.031032   -1.805667
     29          1           0       -4.035247   -5.093368   -0.389797
     30          1           0       -0.098045    5.308707   -1.390973
     31          1           0       -1.041988    5.060370    0.098856
     32          1           0       -2.358303   -3.532818    0.771782
     33          1           0       -3.805687   -1.687981   -1.181924
     34          1           0       -3.551367    0.712242   -0.536174
     35          1           0       -2.139135   -1.193388    1.397707
     36          1           0        2.050655    1.943018   -0.637616
     37          1           0       -0.050357    0.240562    0.749808
 ---------------------------------------------------------------------

 SCF Done:  E(RHF) =  -757.195786360     A.U. after    2 cycles

 The electronic state is 1-A.
 Alpha  occ. eigenvalues --  -21.01723 -21.00668 -11.51688 -11.46295 -11.45663
 Alpha  occ. eigenvalues --  -11.45011 -11.43523 -11.43151 -11.42227 -11.41711
 Alpha  occ. eigenvalues --  -11.41021 -11.40592 -11.39406 -11.39251 -11.38105
 Alpha  occ. eigenvalues --  -11.37004 -11.35343  -7.63339  -1.83751  -1.68661
 Alpha  occ. eigenvalues --   -1.35719  -1.26520  -1.18126  -1.15451  -1.09185
 Alpha  occ. eigenvalues --   -1.06607  -1.03332  -0.98467  -0.93724  -0.89095
 Alpha  occ. eigenvalues --   -0.86029  -0.80977  -0.79862  -0.78693  -0.71160
 Alpha  occ. eigenvalues --   -0.69206  -0.66242  -0.64936  -0.63391  -0.62397
 Alpha  occ. eigenvalues --   -0.60233  -0.59635  -0.57949  -0.57694  -0.56947
 Alpha  occ. eigenvalues --   -0.56850  -0.56099  -0.53477  -0.51933  -0.51020
 Alpha  occ. eigenvalues --   -0.50116  -0.49910  -0.49202  -0.46898  -0.44327
 Alpha  occ. eigenvalues --   -0.43889  -0.43315  -0.42651  -0.38495  -0.38143
 Alpha  occ. eigenvalues --   -0.32953  -0.32866  -0.32307  -0.29421  -0.28542
 Alpha virt. eigenvalues --    0.03395   0.04336   0.04579   0.04719   0.05183
 Alpha virt. eigenvalues --    0.05312   0.05619   0.05827   0.06052   0.06350
 Alpha virt. eigenvalues --    0.06850   0.06929   0.07469   0.07721   0.07819

 Mulliken charges:
               1
     1  C   -2.708290
     2  O   -5.856094
     3  H    1.460324
     4  C   -1.360788
     5  C   -2.822761
     6  C    6.023815
     7  C    0.016559
     8  C   -3.931993
     9  C   -3.641275
    10  C   -1.956058
    11  C   -2.770246
    12  C   -3.411044
    13  C   -3.004090
    14  C    1.225944
    15  C   -0.629187
    16  C   -1.423162
    17  C   -5.443506
    18  O   -5.268765
    19  B    6.790727
    20  H    1.977838
    21  H    1.766233
    22  H    1.484923
    23  H    1.495270
    24  H    1.823519
    25  H    1.227266
    26  H    1.527302
    27  H    1.109634
    28  H    1.280470
    29  H    1.085240
    30  H    1.362608
    31  H    1.435831
    32  H    1.524525
    33  H    1.824975
    34  H    1.733159
    35  H    2.026283
    36  H    1.856898
    37  H    2.167917
 Sum of Mulliken charges =   0.00000

 Dipole moment (field-independent basis, Debye):
    X=             -0.3997    Y=             -1.1833    Z=              0.0471  Tot=              1.2498

 Test job not archived.
 1\1\GINC-SE404\SP\RHF\Aug-CC-pVDZ\C15H19B1O2\OHZDE\09-Apr-2025\0\\#t h
 f aug-cc-pvdz iop(5/13=1,5/36=2,99/5=2) pseudo=read geom=check guess=(
 read,tcheck) scf=(maxcycle=1)\\title\\0,1\C,0,-0.734047,4.610883,-0.84
 7598\O,0,0.020673,3.430769,-0.629617\H,0,-1.628818,4.400474,-1.437397\
 C,0,1.634834,1.059397,-0.159683\C,0,0.366684,1.113763,0.259007\C,0,2.5
 58216,-0.077133,-0.037782\C,0,2.131459,-1.363036,0.305723\C,0,3.917855
 ,0.125146,-0.279184\C,0,3.037676,-2.402897,0.420221\C,0,4.828857,-0.91
 4312,-0.161017\C,0,-2.480216,1.489052,1.219099\C,0,4.391568,-2.182623,

 Normal termination of Gaussian 16 at Wed Apr  9 02:30:28 2025.
