 Gaussian 16, Revision C.01,

 ----------------------------------------------------------------------
 #t hf aug-cc-pvdz symm=none int=(grid=ultrafine) guess=(read,tcheck) s
 table=opt
 ----------------------------------------------------------------------
 -----
 title
 -----
 Symbolic Z-matrix:
 Charge =  0 Multiplicity = 2

 SCF Done:  E(UHF) =  -745.054192789     A.U. after   18 cycles
 Normal termination of Gaussian 16 at Wed Apr  9 00:58:50 2025.
 Gaussian 16:  ES64L-G16RevC.01  3-Jul-2019

 ----------------------------------------------------------------------
 #t hf aug-cc-pvdz iop(5/13=1,5/36=2,99/5=2) pseudo=read geom=check gue
 ss=(read,tcheck) scf=(maxcycle=1)
 ----------------------------------------------------------------------
 -----
 title
 -----
 Structure from the checkpoint file:  "BH10-RE_124_mol1.chk"
 Charge =  0 Multiplicity = 2

                         Standard orientation:
 ---------------------------------------------------------------------
 Center     Atomic      Atomic             Coordinates (Angstroms)
 Number     Number       Type             X           Y           Z
 ---------------------------------------------------------------------
      1          6           0        2.188118   -0.182736    0.066647
      2          6           0        1.341612   -0.111499   -1.167785
      3          6           0       -0.045625    0.393162   -0.795901
      4          8           0       -0.298728    1.552653   -0.599821
      5          6           0       -2.661401    0.068691    0.017407
      6          6           0       -2.575982    0.393302    1.499688
      7          6           0        2.715243    1.089271    0.633087
      8          6           0        2.118691   -1.396269    0.928144
      9          1           0        1.753704    0.606846   -1.881228
     10          1           0       -3.542388   -0.531179   -0.213038
     11          1           0       -2.698511    0.977067   -0.582770
     12          1           0       -2.525146   -0.515229    2.102001
     13          1           0       -3.457448    0.960082    1.809866
     14          1           0       -1.695290    1.000462    1.709611
     15          1           0        3.088916    1.754921   -0.149204
     16          1           0        3.520766    0.902228    1.346823
     17          1           0        1.930967    1.650048    1.163594
     18          1           0        1.962504   -2.304008    0.340724
     19          1           0        1.288199   -1.340777    1.648463
     20          1           0        3.034580   -1.515444    1.512966
     21          1           0        1.263865   -1.090243   -1.646783
     22         16           0       -1.251177   -0.906220   -0.590637
 ---------------------------------------------------------------------

 SCF Done:  E(UHF) =  -746.953811483     A.U. after    2 cycles

 The electronic state is 2-A.
 Alpha  occ. eigenvalues --  -75.68990 -21.05649 -13.15222 -13.11821 -13.04658
 Alpha  occ. eigenvalues --  -11.50620 -11.42892 -11.42263 -11.40168 -11.38311
 Alpha  occ. eigenvalues --  -11.36758 -11.35349  -8.03356  -1.72342  -1.28456
 Alpha  occ. eigenvalues --   -1.23333  -1.09857  -1.03606  -1.01374  -0.88667
 Alpha  occ. eigenvalues --   -0.80615  -0.73304  -0.66309  -0.63162  -0.62538
 Alpha  occ. eigenvalues --   -0.60133  -0.58632  -0.55348  -0.54064  -0.53663
 Alpha  occ. eigenvalues --   -0.52057  -0.50931  -0.50025  -0.47690  -0.45372
 Alpha  occ. eigenvalues --   -0.42737  -0.38276  -0.30840  -0.24761  -0.24188
 Alpha virt. eigenvalues --    0.03566   0.04097   0.05108   0.05498   0.05592
 Alpha virt. eigenvalues --    0.06028   0.06125   0.06684   0.07430   0.08036
 Alpha virt. eigenvalues --    0.08847   0.09306   0.09535   0.10141   0.11661

  Beta  occ. eigenvalues --  -75.68983 -21.05609 -13.15200 -13.11800 -13.04651
  Beta  occ. eigenvalues --  -11.50434 -11.42639 -11.42262 -11.39367 -11.38577
  Beta  occ. eigenvalues --  -11.36757 -11.34640  -8.03347  -1.72205  -1.26266
  Beta  occ. eigenvalues --   -1.21935  -1.09379  -1.03493  -1.01216  -0.88480
  Beta  occ. eigenvalues --   -0.76603  -0.71776  -0.65979  -0.62503  -0.60929
  Beta  occ. eigenvalues --   -0.58673  -0.57651  -0.54556  -0.53675  -0.52698
  Beta  occ. eigenvalues --   -0.51975  -0.50664  -0.49788  -0.47311  -0.44734
  Beta  occ. eigenvalues --   -0.42111  -0.37908  -0.26528  -0.24617
  Beta virt. eigenvalues --    0.03593   0.04096   0.05041   0.05505   0.05589
  Beta virt. eigenvalues --    0.06038   0.06103   0.06662   0.07266   0.08037
  Beta virt. eigenvalues --    0.08626   0.08987   0.09522   0.10136   0.10824

 Mulliken charges and spin densities:
               1          2
     1  C    1.689138   2.010253
     2  C   -3.875822  -0.362614
     3  C    3.978809   0.020889
     4  O   -3.315515   0.014428
     5  C   -4.316211  -0.008404
     6  C   -3.688868  -0.003202
     7  C   -4.821193  -0.418546
     8  C   -4.669224  -0.382731
     9  H    1.239835   0.005194
    10  H    1.468104   0.000209
    11  H    1.652974   0.000685
    12  H    1.397611  -0.001635
    13  H    1.171917   0.000418
    14  H    1.429036   0.003671
    15  H    1.278976   0.006747
    16  H    1.298229   0.006478
    17  H    1.244718   0.033625
    18  H    1.330686   0.000874
    19  H    1.449706   0.035988
    20  H    1.251877   0.011963
    21  H    1.659300   0.005489
    22  S    1.145918   0.020219
 Sum of Mulliken charges =  -0.00000   1.00000

 Dipole moment (field-independent basis, Debye):
    X=             -0.3961    Y=             -1.4289    Z=              0.1413  Tot=              1.4895
                          Isotropic Fermi Contact Couplings
        Atom                 a.u.       MegaHertz       Gauss      10(-4) cm-1
     1  C(13)              0.16203     182.14962      64.99551      60.75857
     2  C(13)             -0.03615     -40.64381     -14.50272     -13.55731
     3  C(13)              0.04862      54.65378      19.50183      18.23054
     4  O(17)              0.00182      -1.10340      -0.39372      -0.36805
     5  C(13)              0.00020       0.22477       0.08020       0.07498
     6  C(13)              0.00045       0.50609       0.18059       0.16881
     7  C(13)             -0.03441     -38.68885     -13.80514     -12.90521
     8  C(13)             -0.03491     -39.24894     -14.00500     -13.09204

 Normal termination of Gaussian 16 at Wed Apr  9 00:59:09 2025.
