 Gaussian 16, Revision C.01,

 ----------------------------------------------------------------------
 #t hf aug-cc-pvdz symm=none int=(grid=ultrafine) guess=(read,tcheck) s
 table=(opt,rrhf)
 ----------------------------------------------------------------------
 -----
 title
 -----
 Symbolic Z-matrix:
 Charge =  0 Multiplicity = 1

 SCF Done:  E(RHF) =  -770.039688272     A.U. after   14 cycles
 Normal termination of Gaussian 16 at Wed Apr  9 00:58:44 2025.
 Gaussian 16:  ES64L-G16RevC.01  3-Jul-2019

 ----------------------------------------------------------------------
 #t hf aug-cc-pvdz iop(5/13=1,5/36=2,99/5=2) pseudo=read geom=check gue
 ss=(read,tcheck) scf=(maxcycle=1)
 ----------------------------------------------------------------------
 -----
 title
 -----
 Structure from the checkpoint file:  "BH10_137_reverse_mol3.chk"
 Charge =  0 Multiplicity = 1

                         Standard orientation:
 ---------------------------------------------------------------------
 Center     Atomic      Atomic             Coordinates (Angstroms)
 Number     Number       Type             X           Y           Z
 ---------------------------------------------------------------------
      1          6           0        0.220867    0.028630   -0.016066
      2          6           0       -1.202930   -0.524757   -0.018620
      3          6           0       -2.007949    0.680427   -0.548871
      4          6           0       -1.294186    1.911104    0.013154
      5          6           0        0.193912    1.537900   -0.062208
      6          6           0        1.303884   -0.726606    0.003549
      7          6           0       -1.622428   -0.853486    1.423080
      8          6           0       -1.380319   -1.759515   -0.897984
      9          1           0       -3.062760    0.623526   -0.271217
     10          1           0       -1.955612    0.692164   -1.642438
     11          1           0       -1.591279    2.081307    1.050542
     12          1           0       -1.525280    2.822407   -0.539398
     13          1           0        0.795728    1.983367    0.732017
     14          1           0        0.634495    1.873069   -1.006655
     15          1           0       -1.509460    0.006392    2.085814
     16          1           0       -1.008688   -1.661820    1.825396
     17          1           0       -2.668979   -1.168876    1.450899
     18          1           0       -1.039141   -1.567320   -1.917051
     19          1           0       -2.434237   -2.046929   -0.937374
     20          1           0       -0.823223   -2.614908   -0.508964
     21         17           0        2.918815   -0.057551    0.017296
     22          1           0        1.303475   -1.806197    0.008187
 ---------------------------------------------------------------------

 SCF Done:  E(RHF) =  -771.875048256     A.U. after    2 cycles

 The electronic state is 1-A.
 Alpha  occ. eigenvalues --  -99.88103 -11.48067 -11.46270 -11.43473 -11.40487
 Alpha  occ. eigenvalues --  -11.39889 -11.39223 -11.38072 -11.35411 -10.45461
 Alpha  occ. eigenvalues --   -9.65402  -9.64661  -9.64454  -1.39729  -1.30811
 Alpha  occ. eigenvalues --   -1.15058  -1.09335  -1.01226  -0.97649  -0.90141
 Alpha  occ. eigenvalues --   -0.82129  -0.73892  -0.67213  -0.66107  -0.63131
 Alpha  occ. eigenvalues --   -0.59562  -0.58750  -0.57111  -0.55602  -0.53749
 Alpha  occ. eigenvalues --   -0.52433  -0.51518  -0.48929  -0.46100  -0.45066
 Alpha  occ. eigenvalues --   -0.43230  -0.41941  -0.40525  -0.33582
 Alpha virt. eigenvalues --    0.03788   0.04803   0.04985   0.05088   0.05258
 Alpha virt. eigenvalues --    0.05428   0.06076   0.06772   0.07217   0.08070
 Alpha virt. eigenvalues --    0.08487   0.08665   0.08921   0.09031   0.11371

 Mulliken charges:
               1
     1  C    6.526354
     2  C    3.387813
     3  C   -4.010632
     4  C   -2.995884
     5  C   -5.098425
     6  C   -4.254222
     7  C   -4.980503
     8  C   -5.246437
     9  H    1.350512
    10  H    1.397563
    11  H    1.453525
    12  H    1.214440
    13  H    1.345492
    14  H    1.291395
    15  H    1.397640
    16  H    1.278096
    17  H    1.293217
    18  H    1.308894
    19  H    1.193115
    20  H    1.369933
    21  Cl  -0.626403
    22  H    1.404515
 Sum of Mulliken charges =  -0.00000

 Dipole moment (field-independent basis, Debye):
    X=             -2.8609    Y=              0.1097    Z=             -0.0706  Tot=              2.8639

 Test job not archived.
 1\1\GINC-SE396\SP\RHF\Aug-CC-pVDZ\C8H13Cl1\OHZDE\09-Apr-2025\0\\#t hf
 aug-cc-pvdz iop(5/13=1,5/36=2,99/5=2) pseudo=read geom=check guess=(re
 ad,tcheck) scf=(maxcycle=1)\\title\\0,1\C,0,0.220867,0.02863,-0.016066
 \C,0,-1.20293,-0.524757,-0.01862\C,0,-2.007949,0.680427,-0.548871\C,0,
 -1.294186,1.911104,0.013154\C,0,0.193912,1.5379,-0.062208\C,0,1.303884
 ,-0.726606,0.003549\C,0,-1.622428,-0.853486,1.42308\C,0,-1.380319,-1.7
 59515,-0.897984\H,0,-3.06276,0.623526,-0.271217\H,0,-1.955612,0.692164
 ,-1.642438\H,0,-1.591279,2.081307,1.050542\H,0,-1.52528,2.822407,-0.53

 Normal termination of Gaussian 16 at Wed Apr  9 00:58:57 2025.
