 Gaussian 16, Revision C.01,

 ----------------------------------------------------------------------
 #t hf aug-cc-pvdz symm=none int=(grid=ultrafine) guess=(read,tcheck) s
 table=(opt,rrhf)
 ----------------------------------------------------------------------
 -----
 title
 -----
 Symbolic Z-matrix:
 Charge =  0 Multiplicity = 1

 SCF Done:  E(RHF) =  -883.990408113     A.U. after   13 cycles
 Normal termination of Gaussian 16 at Wed Apr  9 01:01:00 2025.
 Gaussian 16:  ES64L-G16RevC.01  3-Jul-2019

 ----------------------------------------------------------------------
 #t hf aug-cc-pvdz iop(5/13=1,5/36=2,99/5=2) pseudo=read geom=check gue
 ss=(read,tcheck) scf=(maxcycle=1)
 ----------------------------------------------------------------------
 -----
 title
 -----
 Structure from the checkpoint file:  "BH10_139_forward_mol2.chk"
 Charge =  0 Multiplicity = 1

                         Standard orientation:
 ---------------------------------------------------------------------
 Center     Atomic      Atomic             Coordinates (Angstroms)
 Number     Number       Type             X           Y           Z
 ---------------------------------------------------------------------
      1          8           0        2.978635    1.447167    0.592667
      2          6           0        2.730010    0.389124    0.138882
      3          6           0        1.385776   -0.191653   -0.183786
      4          6           0        0.241023    0.764244    0.123716
      5          1           0        1.306888   -1.129742    0.370676
      6          1           0        1.401687   -0.474722   -1.240778
      7          1           0        0.235043    0.992768    1.194005
      8          6           0       -1.129168    0.228435   -0.291783
      9          1           0        0.427266    1.712784   -0.386683
     10          6           0       -1.532767   -1.030759    0.482378
     11          1           0       -1.084578   -0.032758   -1.358954
     12          6           0       -2.196510    1.314033   -0.125470
     13          1           0       -2.209746    1.635760    0.923661
     14          6           0       -3.588232    0.824464   -0.519933
     15          1           0       -1.922623    2.193136   -0.716245
     16          6           0       -3.976474   -0.430606    0.258641
     17          1           0       -3.601386    0.601412   -1.593417
     18          1           0       -4.323944    1.616543   -0.357734
     19          6           0       -2.925101   -1.525188    0.091589
     20          1           0       -4.955756   -0.792302   -0.065769
     21          1           0       -4.071005   -0.180481    1.322047
     22          1           0       -2.909056   -1.852361   -0.954837
     23          1           0       -3.190079   -2.402585    0.687365
     24          1           0       -1.516544   -0.801314    1.555786
     25          1           0       -0.805555   -1.831583    0.323536
     26         17           0        4.078763   -0.757909   -0.252318
 ---------------------------------------------------------------------

 SCF Done:  E(RHF) =  -886.314161868     A.U. after    2 cycles

 The electronic state is 1-A.
 Alpha  occ. eigenvalues --  -99.89334 -21.09779 -11.55622 -11.45951 -11.44636
 Alpha  occ. eigenvalues --  -11.44336 -11.42527 -11.41529 -11.38298 -11.37429
 Alpha  occ. eigenvalues --  -11.34450 -10.46691  -9.66636  -9.65873  -9.65753
 Alpha  occ. eigenvalues --   -1.76340  -1.35658  -1.31633  -1.20564  -1.10987
 Alpha  occ. eigenvalues --   -1.10205  -0.96831  -0.88931  -0.85622  -0.79032
 Alpha  occ. eigenvalues --   -0.78768  -0.68725  -0.67645  -0.65333  -0.62050
 Alpha  occ. eigenvalues --   -0.61445  -0.60984  -0.59082  -0.56329  -0.53106
 Alpha  occ. eigenvalues --   -0.52641  -0.51956  -0.50752  -0.48233  -0.47277
 Alpha  occ. eigenvalues --   -0.46058  -0.45675  -0.44684  -0.44280  -0.38902
 Alpha  occ. eigenvalues --   -0.38099  -0.34336
 Alpha virt. eigenvalues --    0.04010   0.04082   0.04571   0.05081   0.05214
 Alpha virt. eigenvalues --    0.05455   0.05630   0.06237   0.06492   0.07474
 Alpha virt. eigenvalues --    0.07792   0.08573   0.08715   0.08992   0.09346

 Mulliken charges:
               1
     1  O   -2.862041
     2  C    1.575001
     3  C   -3.368936
     4  C   -3.180250
     5  H    1.746527
     6  H    1.642100
     7  H    1.476196
     8  C    2.375122
     9  H    1.564965
    10  C   -3.628120
    11  H    2.040991
    12  C   -3.435082
    13  H    1.336931
    14  C   -3.335570
    15  H    1.384700
    16  C   -2.774133
    17  H    1.409683
    18  H    1.257954
    19  C   -3.345277
    20  H    1.354958
    21  H    1.400381
    22  H    1.362925
    23  H    1.260610
    24  H    1.363865
    25  H    1.595888
    26  Cl  -0.219387
 Sum of Mulliken charges =  -0.00000

 Dipole moment (field-independent basis, Debye):
    X=             -3.4933    Y=              1.0032    Z=              0.1856  Tot=              3.6392

 Test job not archived.
 1\1\GINC-SE069\SP\RHF\Aug-CC-pVDZ\C9H15Cl1O1\OHZDE\09-Apr-2025\0\\#t h
 f aug-cc-pvdz iop(5/13=1,5/36=2,99/5=2) pseudo=read geom=check guess=(
 read,tcheck) scf=(maxcycle=1)\\title\\0,1\O,0,2.978635,1.447167,0.5926
 67\C,0,2.73001,0.389124,0.138882\C,0,1.385776,-0.191653,-0.183786\C,0,
 0.241023,0.764244,0.123716\H,0,1.306888,-1.129742,0.370676\H,0,1.40168
 7,-0.474722,-1.240778\H,0,0.235043,0.992768,1.194005\C,0,-1.129168,0.2
 28435,-0.291783\H,0,0.427266,1.712784,-0.386683\C,0,-1.532767,-1.03075
 9,0.482378\H,0,-1.084578,-0.032758,-1.358954\C,0,-2.19651,1.314033,-0.

 Normal termination of Gaussian 16 at Wed Apr  9 01:01:19 2025.
