 Gaussian 16, Revision C.01,

 ----------------------------------------------------------------------
 #t hf aug-cc-pvdz symm=none int=(grid=ultrafine) guess=(read,tcheck) s
 table=(opt,rrhf)
 ----------------------------------------------------------------------
 -----
 title
 -----
 Symbolic Z-matrix:
 Charge =  0 Multiplicity = 1

 SCF Done:  E(RHF) =  -589.523627606     A.U. after   14 cycles
 Normal termination of Gaussian 16 at Wed Apr  9 01:52:19 2025.
 Gaussian 16:  ES64L-G16RevC.01  3-Jul-2019

 ----------------------------------------------------------------------
 #t hf aug-cc-pvdz iop(5/13=1,5/36=2,99/5=2) pseudo=read geom=check gue
 ss=(read,tcheck) scf=(maxcycle=1)
 ----------------------------------------------------------------------
 -----
 title
 -----
 Structure from the checkpoint file:  "BH10_350_forward_mol2.chk"
 Charge =  0 Multiplicity = 1

                         Standard orientation:
 ---------------------------------------------------------------------
 Center     Atomic      Atomic             Coordinates (Angstroms)
 Number     Number       Type             X           Y           Z
 ---------------------------------------------------------------------
      1          6           0       -0.745946    0.268767   -0.004698
      2          8           0       -0.626695    1.465026   -0.004914
      3          6           0       -2.078309   -0.434348    0.005276
      4          1           0       -2.586853   -0.194575    0.940857
      5          1           0       -1.982420   -1.515470   -0.086567
      6          1           0       -2.683299   -0.045760   -0.814795
      7         16           0        0.656837   -0.826938   -0.004811
      8          6           0        1.987967    0.396177    0.007441
      9          1           0        1.923579    1.030072   -0.873932
     10          1           0        2.924713   -0.158277    0.000329
     11          1           0        1.926170    1.011235    0.902287
 ---------------------------------------------------------------------

 SCF Done:  E(RHF) =  -590.638289827     A.U. after    2 cycles

 The electronic state is 1-A.
 Alpha  occ. eigenvalues --  -75.69588 -21.05849 -13.13113 -13.10742 -13.02314
 Alpha  occ. eigenvalues --  -11.49982 -11.39843 -11.39593  -8.03964  -1.72261
 Alpha  occ. eigenvalues --   -1.22652  -1.10946  -0.96605  -0.74253  -0.63791
 Alpha  occ. eigenvalues --   -0.61125  -0.59266  -0.58775  -0.54557  -0.47794
 Alpha  occ. eigenvalues --   -0.45039  -0.40710  -0.26510  -0.24875
 Alpha virt. eigenvalues --    0.03236   0.03583   0.05638   0.06289   0.06810
 Alpha virt. eigenvalues --    0.07163   0.09057   0.10921   0.12548   0.12751
 Alpha virt. eigenvalues --    0.13244   0.13935   0.15017   0.15643   0.15890

 Mulliken charges:
               1
     1  C    3.060794
     2  O   -3.087056
     3  C   -4.273450
     4  H    1.203501
     5  H    1.507709
     6  H    1.188530
     7  S    1.088965
     8  C   -4.893374
     9  H    1.454330
    10  H    1.294949
    11  H    1.455102
 Sum of Mulliken charges =  -0.00000

 Dipole moment (field-independent basis, Debye):
    X=              0.5810    Y=             -1.6513    Z=              0.0029  Tot=              1.7506

 Test job not archived.
 1\1\GINC-SE339\SP\RHF\Aug-CC-pVDZ\C3H6O1S1\OHZDE\09-Apr-2025\0\\#t hf
 aug-cc-pvdz iop(5/13=1,5/36=2,99/5=2) pseudo=read geom=check guess=(re
 ad,tcheck) scf=(maxcycle=1)\\title\\0,1\C,0,-0.745946,0.268767,-0.0046
 98\O,0,-0.626695,1.465026,-0.004914\C,0,-2.078309,-0.434348,0.005276\H
 ,0,-2.586853,-0.194575,0.940857\H,0,-1.98242,-1.51547,-0.086567\H,0,-2
 .683299,-0.04576,-0.814795\S,0,0.656837,-0.826938,-0.004811\C,0,1.9879
 67,0.396178,0.007441\H,0,1.923579,1.030073,-0.873932\H,0,2.924713,-0.1
 58276,0.000329\H,0,1.92617,1.011236,0.902287\\Version=ES64L-G16RevC.01

 Normal termination of Gaussian 16 at Wed Apr  9 01:52:23 2025.
