 Gaussian 16, Revision C.01,

 ----------------------------------------------------------------------
 #t hf aug-cc-pvdz symm=none int=(grid=ultrafine) guess=(read,tcheck) s
 table=opt
 ----------------------------------------------------------------------
 -----
 title
 -----
 Symbolic Z-matrix:
 Charge =  0 Multiplicity = 2

 SCF Done:  E(UHF) =  -2378.29845756     A.U. after   26 cycles
 Normal termination of Gaussian 16 at Wed Apr  9 01:12:24 2025.
 Gaussian 16:  ES64L-G16RevC.01  3-Jul-2019

 ----------------------------------------------------------------------
 #t hf aug-cc-pvdz iop(5/13=1,5/36=2,99/5=2) pseudo=read geom=check gue
 ss=(read,tcheck) scf=(maxcycle=1)
 ----------------------------------------------------------------------
 -----
 title
 -----
 Structure from the checkpoint file:  "BH10_166_forward_mol1.chk"
 Charge =  0 Multiplicity = 2

                         Standard orientation:
 ---------------------------------------------------------------------
 Center     Atomic      Atomic             Coordinates (Angstroms)
 Number     Number       Type             X           Y           Z
 ---------------------------------------------------------------------
      1          7           0        2.581719    0.645655   -0.993468
      2          1           0        3.188550    0.003068   -1.490533
      3          6           0        1.614037    0.046548   -0.138935
      4          1           0        0.506599    0.608669   -0.442239
      5          6           0        1.382519   -1.407938   -0.472642
      6          6           0        1.774105    0.303281    1.369405
      7          1           0        0.923109   -1.485740   -1.458324
      8          1           0        0.712314   -1.846511    0.259311
      9         16           0        2.910139   -2.409342   -0.561542
     10          8           0        1.898950   -0.649321    2.116162
     11          1           0        3.217124   -2.280758    0.741330
     12          7           0        1.755821    1.583170    1.762416
     13          1           0        1.651085    2.333173    1.087221
     14          1           0        1.869551    1.778461    2.744369
     15          6           0        2.705811    1.973360   -1.248128
     16          1           0        3.480513    2.189672   -1.997988
     17          8           0        2.046154    2.844506   -0.723119
     18          8           0       -0.553297    1.065272   -0.967463
     19          8           0       -1.377828   -0.033193   -1.137633
     20          6           0       -2.335023   -0.108660   -0.131634
     21         17           0       -3.288987   -1.526551   -0.576222
     22         17           0       -1.568357   -0.352122    1.463214
     23         17           0       -3.344679    1.348673   -0.087760
 ---------------------------------------------------------------------

 SCF Done:  E(UHF) =  -2381.87738219     A.U. after    2 cycles

 The electronic state is 2-A.
 Alpha  occ. eigenvalues --  -99.93117 -99.92526 -99.92460 -75.69874 -21.17799
 Alpha  occ. eigenvalues --  -21.16759 -21.06209 -21.03820 -15.80235 -15.77960
 Alpha  occ. eigenvalues --  -13.16000 -13.12493 -13.06640 -11.59597 -11.55322
 Alpha  occ. eigenvalues --  -11.51968 -11.49646 -11.43837 -10.50598 -10.49975
 Alpha  occ. eigenvalues --  -10.49843  -9.70517  -9.69936  -9.69734  -9.69602
 Alpha  occ. eigenvalues --   -9.69549  -9.69405  -9.69031  -9.68946  -9.68873
 Alpha  occ. eigenvalues --   -8.03789  -2.06489  -1.74704  -1.72318  -1.53675
 Alpha  occ. eigenvalues --   -1.45805  -1.38480  -1.35349  -1.32622  -1.32251
 Alpha  occ. eigenvalues --   -1.22546  -1.09381  -0.95538  -0.94139  -0.89478
 Alpha  occ. eigenvalues --   -0.80996  -0.76397  -0.75994  -0.75572  -0.74196
 Alpha  occ. eigenvalues --   -0.72264  -0.70214  -0.67043  -0.60833  -0.59452
 Alpha  occ. eigenvalues --   -0.58762  -0.57391  -0.55370  -0.55000  -0.53512
 Alpha  occ. eigenvalues --   -0.53440  -0.52313  -0.52175  -0.51373  -0.50859
 Alpha  occ. eigenvalues --   -0.50164  -0.49841  -0.46477  -0.41059  -0.39470
 Alpha  occ. eigenvalues --   -0.36810  -0.33915  -0.33127  -0.32152  -0.27278
 Alpha  occ. eigenvalues --   -0.25638
 Alpha virt. eigenvalues --    0.00076   0.03321   0.04463   0.05033   0.05473
 Alpha virt. eigenvalues --    0.05597   0.06109   0.06673   0.07148   0.08239
 Alpha virt. eigenvalues --    0.08440   0.09073   0.09744   0.10524   0.10704

  Beta  occ. eigenvalues --  -99.93125 -99.92524 -99.92457 -75.69828 -21.16786
  Beta  occ. eigenvalues --  -21.14614 -21.06101 -21.03640 -15.80260 -15.77963
  Beta  occ. eigenvalues --  -13.15848 -13.12339 -13.06616 -11.59607 -11.55004
  Beta  occ. eigenvalues --  -11.51934 -11.48966 -11.43769 -10.50606 -10.49974
  Beta  occ. eigenvalues --  -10.49841  -9.70546  -9.69926  -9.69729  -9.69609
  Beta  occ. eigenvalues --   -9.69552  -9.69407  -9.69030  -9.68938  -9.68873
  Beta  occ. eigenvalues --   -8.03738  -2.03334  -1.74467  -1.72004  -1.50274
  Beta  occ. eigenvalues --   -1.44867  -1.36302  -1.35307  -1.32587  -1.32227
  Beta  occ. eigenvalues --   -1.22023  -1.07295  -0.95308  -0.93758  -0.89282
  Beta  occ. eigenvalues --   -0.78765  -0.75927  -0.75627  -0.75183  -0.73665
  Beta  occ. eigenvalues --   -0.71559  -0.68036  -0.65789  -0.59419  -0.59069
  Beta  occ. eigenvalues --   -0.58632  -0.56603  -0.54739  -0.54476  -0.53303
  Beta  occ. eigenvalues --   -0.52903  -0.52115  -0.51998  -0.51158  -0.49892
  Beta  occ. eigenvalues --   -0.49551  -0.48169  -0.43695  -0.39693  -0.37837
  Beta  occ. eigenvalues --   -0.35857  -0.33410  -0.32492  -0.29152  -0.25451
  Beta virt. eigenvalues --    0.00080   0.03301   0.03914   0.04890   0.05050
  Beta virt. eigenvalues --    0.05577   0.05736   0.06168   0.06939   0.07597
  Beta virt. eigenvalues --    0.08447   0.08631   0.09524   0.09842   0.10543

 Mulliken charges and spin densities:
               1          2
     1  N   -3.455331  -0.034064
     2  H    0.777257   0.002789
     3  C    1.029207   1.035472
     4  H    4.195624  -0.518844
     5  C   -5.152561  -0.154044
     6  C    5.999871  -0.178167
     7  H    1.327368   0.007630
     8  H    1.179650  -0.003437
     9  S   -0.857703   0.046013
    10  O   -3.533139   0.046046
    11  H    1.034211  -0.003836
    12  N   -3.631705  -0.010963
    13  H    0.910830   0.003959
    14  H    0.883032   0.000435
    15  C    2.115252  -0.024628
    16  H    1.882324   0.001344
    17  O   -2.878874   0.029646
    18  O   -1.286650   0.742323
    19  O   -1.349965  -0.012056
    20  C   -0.083760   0.025868
    21  Cl   0.297079  -0.008936
    22  Cl   0.193312   0.004152
    23  Cl   0.404668   0.003298
 Sum of Mulliken charges =   0.00000   1.00000

 Dipole moment (field-independent basis, Debye):
    X=              2.5277    Y=              0.2283    Z=             -2.8176  Tot=              3.7921
                          Isotropic Fermi Contact Couplings
        Atom                 a.u.       MegaHertz       Gauss      10(-4) cm-1
     1  N(14)             -0.00776      -2.50689      -0.89452      -0.83621
     2  H(1)               0.00213       9.50285       3.39085       3.16981
     3  C(13)              0.11221     126.14937      45.01323      42.07890
     4  H(1)              -0.04908    -219.39406     -78.28526     -73.18198
     5  C(13)             -0.01837     -20.64997      -7.36842      -6.88809
     6  C(13)             -0.00700      -7.87418      -2.80970      -2.62654
     7  H(1)               0.00290      12.95638       4.62316       4.32178
     8  H(1)               0.00110       4.93524       1.76102       1.64622

 Normal termination of Gaussian 16 at Wed Apr  9 01:12:52 2025.
