 Gaussian 16, Revision C.01,

 ----------------------------------------------------------------------
 #t hf aug-cc-pvdz symm=none int=(grid=ultrafine) guess=(read,tcheck) s
 table=(opt,rrhf)
 ----------------------------------------------------------------------
 -----
 title
 -----
 Symbolic Z-matrix:
 Charge =  0 Multiplicity = 1

 SCF Done:  E(RHF) =  -1125.27562688     A.U. after   14 cycles
 Normal termination of Gaussian 16 at Wed Apr  9 02:34:10 2025.
 Gaussian 16:  ES64L-G16RevC.01  3-Jul-2019

 ----------------------------------------------------------------------
 #t hf aug-cc-pvdz iop(5/13=1,5/36=2,99/5=2) pseudo=read geom=check gue
 ss=(read,tcheck) scf=(maxcycle=1)
 ----------------------------------------------------------------------
 -----
 title
 -----
 Structure from the checkpoint file:  "BH10_297_reverse_mol2.chk"
 Charge =  0 Multiplicity = 1

                         Standard orientation:
 ---------------------------------------------------------------------
 Center     Atomic      Atomic             Coordinates (Angstroms)
 Number     Number       Type             X           Y           Z
 ---------------------------------------------------------------------
      1          6           0        0.322445   -2.872942   -0.358443
      2          6           0       -0.252025   -1.572739    0.276385
      3          6           0        2.695845   -0.667203    0.020463
      4          1           0       -0.451653   -3.320028   -0.988516
      5          6           0        0.110365   -1.412687    1.765860
      6          1           0        3.653170   -0.172450   -0.169040
      7          1           0       -1.338087   -1.672116    0.252102
      8          6           0        1.560040   -1.678036    2.152277
      9          1           0        1.640938   -1.622450    3.242586
     10          1           0        1.821425   -2.708755    1.896297
     11          6           0        2.594407   -0.732795    1.554500
     12          1           0        2.423613    0.272322    1.949316
     13          1           0        3.577275   -1.034283    1.933319
     14          6           0        2.823634   -2.074798   -0.617978
     15          1           0        3.569121   -2.021025   -1.417409
     16          6           0        1.566756   -2.694817   -1.240529
     17          1           0        1.286929   -2.097124   -2.117198
     18          1           0        1.844061   -3.673606   -1.644419
     19          1           0        3.240269   -2.764300    0.123646
     20          1           0        0.525391   -3.607049    0.427502
     21          6           0        1.610774    0.195652   -0.667965
     22          1           0        1.905336    0.318508   -1.721729
     23         14           0        1.616284    2.030789   -0.120978
     24          6           0        0.476143    2.378345    1.330708
     25          1           0        0.811162    1.887485    2.246528
     26          1           0        0.445170    3.453855    1.527738
     27          1           0       -0.546477    2.048332    1.130628
     28          6           0        1.074691    3.106802   -1.567705
     29          1           0        1.190269    4.161984   -1.304777
     30          1           0        1.687907    2.919893   -2.453239
     31          1           0        0.031130    2.953498   -1.845860
     32          6           0        3.373703    2.548258    0.309695
     33          1           0        4.050965    2.385916   -0.532946
     34          1           0        3.395116    3.615473    0.547223
     35          1           0        3.776810    2.010588    1.169413
     36          5           0        0.169055   -0.397737   -0.681975
     37          6           0       -2.079815   -0.613886   -2.038192
     38          6           0       -3.215753   -0.637021   -1.333110
     39          6           0       -0.854460    0.177983   -1.766870
     40          6           0       -3.439390    0.165798   -0.124781
     41          8           0       -2.641433    0.896527    0.418860
     42          8           0       -4.686956   -0.010240    0.348148
     43          6           0       -5.008460    0.716115    1.535178
     44          1           0       -6.033669    0.447163    1.775541
     45          1           0       -4.337424    0.435850    2.347256
     46          1           0       -4.924407    1.788877    1.361110
     47          1           0       -4.039952   -1.268762   -1.637192
     48          1           0       -0.514604   -2.110040    2.335604
     49          1           0       -0.182632   -0.412696    2.100637
     50          1           0       -1.136595    1.143845   -1.335566
     51          1           0       -0.327112    0.384281   -2.701851
     52          1           0       -2.042967   -1.268006   -2.906163
 ---------------------------------------------------------------------

 SCF Done:  E(RHF) =  -1129.54572320     A.U. after    2 cycles

 The electronic state is 1-A.
 Alpha  occ. eigenvalues --  -76.17499 -21.08601 -21.03666 -11.54801 -11.47413
 Alpha  occ. eigenvalues --  -11.46589 -11.45270 -11.44598 -11.41985 -11.41543
 Alpha  occ. eigenvalues --  -11.41425 -11.40370 -11.38460 -11.37583 -11.36903
 Alpha  occ. eigenvalues --  -11.35412 -11.34826 -11.34397 -11.33988 -11.33618
 Alpha  occ. eigenvalues --   -7.60581  -5.51662  -2.16442  -2.15703  -2.15675
 Alpha  occ. eigenvalues --   -1.84368  -1.65630  -1.33430  -1.23748  -1.18550
 Alpha  occ. eigenvalues --   -1.17010  -1.11099  -1.06327  -1.04272  -1.00008
 Alpha  occ. eigenvalues --   -0.99847  -0.99379  -0.97652  -0.93630  -0.86836
 Alpha  occ. eigenvalues --   -0.83250  -0.82663  -0.74460  -0.72702  -0.69151
 Alpha  occ. eigenvalues --   -0.67594  -0.65673  -0.64253  -0.63395  -0.63004
 Alpha  occ. eigenvalues --   -0.62523  -0.60984  -0.58977  -0.58005  -0.57132
 Alpha  occ. eigenvalues --   -0.56871  -0.56537  -0.55987  -0.54725  -0.54427
 Alpha  occ. eigenvalues --   -0.53759  -0.53726  -0.52911  -0.52168  -0.51878
 Alpha  occ. eigenvalues --   -0.50723  -0.50204  -0.49897  -0.47297  -0.45658
 Alpha  occ. eigenvalues --   -0.44593  -0.43003  -0.41541  -0.41156  -0.40545
 Alpha  occ. eigenvalues --   -0.38959  -0.38362  -0.37108  -0.36961  -0.35751
 Alpha  occ. eigenvalues --   -0.32430  -0.31844  -0.31082  -0.28962
 Alpha virt. eigenvalues --    0.03883   0.04330   0.04566   0.04699   0.04925
 Alpha virt. eigenvalues --    0.05312   0.05416   0.05623   0.05713   0.05830
 Alpha virt. eigenvalues --    0.05879   0.06092   0.06302   0.06578   0.06786

 Mulliken charges:
               1
     1  C   -3.868347
     2  C   -3.265676
     3  C   -0.964107
     4  H    1.379284
     5  C   -4.943781
     6  H    1.627707
     7  H    1.443787
     8  C   -3.045946
     9  H    1.416078
    10  H    1.465715
    11  C   -4.719007
    12  H    1.585943
    13  H    1.296862
    14  C   -3.986776
    15  H    1.119762
    16  C   -4.555580
    17  H    0.826981
    18  H    1.597850
    19  H    1.365261
    20  H    1.369162
    21  C   -9.194544
    22  H    1.143015
    23  Si  14.580137
    24  C   -7.018030
    25  H    0.936072
    26  H    1.044665
    27  H    1.621436
    28  C   -6.748810
    29  H    0.978262
    30  H    0.692832
    31  H    1.210461
    32  C   -7.102041
    33  H    1.031437
    34  H    0.940335
    35  H    0.976116
    36  B   22.348301
    37  C   -1.442849
    38  C   -3.844616
    39  C   -5.701363
    40  C    6.639636
    41  O   -3.198913
    42  O   -4.058417
    43  C   -3.677697
    44  H    1.364787
    45  H    1.437047
    46  H    1.460764
    47  H    1.906403
    48  H    1.348653
    49  H    1.246276
    50  H    0.780145
    51  H   -0.158358
    52  H    1.313686
 Sum of Mulliken charges =  -0.00000

 Dipole moment (field-independent basis, Debye):
    X=             -0.1128    Y=             -0.5379    Z=             -0.0893  Tot=              0.5568

 Test job not archived.
 1\1\GINC-SE329\SP\RHF\Aug-CC-pVDZ\C17H31B1O2Si1\OHZDE\09-Apr-2025\0\\#
 t hf aug-cc-pvdz iop(5/13=1,5/36=2,99/5=2) pseudo=read geom=check gues
 s=(read,tcheck) scf=(maxcycle=1)\\title\\0,1\C,0,0.322445,-2.872942,-0
 .358443\C,0,-0.252025,-1.572739,0.276385\C,0,2.695845,-0.667203,0.0204
 63\H,0,-0.451653,-3.320028,-0.988516\C,0,0.110365,-1.412687,1.76586\H,
 0,3.65317,-0.17245,-0.16904\H,0,-1.338087,-1.672116,0.252102\C,0,1.560
 04,-1.678036,2.152277\H,0,1.640938,-1.62245,3.242586\H,0,1.821425,-2.7
 08755,1.896297\C,0,2.594407,-0.732795,1.5545\H,0,2.423613,0.272322,1.9

 Normal termination of Gaussian 16 at Wed Apr  9 02:37:08 2025.
