 Gaussian 16, Revision C.01,

 ----------------------------------------------------------------------
 #t hf aug-cc-pvdz symm=none int=(grid=ultrafine) guess=(read,tcheck) s
 table=(opt,rrhf)
 ----------------------------------------------------------------------
 -----
 title
 -----
 Symbolic Z-matrix:
 Charge =  0 Multiplicity = 1

 SCF Done:  E(RHF) =  -1087.17984028     A.U. after   15 cycles
 Normal termination of Gaussian 16 at Wed Apr  9 01:00:41 2025.
 Gaussian 16:  ES64L-G16RevC.01  3-Jul-2019

 ----------------------------------------------------------------------
 #t hf aug-cc-pvdz iop(5/13=1,5/36=2,99/5=2) pseudo=read geom=check gue
 ss=(read,tcheck) scf=(maxcycle=1)
 ----------------------------------------------------------------------
 -----
 title
 -----
 Structure from the checkpoint file:  "BH10_172_reverse_mol3.chk"
 Charge =  0 Multiplicity = 1

                         Standard orientation:
 ---------------------------------------------------------------------
 Center     Atomic      Atomic             Coordinates (Angstroms)
 Number     Number       Type             X           Y           Z
 ---------------------------------------------------------------------
      1          6           0        1.392626    0.000993   -0.000254
      2          6           0        0.706547    1.203472   -0.002816
      3          6           0       -0.679594    1.199832   -0.007145
      4          6           0       -1.381727   -0.001272    0.005564
      5          6           0       -0.676549   -1.201534    0.010568
      6          6           0        0.708770   -1.203402    0.004210
      7         16           0       -3.156021   -0.078807   -0.018036
      8          1           0        1.251133    2.138280   -0.007590
      9          1           0       -1.209127    2.144470   -0.020720
     10          1           0       -1.209832   -2.144260    0.025794
     11          1           0        1.255226   -2.137056    0.008471
     12         17           0        3.138984    0.002952   -0.000913
     13          1           0       -3.374229    1.220754    0.237376
 ---------------------------------------------------------------------

 SCF Done:  E(RHF) =  -1088.74882602     A.U. after    2 cycles

 The electronic state is 1-A.
 Alpha  occ. eigenvalues --  -99.89723 -75.70884 -13.18352 -13.15634 -13.02940
 Alpha  occ. eigenvalues --  -11.52882 -11.46297 -11.45564 -11.44985 -11.42812
 Alpha  occ. eigenvalues --  -11.38794 -10.47106  -9.67139  -9.66221  -9.66050
 Alpha  occ. eigenvalues --   -8.04909  -1.41838  -1.30541  -1.16863  -1.11965
 Alpha  occ. eigenvalues --   -1.03651  -0.90092  -0.85499  -0.72305  -0.66784
 Alpha  occ. eigenvalues --   -0.63346  -0.60451  -0.58107  -0.57804  -0.52628
 Alpha  occ. eigenvalues --   -0.51294  -0.48687  -0.46437  -0.40171  -0.37973
 Alpha  occ. eigenvalues --   -0.35413  -0.23678
 Alpha virt. eigenvalues --    0.02699   0.04210   0.05084   0.05787   0.06605
 Alpha virt. eigenvalues --    0.08673   0.08929   0.09493   0.09971   0.10428
 Alpha virt. eigenvalues --    0.11479   0.11999   0.12512   0.13012   0.13809

 Mulliken charges:
               1
     1  C   -2.190249
     2  C   -1.359011
     3  C   -0.975208
     4  C    1.424462
     5  C   -1.913556
     6  C   -1.510151
     7  S   -0.918771
     8  H    1.779329
     9  H    1.845939
    10  H    1.821581
    11  H    1.811429
    12  Cl  -0.843834
    13  H    1.028041
 Sum of Mulliken charges =  -0.00000

 Dipole moment (field-independent basis, Debye):
    X=             -2.8767    Y=             -0.8632    Z=             -0.1742  Tot=              3.0084

 Test job not archived.
 1\1\GINC-SE072\SP\RHF\Aug-CC-pVDZ\C6H5Cl1S1\OHZDE\09-Apr-2025\0\\#t hf
  aug-cc-pvdz iop(5/13=1,5/36=2,99/5=2) pseudo=read geom=check guess=(r
 ead,tcheck) scf=(maxcycle=1)\\title\\0,1\C,0,1.392626,0.000993,-0.0002
 54\C,0,0.706547,1.203472,-0.002816\C,0,-0.679594,1.199832,-0.007145\C,
 0,-1.381727,-0.001272,0.005564\C,0,-0.676549,-1.201534,0.010568\C,0,0.
 70877,-1.203402,0.00421\S,0,-3.156021,-0.078807,-0.018036\H,0,1.251133
 ,2.13828,-0.00759\H,0,-1.209127,2.14447,-0.02072\H,0,-1.209832,-2.1442
 6,0.025794\H,0,1.255226,-2.137056,0.008471\Cl,0,3.138984,0.002952,-0.0

 Normal termination of Gaussian 16 at Wed Apr  9 01:00:46 2025.
