 Gaussian 16, Revision C.01,

 ----------------------------------------------------------------------
 #t hf aug-cc-pvdz symm=none int=(grid=ultrafine) guess=(read,tcheck) s
 table=opt
 ----------------------------------------------------------------------
 -----
 title
 -----
 Symbolic Z-matrix:
 Charge =  0 Multiplicity = 2

 SCF Done:  E(UHF) =  -709.194759039     A.U. after   19 cycles

 1\1\GINC-SE102\Stability\UHF\Aug-CC-pVDZ\C8H15S1\OHZDE\09-Apr-2025\0\\
 #t hf aug-cc-pvdz symm=none int=(grid=ultrafine) guess=(read,tcheck) s
 table=opt\\title\\0,2\C,0,0.041261,-0.194698,0.578741\C,0,-0.133108,1.
 272496,0.978692\C,0,-1.059886,1.884148,-0.080339\H,0,0.811322,1.806531
 ,1.089211\H,0,-0.618008,1.288399,1.96079\C,0,-1.896109,0.704195,-0.625
 885\H,0,-0.473406,2.331289,-0.88364\H,0,-1.681344,2.674406,0.343293\C,
 0,-1.407952,-0.553383,0.118568\H,0,-1.735045,0.584453,-1.69835\H,0,-2.
 967509,0.846401,-0.476927\C,0,-1.564762,-1.822846,-0.629641\S,0,1.1202

 Normal termination of Gaussian 16 at Wed Apr  9 01:00:04 2025.
 Gaussian 16:  ES64L-G16RevC.01  3-Jul-2019

 ----------------------------------------------------------------------
 #t hf aug-cc-pvdz iop(5/13=1,5/36=2,99/5=2) pseudo=read geom=check gue
 ss=(read,tcheck) scf=(maxcycle=1)
 ----------------------------------------------------------------------
 -----
 title
 -----
 Structure from the checkpoint file:  "BH10-RE_27_mol1.chk"
 Charge =  0 Multiplicity = 2

                         Standard orientation:
 ---------------------------------------------------------------------
 Center     Atomic      Atomic             Coordinates (Angstroms)
 Number     Number       Type             X           Y           Z
 ---------------------------------------------------------------------
      1          6           0        0.041261   -0.194698    0.578741
      2          6           0       -0.133108    1.272496    0.978692
      3          6           0       -1.059886    1.884148   -0.080339
      4          1           0        0.811322    1.806531    1.089211
      5          1           0       -0.618008    1.288399    1.960790
      6          6           0       -1.896109    0.704195   -0.625885
      7          1           0       -0.473405    2.331289   -0.883640
      8          1           0       -1.681343    2.674406    0.343293
      9          6           0       -1.407952   -0.553383    0.118568
     10          1           0       -1.735045    0.584453   -1.698350
     11          1           0       -2.967509    0.846402   -0.476927
     12          6           0       -1.564762   -1.822846   -0.629641
     13         16           0        1.120252   -0.381627   -0.912289
     14          6           0        0.534313   -1.081715    1.710406
     15          1           0        1.533227   -0.791628    2.041902
     16          1           0        0.573600   -2.126102    1.398825
     17          1           0       -0.135387   -0.998631    2.571822
     18          6           0        2.644614    0.445526   -0.391838
     19          1           0        2.511795    1.521218   -0.282377
     20          1           0        3.370162    0.267608   -1.185001
     21          1           0        3.038919    0.023928    0.532336
     22          1           0       -1.553914   -2.776240   -0.117458
     23          1           0       -1.584217   -1.829007   -1.711858
     24          1           0       -1.964458   -0.638937    1.061827
 ---------------------------------------------------------------------

 SCF Done:  E(UHF) =  -711.018579238     A.U. after    2 cycles

 The electronic state is 2-A.
 Alpha  occ. eigenvalues --  -75.66001 -13.13577 -13.10103 -13.05226 -11.48332
 Alpha  occ. eigenvalues --  -11.45182 -11.40394 -11.39592 -11.38930 -11.37918
 Alpha  occ. eigenvalues --  -11.37075 -11.34088  -8.00135  -1.37884  -1.17735
 Alpha  occ. eigenvalues --   -1.11040  -1.09357  -0.97846  -0.95027  -0.90860
 Alpha  occ. eigenvalues --   -0.81474  -0.74614  -0.66021  -0.64207  -0.60925
 Alpha  occ. eigenvalues --   -0.60134  -0.58655  -0.58186  -0.56284  -0.53951
 Alpha  occ. eigenvalues --   -0.51645  -0.46910  -0.45514  -0.44942  -0.42936
 Alpha  occ. eigenvalues --   -0.42350  -0.40350  -0.33354  -0.29780  -0.21632
 Alpha virt. eigenvalues --    0.03859   0.04504   0.05223   0.05276   0.05639
 Alpha virt. eigenvalues --    0.05735   0.05959   0.06091   0.06598   0.07923
 Alpha virt. eigenvalues --    0.08375   0.08490   0.08766   0.09097   0.10039

  Beta  occ. eigenvalues --  -75.65999 -13.13588 -13.10106 -13.05214 -11.48409
  Beta  occ. eigenvalues --  -11.45070 -11.40281 -11.39326 -11.38927 -11.37429
  Beta  occ. eigenvalues --  -11.36003 -11.33879  -8.00130  -1.37339  -1.17541
  Beta  occ. eigenvalues --   -1.09491  -1.08316  -0.97194  -0.93659  -0.87940
  Beta  occ. eigenvalues --   -0.80857  -0.73835  -0.65712  -0.63941  -0.60166
  Beta  occ. eigenvalues --   -0.60001  -0.58398  -0.57717  -0.56173  -0.53613
  Beta  occ. eigenvalues --   -0.51092  -0.45482  -0.45365  -0.44389  -0.42732
  Beta  occ. eigenvalues --   -0.41991  -0.38822  -0.32833  -0.21814
  Beta virt. eigenvalues --    0.03864   0.04560   0.05167   0.05276   0.05598
  Beta virt. eigenvalues --    0.05773   0.05967   0.05984   0.06558   0.07903
  Beta virt. eigenvalues --    0.08321   0.08479   0.08769   0.09088   0.10030

 Mulliken charges and spin densities:
               1          2
     1  C    5.774799  -0.043764
     2  C   -4.356714   0.012137
     3  C   -3.150479  -0.002201
     4  H    1.406139   0.005805
     5  H    1.339934   0.002299
     6  C   -3.743235   0.037611
     7  H    1.469223  -0.001188
     8  H    1.283524  -0.000399
     9  C   -0.479005  -0.425047
    10  H    1.519908  -0.009287
    11  H    1.281085  -0.004019
    12  C   -4.110312   1.507244
    13  S    0.048234   0.026662
    14  C   -5.708348   0.000297
    15  H    1.341503   0.005513
    16  H    1.404607   0.003414
    17  H    1.243145  -0.001023
    18  C   -5.171988   0.005356
    19  H    1.559562   0.001076
    20  H    1.261452   0.000580
    21  H    1.514896  -0.000735
    22  H    1.343769  -0.056074
    23  H    1.420400  -0.060157
    24  H    1.507902  -0.004101
 Sum of Mulliken charges =   0.00000   1.00000

 Dipole moment (field-independent basis, Debye):
    X=             -0.0006    Y=              0.0034    Z=             -0.2251  Tot=              0.2251
                          Isotropic Fermi Contact Couplings
        Atom                 a.u.       MegaHertz       Gauss      10(-4) cm-1
     1  C(13)              0.04347      48.86998      17.43802      16.30127
     2  C(13)             -0.00290      -3.25528      -1.16157      -1.08585
     3  C(13)             -0.00146      -1.63778      -0.58440      -0.54630
     4  H(1)               0.00089       3.96466       1.41469       1.32247
     5  H(1)              -0.00001      -0.05064      -0.01807      -0.01689
     6  C(13)              0.00787       8.84661       3.15669       2.95091
     7  H(1)               0.00003       0.11250       0.04014       0.03753
     8  H(1)               0.00003       0.15566       0.05554       0.05192

 Normal termination of Gaussian 16 at Wed Apr  9 01:00:22 2025.
