 Gaussian 16, Revision C.01,

 ----------------------------------------------------------------------
 #t hf aug-cc-pvdz symm=none int=(grid=ultrafine) guess=(read,tcheck) s
 table=(opt,rrhf)
 ----------------------------------------------------------------------
 -----
 title
 -----
 Symbolic Z-matrix:
 Charge =  0 Multiplicity = 1

 SCF Done:  E(RHF) =  -857.025003874     A.U. after   16 cycles
 Normal termination of Gaussian 16 at Wed Apr  9 02:04:53 2025.
 Gaussian 16:  ES64L-G16RevC.01  3-Jul-2019

 ----------------------------------------------------------------------
 #t hf aug-cc-pvdz iop(5/13=1,5/36=2,99/5=2) pseudo=read geom=check gue
 ss=(read,tcheck) scf=(maxcycle=1)
 ----------------------------------------------------------------------
 -----
 title
 -----
 Structure from the checkpoint file:  "BH10_413_forward_mol1.chk"
 Charge =  0 Multiplicity = 1

                         Standard orientation:
 ---------------------------------------------------------------------
 Center     Atomic      Atomic             Coordinates (Angstroms)
 Number     Number       Type             X           Y           Z
 ---------------------------------------------------------------------
      1         16           0       -1.487164   -0.027807    0.117394
      2          6           0       -0.661079   -1.401508   -0.787652
      3          6           0        0.544624   -2.085203   -0.112238
      4          6           0        1.490629   -1.027353    0.353401
      5          6           0        1.530142    1.063353   -0.399592
      6          6           0        0.517544    2.073265    0.042720
      7          6           0       -0.860178    1.604970   -0.431734
      8          6           0        2.811755   -0.689543    0.048022
      9          6           0        2.819900    0.720267    0.016906
     10          1           0        1.192147    0.513398   -1.266513
     11          1           0        1.049523   -0.456585    1.155410
     12          8           0       -1.225618   -0.168211    1.547975
     13          8           0       -2.860599   -0.048511   -0.381383
     14          1           0       -1.494688   -2.092671   -0.919310
     15          1           0       -0.405722   -0.998325   -1.768115
     16          1           0        0.987578   -2.767526   -0.841505
     17          1           0        0.181139   -2.673911    0.733738
     18          1           0        0.688453    3.067245   -0.388131
     19          1           0        0.525050    2.189502    1.128218
     20          1           0       -0.924465    1.577275   -1.521063
     21          1           0       -1.662824    2.249526   -0.069929
     22          1           0        3.606972   -1.378000   -0.217446
     23          1           0        3.581171    1.399272    0.384597
 ---------------------------------------------------------------------

 SCF Done:  E(RHF) =  -859.478099025     A.U. after    2 cycles

 The electronic state is 1-A.
 Alpha  occ. eigenvalues --  -75.87624 -21.03636 -21.03246 -13.49544 -13.40453
 Alpha  occ. eigenvalues --  -13.35286 -11.49044 -11.48059 -11.46524 -11.44369
 Alpha  occ. eigenvalues --  -11.43807 -11.41648 -11.40618 -11.37845  -8.22500
 Alpha  occ. eigenvalues --   -1.81512  -1.63908  -1.34750  -1.22950  -1.20139
 Alpha  occ. eigenvalues --   -1.04016  -1.02607  -0.89944  -0.88069  -0.82415
 Alpha  occ. eigenvalues --   -0.77293  -0.68898  -0.67916  -0.64599  -0.63287
 Alpha  occ. eigenvalues --   -0.62020  -0.58955  -0.57098  -0.55977  -0.52114
 Alpha  occ. eigenvalues --   -0.51620  -0.51313  -0.48987  -0.47083  -0.42105
 Alpha  occ. eigenvalues --   -0.38119  -0.36940  -0.34544  -0.34234  -0.31837
 Alpha  occ. eigenvalues --   -0.31264
 Alpha virt. eigenvalues --    0.03541   0.04272   0.04719   0.04989   0.05038
 Alpha virt. eigenvalues --    0.05639   0.05708   0.06501   0.07247   0.07724
 Alpha virt. eigenvalues --    0.08111   0.08587   0.10524   0.11121   0.11364

 Mulliken charges:
               1
     1  S    7.183890
     2  C   -3.906330
     3  C   -2.986243
     4  C   -0.459629
     5  C   -0.017285
     6  C   -3.344840
     7  C   -4.027620
     8  C   -2.404013
     9  C   -1.792668
    10  H    1.967482
    11  H    2.299110
    12  O   -2.765596
    13  O   -2.782984
    14  H    1.480097
    15  H    1.579023
    16  H    1.202931
    17  H    1.134965
    18  H    1.153655
    19  H    1.198639
    20  H    1.405139
    21  H    1.531761
    22  H    1.151247
    23  H    1.199268
 Sum of Mulliken charges =  -0.00000

 Dipole moment (field-independent basis, Debye):
    X=              1.5787    Y=              0.2020    Z=             -1.0013  Tot=              1.8803

 Test job not archived.
 1\1\GINC-SE435\SP\RHF\Aug-CC-pVDZ\C8H12O2S1\OHZDE\09-Apr-2025\0\\#t hf
  aug-cc-pvdz iop(5/13=1,5/36=2,99/5=2) pseudo=read geom=check guess=(r
 ead,tcheck) scf=(maxcycle=1)\\title\\0,1\S,0,-1.487164,-0.027807,0.117
 394\C,0,-0.661079,-1.401508,-0.787652\C,0,0.544624,-2.085203,-0.112238
 \C,0,1.490629,-1.027353,0.353401\C,0,1.530142,1.063353,-0.399592\C,0,0
 .517544,2.073265,0.04272\C,0,-0.860178,1.60497,-0.431734\C,0,2.811755,
 -0.689543,0.048022\C,0,2.8199,0.720267,0.016906\H,0,1.192147,0.513398,
 -1.266513\H,0,1.049523,-0.456585,1.15541\O,0,-1.225618,-0.168211,1.547

 Normal termination of Gaussian 16 at Wed Apr  9 02:05:11 2025.
