 Gaussian 16, Revision C.01,

 ----------------------------------------------------------------------
 #t hf aug-cc-pvdz symm=none int=(grid=ultrafine) guess=(read,tcheck) s
 table=(opt,rrhf)
 ----------------------------------------------------------------------
 -----
 title
 -----
 Symbolic Z-matrix:
 Charge =  0 Multiplicity = 1

 SCF Done:  E(RHF) =  -753.552597151     A.U. after   17 cycles
 Normal termination of Gaussian 16 at Wed Apr  9 02:31:03 2025.
 Gaussian 16:  ES64L-G16RevC.01  3-Jul-2019

 ----------------------------------------------------------------------
 #t hf aug-cc-pvdz iop(5/13=1,5/36=2,99/5=2) pseudo=read geom=check gue
 ss=(read,tcheck) scf=(maxcycle=1)
 ----------------------------------------------------------------------
 -----
 title
 -----
 Structure from the checkpoint file:  "BH10_94_forward_mol1.chk"
 Charge =  0 Multiplicity = 1

                         Standard orientation:
 ---------------------------------------------------------------------
 Center     Atomic      Atomic             Coordinates (Angstroms)
 Number     Number       Type             X           Y           Z
 ---------------------------------------------------------------------
      1          6           0        4.018719   -2.394676    0.635736
      2          8           0        2.673351   -1.963711    0.468977
      3          1           0        4.444776   -2.697738   -0.322668
      4          6           0       -0.157264   -0.423823    0.489712
      5          6           0        0.945025   -0.253527   -0.345344
      6          6           0       -1.511629   -0.687853   -0.007828
      7          6           0       -1.948124   -0.265210   -1.268665
      8          6           0       -2.421136   -1.378028    0.798892
      9          6           0       -3.240939   -0.515894   -1.695830
     10          6           0       -3.713901   -1.635863    0.368492
     11          6           0        2.987374    1.317062   -0.982765
     12          6           0       -4.133621   -1.203600   -0.881296
     13          6           0        1.731844    1.625839   -0.222671
     14          6           0        0.682617    2.423296   -0.651408
     15          6           0       -0.490229    2.483381    0.105587
     16          6           0       -0.653816    1.797070    1.287654
     17          6           0       -1.962991    1.747830    2.007881
     18          8           0        3.422330    0.014449   -0.574192
     19          5           0        2.399657   -0.781441   -0.122009
     20          1           0        0.705247   -0.205981   -1.408009
     21          1           0        0.025886   -0.755394    1.506997
     22          1           0       -1.273811    0.281613   -1.915599
     23          1           0       -2.100639   -1.725335    1.774985
     24          1           0       -3.556716   -0.172682   -2.674257
     25          1           0       -4.395768   -2.178377    1.012872
     26          1           0        3.796785    2.012888   -0.752763
     27          1           0        2.818644    1.327738   -2.063841
     28          1           0       -5.142748   -1.402746   -1.220511
     29          1           0        1.889194    1.568522    0.850366
     30          1           0        0.216686    1.563837    1.886396
     31          1           0       -2.094872    0.800347    2.533624
     32          1           0       -2.800794    1.861213    1.317966
     33          1           0       -2.024744    2.544525    2.756874
     34          1           0        4.004957   -3.249265    1.310330
     35          1           0        4.636476   -1.599887    1.057201
     36          1           0        0.666121    2.786928   -1.674345
     37          1           0       -1.369992    2.925080   -0.352733
 ---------------------------------------------------------------------

 SCF Done:  E(RHF) =  -757.170035301     A.U. after    2 cycles

 The electronic state is 1-A.
 Alpha  occ. eigenvalues --  -21.02521 -21.02072 -11.51553 -11.49214 -11.48125
 Alpha  occ. eigenvalues --  -11.46721 -11.43272 -11.42838 -11.42454 -11.41555
 Alpha  occ. eigenvalues --  -11.40402 -11.39881 -11.39846 -11.38867 -11.38275
 Alpha  occ. eigenvalues --  -11.36325 -11.35186  -7.64598  -1.85034  -1.70176
 Alpha  occ. eigenvalues --   -1.35284  -1.27705  -1.16966  -1.14623  -1.08346
 Alpha  occ. eigenvalues --   -1.06268  -1.04137  -0.99334  -0.93237  -0.89471
 Alpha  occ. eigenvalues --   -0.85599  -0.84500  -0.80628  -0.75346  -0.70433
 Alpha  occ. eigenvalues --   -0.69397  -0.66857  -0.65797  -0.63297  -0.62986
 Alpha  occ. eigenvalues --   -0.60812  -0.60415  -0.57673  -0.57252  -0.56885
 Alpha  occ. eigenvalues --   -0.56567  -0.55352  -0.53301  -0.52634  -0.50993
 Alpha  occ. eigenvalues --   -0.50759  -0.49201  -0.47964  -0.46255  -0.45496
 Alpha  occ. eigenvalues --   -0.43410  -0.42882  -0.41841  -0.40870  -0.35238
 Alpha  occ. eigenvalues --   -0.33253  -0.32958  -0.32566  -0.30524  -0.23737
 Alpha virt. eigenvalues --    0.03611   0.03937   0.04203   0.04740   0.05021
 Alpha virt. eigenvalues --    0.05381   0.05898   0.06137   0.06252   0.06424
 Alpha virt. eigenvalues --    0.06715   0.06902   0.07208   0.07684   0.08118

 Mulliken charges:
               1
     1  C   -3.033483
     2  O   -6.763859
     3  H    1.397002
     4  C   -3.029974
     5  C    0.480418
     6  C    6.726684
     7  C   -1.231799
     8  C   -3.955142
     9  C   -3.189312
    10  C   -2.098235
    11  C   -1.546632
    12  C   -3.477124
    13  C   -0.979621
    14  C   -2.694656
    15  C   -1.499482
    16  C   -0.224339
    17  C   -6.217703
    18  O   -5.711205
    19  B    8.176702
    20  H    1.538667
    21  H    1.945955
    22  H    2.440720
    23  H    1.873990
    24  H    1.541478
    25  H    1.558715
    26  H    1.298743
    27  H    1.607982
    28  H    1.584986
    29  H    1.260019
    30  H    2.058575
    31  H    1.493983
    32  H    1.572631
    33  H    0.956102
    34  H    1.360974
    35  H    1.388218
    36  H    1.651451
    37  H    1.738570
 Sum of Mulliken charges =  -0.00000

 Dipole moment (field-independent basis, Debye):
    X=              0.9797    Y=              0.5053    Z=              0.1135  Tot=              1.1082

 Test job not archived.
 1\1\GINC-SE071\SP\RHF\Aug-CC-pVDZ\C15H19B1O2\OHZDE\09-Apr-2025\0\\#t h
 f aug-cc-pvdz iop(5/13=1,5/36=2,99/5=2) pseudo=read geom=check guess=(
 read,tcheck) scf=(maxcycle=1)\\title\\0,1\C,0,4.018719,-2.394676,0.635
 736\O,0,2.673351,-1.963711,0.468977\H,0,4.444776,-2.697738,-0.322668\C
 ,0,-0.157264,-0.423823,0.489712\C,0,0.945025,-0.253527,-0.345344\C,0,-
 1.511629,-0.687853,-0.007828\C,0,-1.948124,-0.26521,-1.268665\C,0,-2.4
 21136,-1.378028,0.798892\C,0,-3.240939,-0.515894,-1.69583\C,0,-3.71390
 1,-1.635863,0.368492\C,0,2.987374,1.317062,-0.982765\C,0,-4.133621,-1.

 Normal termination of Gaussian 16 at Wed Apr  9 02:32:10 2025.
