 Gaussian 16, Revision C.01,

 ----------------------------------------------------------------------
 #t hf aug-cc-pvdz symm=none int=(grid=ultrafine) guess=(read,tcheck) s
 table=opt
 ----------------------------------------------------------------------
 -----
 title
 -----
 Symbolic Z-matrix:
 Charge =  0 Multiplicity = 2

 SCF Done:  E(UHF) =  -952.905571443     A.U. after   21 cycles

 1\1\GINC-SE109\Stability\UHF\Aug-CC-pVDZ\C4H11S2\OHZDE\09-Apr-2025\0\\
 #t hf aug-cc-pvdz symm=none int=(grid=ultrafine) guess=(read,tcheck) s
 table=opt\\title\\0,2\C,0,2.316335,-1.0086,0.918821\S,0,1.99838,-0.392
 977,-0.754658\H,0,1.047008,0.785462,-0.31735\S,0,-0.087162,1.691052,0.
 27863\C,0,-1.476974,0.698971,-0.342192\C,0,-1.706753,-0.614725,0.39068
 6\C,0,-2.927841,-1.356484,-0.142916\H,0,-1.335716,0.533526,-1.411781\H
 ,0,-2.346278,1.35542,-0.237609\H,0,-1.821033,-0.413091,1.458853\H,0,-0
 .81828,-1.241312,0.27859\H,0,-2.815888,-1.589016,-1.204935\H,0,-3.8366

 Normal termination of Gaussian 16 at Wed Apr  9 00:58:39 2025.
 Gaussian 16:  ES64L-G16RevC.01  3-Jul-2019

 ----------------------------------------------------------------------
 #t hf aug-cc-pvdz iop(5/13=1,5/36=2,99/5=2) pseudo=read geom=check gue
 ss=(read,tcheck) scf=(maxcycle=1)
 ----------------------------------------------------------------------
 -----
 title
 -----
 Structure from the checkpoint file:  "BH10_143_forward_mol1.chk"
 Charge =  0 Multiplicity = 2

                         Standard orientation:
 ---------------------------------------------------------------------
 Center     Atomic      Atomic             Coordinates (Angstroms)
 Number     Number       Type             X           Y           Z
 ---------------------------------------------------------------------
      1          6           0        2.316335   -1.008600    0.918821
      2         16           0        1.998380   -0.392977   -0.754658
      3          1           0        1.047008    0.785462   -0.317350
      4         16           0       -0.087162    1.691052    0.278630
      5          6           0       -1.476974    0.698971   -0.342192
      6          6           0       -1.706753   -0.614725    0.390686
      7          6           0       -2.927841   -1.356484   -0.142916
      8          1           0       -1.335716    0.533526   -1.411781
      9          1           0       -2.346278    1.355420   -0.237609
     10          1           0       -1.821033   -0.413091    1.458853
     11          1           0       -0.818280   -1.241312    0.278590
     12          1           0       -2.815888   -1.589016   -1.204935
     13          1           0       -3.836692   -0.760252   -0.026394
     14          1           0       -3.078201   -2.298086    0.388420
     15          1           0        2.763149   -0.238507    1.544286
     16          1           0        3.026366   -1.830601    0.815602
     17          1           0        1.407481   -1.387719    1.382378
 ---------------------------------------------------------------------

 SCF Done:  E(UHF) =  -954.189543151     A.U. after    2 cycles

 The electronic state is 2-A.
 Alpha  occ. eigenvalues --  -75.70048 -75.69606 -13.13781 -13.12201 -13.11490
 Alpha  occ. eigenvalues --  -13.09251 -13.04350 -13.03701 -11.42771 -11.40154
 Alpha  occ. eigenvalues --  -11.39820 -11.35829  -8.03699  -8.03334  -1.26675
 Alpha  occ. eigenvalues --   -1.19413  -1.11035  -0.95902  -0.93256  -0.84334
 Alpha  occ. eigenvalues --   -0.66184  -0.61260  -0.59275  -0.58720  -0.56612
 Alpha  occ. eigenvalues --   -0.54207  -0.51829  -0.47974  -0.47400  -0.42170
 Alpha  occ. eigenvalues --   -0.38568  -0.25006  -0.23824  -0.20971
 Alpha virt. eigenvalues --    0.03057   0.03475   0.05011   0.05230   0.05840
 Alpha virt. eigenvalues --    0.06263   0.06646   0.07044   0.07788   0.08681
 Alpha virt. eigenvalues --    0.09050   0.11141   0.12327   0.12956   0.13166

  Beta  occ. eigenvalues --  -75.69374 -75.68942 -13.13190 -13.09962 -13.08099
  Beta  occ. eigenvalues --  -13.06665 -13.03774 -13.03286 -11.42806 -11.40208
  Beta  occ. eigenvalues --  -11.39840 -11.35834  -8.02954  -8.02607  -1.25491
  Beta  occ. eigenvalues --   -1.16636  -1.08560  -0.94442  -0.90089  -0.83640
  Beta  occ. eigenvalues --   -0.65752  -0.60398  -0.59118  -0.58567  -0.56196
  Beta  occ. eigenvalues --   -0.54065  -0.51347  -0.47942  -0.47291  -0.41460
  Beta  occ. eigenvalues --   -0.37868  -0.24254  -0.23056
  Beta virt. eigenvalues --    0.02717   0.03487   0.04113   0.05098   0.05846
  Beta virt. eigenvalues --    0.06085   0.06365   0.06803   0.07446   0.07892
  Beta virt. eigenvalues --    0.08895   0.09593   0.11740   0.12497   0.13236

 Mulliken charges and spin densities:
               1          2
     1  C   -4.679600  -0.083873
     2  S   -0.478899   0.725443
     3  H    1.864509  -0.317433
     4  S   -0.502266   0.702415
     5  C   -3.520305  -0.063845
     6  C   -3.065698  -0.011330
     7  C   -3.720123   0.004069
     8  H    1.411741   0.013490
     9  H    1.496242   0.007607
    10  H    1.556464  -0.004188
    11  H    1.654664   0.003850
    12  H    1.276731  -0.001489
    13  H    1.292063   0.000711
    14  H    1.223341  -0.000592
    15  H    1.317742   0.009427
    16  H    1.351842   0.007416
    17  H    1.521551   0.008321
 Sum of Mulliken charges =  -0.00000   1.00000

 Dipole moment (field-independent basis, Debye):
    X=             -0.1817    Y=             -0.1416    Z=             -0.0059  Tot=              0.2305
                          Isotropic Fermi Contact Couplings
        Atom                 a.u.       MegaHertz       Gauss      10(-4) cm-1
     1  C(13)             -0.00595      -6.68401      -2.38502      -2.22954
     2  S(33)              0.14162      48.64214      17.35673      16.22527
     3  H(1)              -0.05608    -250.67714     -89.44784     -83.61689
     4  S(33)              0.11488      39.45742      14.07939      13.16158
     5  C(13)             -0.00675      -7.58772      -2.70749      -2.53099
     6  C(13)              0.00046       0.51264       0.18292       0.17100
     7  C(13)             -0.00049      -0.55109      -0.19664      -0.18382
     8  H(1)               0.00229      10.23497       3.65209       3.41402

 Normal termination of Gaussian 16 at Wed Apr  9 00:58:46 2025.
