 Gaussian 16, Revision C.01,

 ----------------------------------------------------------------------
 #t hf aug-cc-pvdz symm=none int=(grid=ultrafine) guess=(read,tcheck) s
 table=(opt,rrhf)
 ----------------------------------------------------------------------
 -----
 title
 -----
 Symbolic Z-matrix:
 Charge = -1 Multiplicity = 1

 SCF Done:  E(RHF) =  -1399.57937199     A.U. after   15 cycles
 Normal termination of Gaussian 16 at Wed Apr  9 01:50:48 2025.
 Gaussian 16:  ES64L-G16RevC.01  3-Jul-2019

 ----------------------------------------------------------------------
 #t hf aug-cc-pvdz iop(5/13=1,5/36=2,99/5=2) pseudo=read geom=check gue
 ss=(read,tcheck) scf=(maxcycle=1)
 ----------------------------------------------------------------------
 -----
 title
 -----
 Structure from the checkpoint file:  "BH10_314_forward_mol1.chk"
 Charge = -1 Multiplicity = 1

                         Standard orientation:
 ---------------------------------------------------------------------
 Center     Atomic      Atomic             Coordinates (Angstroms)
 Number     Number       Type             X           Y           Z
 ---------------------------------------------------------------------
      1          6           0       -1.135946    0.929262    0.299092
      2          6           0       -2.471279    0.185214    0.232725
      3          6           0       -2.191636   -1.238412    0.722038
      4          1           0       -3.160607    0.668733    0.927694
      5          6           0       -1.022685   -1.890133   -0.027472
      6          6           0        0.087685   -1.054690   -0.332315
      7          8           0       -0.207697    0.353973   -0.565767
      8          6           0       -1.246893    2.402360   -0.119373
      9          6           0        1.128728   -1.479783   -1.309273
     10          1           0        0.950771   -0.851869    0.825036
     11          8           0        2.495166   -1.218626   -0.885764
     12          1           0        0.995254   -0.971806   -2.269768
     13          1           0        1.062175   -2.556688   -1.447817
     14         15           0        2.904092   -0.090802    0.195536
     15          8           0        4.323481   -0.170104    0.558456
     16          8           0        1.818014   -0.271356    1.328121
     17          8           0        2.567192    1.323448   -0.510588
     18          1           0        1.615255    1.469781   -0.627455
     19          8           0       -1.082923   -3.111491   -0.208076
     20          8           0       -3.327959   -2.062769    0.609425
     21          1           0       -1.878460   -1.179681    1.770239
     22          1           0       -2.961986   -2.922715    0.339163
     23          8           0       -2.242766    3.069935   -0.074476
     24          8           0       -0.050811    2.905977   -0.471013
     25          1           0       -0.164535    3.852929   -0.626705
     26          8           0       -0.686996    0.955141    1.636130
     27          1           0        0.280904    0.825471    1.651491
     28          6           0       -3.063550    0.192223   -1.172364
     29          1           0       -3.957756   -0.429516   -1.188108
     30          1           0       -3.332255    1.202977   -1.479904
     31          1           0       -2.354304   -0.214853   -1.896848
 ---------------------------------------------------------------------

 SCF Done:  E(RHF) =  -1404.33225201     A.U. after    2 cycles

 The electronic state is 1-A.
 Alpha  occ. eigenvalues -- -105.17541 -21.04459 -20.97597 -20.97211 -20.96292
 Alpha  occ. eigenvalues --  -20.95844 -20.95696 -20.93729 -20.91824 -20.91531
 Alpha  occ. eigenvalues --  -20.87690 -11.47952 -11.43892 -11.42574 -11.38187
 Alpha  occ. eigenvalues --  -11.36417 -11.33034 -11.29596 -11.28368  -2.80547
 Alpha  occ. eigenvalues --   -1.85233  -1.77869  -1.76395  -1.75767  -1.71150
 Alpha  occ. eigenvalues --   -1.63292  -1.59684  -1.58655  -1.57654  -1.55321
 Alpha  occ. eigenvalues --   -1.28900  -1.24178  -1.12713  -1.10465  -1.02862
 Alpha  occ. eigenvalues --   -0.92499  -0.89813  -0.81564  -0.76574  -0.69977
 Alpha  occ. eigenvalues --   -0.63259  -0.59610  -0.58520  -0.58247  -0.55323
 Alpha  occ. eigenvalues --   -0.54349  -0.52617  -0.51514  -0.49377  -0.47150
 Alpha  occ. eigenvalues --   -0.45752  -0.44836  -0.44102  -0.42330  -0.40332
 Alpha  occ. eigenvalues --   -0.39613  -0.38752  -0.37051  -0.35757  -0.34977
 Alpha  occ. eigenvalues --   -0.32296  -0.30773  -0.28847  -0.28518  -0.27491
 Alpha  occ. eigenvalues --   -0.26127  -0.25921  -0.23411  -0.23051  -0.22215
 Alpha  occ. eigenvalues --   -0.21557  -0.20241  -0.19562  -0.16745  -0.12769
 Alpha  occ. eigenvalues --   -0.12044  -0.10476  -0.01617
 Alpha virt. eigenvalues --    0.11535   0.12201   0.12508   0.12884   0.13723
 Alpha virt. eigenvalues --    0.14172   0.14822   0.15713   0.15926   0.16831
 Alpha virt. eigenvalues --    0.17154   0.18019   0.19058   0.19348   0.20014

 Mulliken charges:
               1
     1  C    5.915254
     2  C   -3.165438
     3  C    1.813357
     4  H    1.605461
     5  C    3.811581
     6  C    0.787824
     7  O   -4.962285
     8  C    8.303000
     9  C   -2.033031
    10  H    3.015153
    11  O   -3.532917
    12  H    1.499941
    13  H    1.461999
    14  P    8.691902
    15  O   -3.158385
    16  O   -3.446112
    17  O   -3.210322
    18  H    1.640937
    19  O   -4.201782
    20  O   -3.457368
    21  H    1.335196
    22  H    0.509364
    23  O   -3.691691
    24  O   -3.551530
    25  H    1.049629
    26  O   -4.085862
    27  H    0.914734
    28  C   -4.851320
    29  H    1.243067
    30  H    1.288178
    31  H    1.461466
 Sum of Mulliken charges =  -1.00000

 Dipole moment (field-independent basis, Debye):
    X=             -5.0580    Y=              3.1925    Z=             -1.9913  Tot=              6.3040

 Test job not archived.
 1\1\GINC-SE435\SP\RHF\Aug-CC-pVDZ\C8H12O10P1(1-)\OHZDE\09-Apr-2025\0\\
 #t hf aug-cc-pvdz iop(5/13=1,5/36=2,99/5=2) pseudo=read geom=check gue
 ss=(read,tcheck) scf=(maxcycle=1)\\title\\-1,1\C,0,-1.135946,0.929262,
 0.299092\C,0,-2.471279,0.185214,0.232725\C,0,-2.191636,-1.238412,0.722
 038\H,0,-3.160607,0.668733,0.927694\C,0,-1.022685,-1.890133,-0.027472\
 C,0,0.087685,-1.05469,-0.332315\O,0,-0.207697,0.353973,-0.565767\C,0,-
 1.246893,2.40236,-0.119373\C,0,1.128728,-1.479783,-1.309273\H,0,0.9507
 71,-0.851869,0.825036\O,0,2.495166,-1.218626,-0.885764\H,0,0.995254,-0

 Normal termination of Gaussian 16 at Wed Apr  9 01:51:43 2025.
