 Gaussian 16, Revision C.01,

 ----------------------------------------------------------------------
 #t hf aug-cc-pvdz symm=none int=(grid=ultrafine) guess=(read,tcheck) s
 table=(opt,rrhf)
 ----------------------------------------------------------------------
 -----
 title
 -----
 Symbolic Z-matrix:
 Charge = -1 Multiplicity = 1

 SCF Done:  E(RHF) =  -1399.58946343     A.U. after   15 cycles
 Normal termination of Gaussian 16 at Wed Apr  9 01:49:09 2025.
 Gaussian 16:  ES64L-G16RevC.01  3-Jul-2019

 ----------------------------------------------------------------------
 #t hf aug-cc-pvdz iop(5/13=1,5/36=2,99/5=2) pseudo=read geom=check gue
 ss=(read,tcheck) scf=(maxcycle=1)
 ----------------------------------------------------------------------
 -----
 title
 -----
 Structure from the checkpoint file:  "BH10_314_forward_mol2.chk"
 Charge = -1 Multiplicity = 1

                         Standard orientation:
 ---------------------------------------------------------------------
 Center     Atomic      Atomic             Coordinates (Angstroms)
 Number     Number       Type             X           Y           Z
 ---------------------------------------------------------------------
      1          6           0       -1.175336    0.923045    0.305232
      2          6           0       -2.479117    0.133318    0.220054
      3          6           0       -2.158359   -1.274306    0.727687
      4          1           0       -3.196517    0.604216    0.895221
      5          6           0       -0.963366   -1.891896   -0.014587
      6          6           0        0.032577   -1.039002   -0.455006
      7          8           0       -0.196058    0.389911   -0.529249
      8          6           0       -1.325552    2.392456   -0.113964
      9          6           0        1.135098   -1.434595   -1.335409
     10          1           0        1.182265   -0.788488    1.160750
     11          8           0        2.504400   -1.274163   -0.785061
     12          1           0        1.137639   -0.864663   -2.269451
     13          1           0        1.054510   -2.498709   -1.537873
     14         15           0        2.928342   -0.057423    0.149233
     15          8           0        4.351362   -0.029189    0.492641
     16          8           0        1.927724   -0.188443    1.413142
     17          8           0        2.458587    1.284552   -0.593169
     18          1           0        1.490099    1.350549   -0.680298
     19          8           0       -0.980086   -3.144049   -0.125224
     20          8           0       -3.258567   -2.143621    0.588887
     21          1           0       -1.879856   -1.202612    1.784362
     22          1           0       -2.828008   -2.983354    0.333830
     23          8           0       -2.347774    3.019319   -0.131006
     24          8           0       -0.130027    2.945871   -0.388587
     25          1           0       -0.275684    3.883820   -0.569787
     26          8           0       -0.754115    0.955380    1.656111
     27          1           0        0.213395    1.019309    1.676066
     28          6           0       -3.043143    0.112304   -1.197008
     29          1           0       -3.909286   -0.547571   -1.222584
     30          1           0       -3.348363    1.109520   -1.514448
     31          1           0       -2.305699   -0.273145   -1.904153
 ---------------------------------------------------------------------

 SCF Done:  E(RHF) =  -1404.33177504     A.U. after    2 cycles

 The electronic state is 1-A.
 Alpha  occ. eigenvalues -- -105.19637 -21.04640 -20.98274 -20.97863 -20.97774
 Alpha  occ. eigenvalues --  -20.97597 -20.96296 -20.95027 -20.93795 -20.89557
 Alpha  occ. eigenvalues --  -20.86958 -11.47839 -11.43777 -11.39894 -11.37373
 Alpha  occ. eigenvalues --  -11.35538 -11.32163 -11.28925 -11.27536  -2.82694
 Alpha  occ. eigenvalues --   -1.87180  -1.79849  -1.77775  -1.77483  -1.71317
 Alpha  occ. eigenvalues --   -1.61910  -1.61118  -1.59464  -1.57920  -1.51317
 Alpha  occ. eigenvalues --   -1.29933  -1.28263  -1.12650  -1.12006  -1.02057
 Alpha  occ. eigenvalues --   -0.91519  -0.89887  -0.81156  -0.75977  -0.69612
 Alpha  occ. eigenvalues --   -0.61864  -0.59278  -0.58216  -0.57648  -0.54653
 Alpha  occ. eigenvalues --   -0.53521  -0.52611  -0.51126  -0.49198  -0.47393
 Alpha  occ. eigenvalues --   -0.46431  -0.44730  -0.43714  -0.42816  -0.40228
 Alpha  occ. eigenvalues --   -0.39727  -0.38441  -0.37711  -0.36760  -0.34315
 Alpha  occ. eigenvalues --   -0.32128  -0.30921  -0.29747  -0.28857  -0.27172
 Alpha  occ. eigenvalues --   -0.26176  -0.25998  -0.24500  -0.24241  -0.23609
 Alpha  occ. eigenvalues --   -0.22732  -0.20573  -0.19194  -0.14980  -0.14359
 Alpha  occ. eigenvalues --   -0.12845  -0.09095  -0.03413
 Alpha virt. eigenvalues --    0.11380   0.12416   0.12502   0.13088   0.14037
 Alpha virt. eigenvalues --    0.14280   0.15348   0.15554   0.16021   0.16539
 Alpha virt. eigenvalues --    0.17039   0.17745   0.18861   0.19357   0.19693

 Mulliken charges:
               1
     1  C    6.108285
     2  C   -3.314639
     3  C    1.563212
     4  H    1.644640
     5  C    4.538384
     6  C    2.422875
     7  O   -5.547291
     8  C    8.335861
     9  C   -2.697345
    10  H    1.911751
    11  O   -3.444013
    12  H    1.413184
    13  H    1.473044
    14  P    8.645212
    15  O   -3.155838
    16  O   -3.375939
    17  O   -3.287617
    18  H    1.881896
    19  O   -4.280028
    20  O   -3.372508
    21  H    1.289336
    22  H    0.496205
    23  O   -3.659414
    24  O   -3.462602
    25  H    1.039841
    26  O   -4.252963
    27  H    0.916847
    28  C   -4.794256
    29  H    1.255063
    30  H    1.288731
    31  H    1.420084
 Sum of Mulliken charges =  -1.00000

 Dipole moment (field-independent basis, Debye):
    X=             -3.2337    Y=              4.4016    Z=             -1.3998  Tot=              5.6382

 Test job not archived.
 1\1\GINC-SE364\SP\RHF\Aug-CC-pVDZ\C8H12O10P1(1-)\OHZDE\09-Apr-2025\0\\
 #t hf aug-cc-pvdz iop(5/13=1,5/36=2,99/5=2) pseudo=read geom=check gue
 ss=(read,tcheck) scf=(maxcycle=1)\\title\\-1,1\C,0,-1.175336,0.923045,
 0.305232\C,0,-2.479117,0.133318,0.220054\C,0,-2.158359,-1.274306,0.727
 687\H,0,-3.196517,0.604216,0.895221\C,0,-0.963366,-1.891896,-0.014587\
 C,0,0.032577,-1.039002,-0.455006\O,0,-0.196058,0.389911,-0.529249\C,0,
 -1.325552,2.392456,-0.113964\C,0,1.135098,-1.434595,-1.335409\H,0,1.18
 2265,-0.788488,1.16075\O,0,2.5044,-1.274163,-0.785061\H,0,1.137639,-0.

 Normal termination of Gaussian 16 at Wed Apr  9 01:50:05 2025.
