 Gaussian 16, Revision C.01,

 ----------------------------------------------------------------------
 #t hf aug-cc-pvdz symm=none int=(grid=ultrafine) guess=(read,tcheck) s
 table=(opt,rrhf)
 ----------------------------------------------------------------------
 -----
 title
 -----
 Symbolic Z-matrix:
 Charge =  0 Multiplicity = 1

 SCF Done:  E(RHF) =  -782.662735839     A.U. after   13 cycles
 Normal termination of Gaussian 16 at Wed Apr  9 01:33:53 2025.
 Gaussian 16:  ES64L-G16RevC.01  3-Jul-2019

 ----------------------------------------------------------------------
 #t hf aug-cc-pvdz iop(5/13=1,5/36=2,99/5=2) pseudo=read geom=check gue
 ss=(read,tcheck) scf=(maxcycle=1)
 ----------------------------------------------------------------------
 -----
 title
 -----
 Structure from the checkpoint file:  "BH10_296_forward_mol2.chk"
 Charge =  0 Multiplicity = 1

                         Standard orientation:
 ---------------------------------------------------------------------
 Center     Atomic      Atomic             Coordinates (Angstroms)
 Number     Number       Type             X           Y           Z
 ---------------------------------------------------------------------
      1          6           0       -2.846573   -0.378033   -1.046103
      2          6           0       -1.689592    0.602844   -1.395594
      3          6           0       -0.447243   -0.689659    1.153509
      4          1           0       -3.311834   -0.708297   -1.978334
      5          6           0       -1.652218    1.833503   -0.461037
      6          1           0       -0.737010    2.406695   -0.646071
      7          1           0       -2.477284    2.495013   -0.748157
      8          1           0        0.163173   -1.174540    1.921928
      9          1           0       -1.895884    0.995284   -2.395199
     10          1           0        0.150691   -0.478964   -2.497344
     11          6           0       -1.782586    1.561863    1.034348
     12          1           0       -1.831691    2.525491    1.551356
     13          1           0       -2.744740    1.081091    1.230740
     14          6           0       -0.671646    0.739411    1.679014
     15          1           0        0.267132    1.298157    1.618958
     16          1           0       -0.899561    0.662995    2.747723
     17          6           0       -1.765778   -1.503198    1.087369
     18          1           0       -1.558221   -2.519485    1.436220
     19          6           0       -2.448339   -1.647363   -0.278891
     20          1           0       -1.800431   -2.250581   -0.925807
     21          1           0       -3.348317   -2.253671   -0.135539
     22          1           0       -2.476483   -1.087190    1.809106
     23          1           0       -3.629232    0.157954   -0.499743
     24          6           0        0.345176   -0.758860   -0.167207
     25          1           0        0.590660   -1.811232   -0.384904
     26         14           0        2.125498   -0.065482   -0.115067
     27          6           0        2.219639    1.765311   -0.543677
     28          1           0        1.682665    2.392609    0.170091
     29          1           0        3.262023    2.095720   -0.553645
     30          1           0        1.806330    1.962684   -1.536660
     31          6           0        3.148534   -1.010136   -1.375323
     32          1           0        4.176199   -0.638039   -1.398819
     33          1           0        3.187907   -2.076062   -1.136722
     34          1           0        2.734617   -0.909404   -2.380841
     35          6           0        2.859120   -0.340073    1.593335
     36          1           0        2.834873   -1.397803    1.867620
     37          1           0        3.903881   -0.017994    1.610805
     38          1           0        2.328300    0.216714    2.368036
     39          5           0       -0.349141   -0.220810   -1.436462
 ---------------------------------------------------------------------

 SCF Done:  E(RHF) =  -785.392821051     A.U. after    2 cycles

 The electronic state is 1-A.
 Alpha  occ. eigenvalues --  -76.18010 -11.46392 -11.44778 -11.44131 -11.41601
 Alpha  occ. eigenvalues --  -11.41234 -11.37466 -11.36732 -11.35275 -11.34847
 Alpha  occ. eigenvalues --  -11.34121 -11.33848 -11.33277  -7.59272  -5.52184
 Alpha  occ. eigenvalues --   -2.16827  -2.16109  -2.16049  -1.33305  -1.18922
 Alpha  occ. eigenvalues --   -1.17121  -1.10275  -1.05830  -1.00699  -1.00215
 Alpha  occ. eigenvalues --   -0.97902  -0.93798  -0.86514  -0.83208  -0.74525
 Alpha  occ. eigenvalues --   -0.69620  -0.66663  -0.64826  -0.63158  -0.61119
 Alpha  occ. eigenvalues --   -0.59454  -0.57947  -0.57369  -0.56735  -0.55979
 Alpha  occ. eigenvalues --   -0.55473  -0.54567  -0.54134  -0.53103  -0.52726
 Alpha  occ. eigenvalues --   -0.51956  -0.47873  -0.46130  -0.44789  -0.43279
 Alpha  occ. eigenvalues --   -0.41883  -0.40979  -0.39427  -0.39148  -0.37677
 Alpha  occ. eigenvalues --   -0.36528  -0.35225  -0.32288
 Alpha virt. eigenvalues --    0.03584   0.04286   0.04576   0.04677   0.05130
 Alpha virt. eigenvalues --    0.05292   0.05657   0.05766   0.06140   0.06447
 Alpha virt. eigenvalues --    0.06530   0.06604   0.07095   0.07208   0.07348

 Mulliken charges:
               1
     1  C   -3.301464
     2  C   -1.642467
     3  C    0.635391
     4  H    1.128993
     5  C   -5.070888
     6  H    1.111694
     7  H    1.212482
     8  H    1.792922
     9  H    1.927903
    10  H   -8.329729
    11  C   -2.745538
    12  H    1.361145
    13  H    1.597549
    14  C   -4.565822
    15  H    1.600111
    16  H    1.211362
    17  C   -4.454998
    18  H    1.095215
    19  C   -3.175238
    20  H    1.147112
    21  H    1.430717
    22  H    1.379123
    23  H    1.333928
    24  C   -5.172363
    25  H    2.247715
    26  Si  14.856905
    27  C   -6.706919
    28  H    1.058785
    29  H    1.119094
    30  H    1.194780
    31  C   -6.619149
    32  H    1.029249
    33  H    0.863474
    34  H    1.023521
    35  C   -6.966256
    36  H    0.987356
    37  H    0.889995
    38  H    1.020582
    39  B   12.493726
 Sum of Mulliken charges =   0.00000

 Dipole moment (field-independent basis, Debye):
    X=             -0.2479    Y=             -0.0748    Z=              0.7067  Tot=              0.7526

 Test job not archived.
 1\1\GINC-SE123\SP\RHF\Aug-CC-pVDZ\C12H25B1Si1\OHZDE\09-Apr-2025\0\\#t
 hf aug-cc-pvdz iop(5/13=1,5/36=2,99/5=2) pseudo=read geom=check guess=
 (read,tcheck) scf=(maxcycle=1)\\title\\0,1\C,0,-2.846573,-0.378033,-1.
 046103\C,0,-1.689592,0.602844,-1.395594\C,0,-0.447243,-0.689659,1.1535
 09\H,0,-3.311834,-0.708297,-1.978334\C,0,-1.652218,1.833503,-0.461037\
 H,0,-0.73701,2.406695,-0.646071\H,0,-2.477284,2.495013,-0.748157\H,0,0
 .163173,-1.17454,1.921928\H,0,-1.895884,0.995284,-2.395199\H,0,0.15069
 1,-0.478964,-2.497344\C,0,-1.782586,1.561863,1.034348\H,0,-1.831691,2.

 Normal termination of Gaussian 16 at Wed Apr  9 01:34:59 2025.
