 Gaussian 16, Revision C.01,

 ----------------------------------------------------------------------
 #t hf aug-cc-pvdz symm=none int=(grid=ultrafine) guess=(read,tcheck) s
 table=opt
 ----------------------------------------------------------------------
 -----
 title
 -----
 Symbolic Z-matrix:
 Charge =  0 Multiplicity = 2

 SCF Done:  E(UHF) =  -1179.57302239     A.U. after   23 cycles
 Normal termination of Gaussian 16 at Wed Apr  9 01:04:02 2025.
 Gaussian 16:  ES64L-G16RevC.01  3-Jul-2019

 ----------------------------------------------------------------------
 #t hf aug-cc-pvdz iop(5/13=1,5/36=2,99/5=2) pseudo=read geom=check gue
 ss=(read,tcheck) scf=(maxcycle=1)
 ----------------------------------------------------------------------
 -----
 title
 -----
 Structure from the checkpoint file:  "BH10_163_forward_mol1.chk"
 Charge =  0 Multiplicity = 2

                         Standard orientation:
 ---------------------------------------------------------------------
 Center     Atomic      Atomic             Coordinates (Angstroms)
 Number     Number       Type             X           Y           Z
 ---------------------------------------------------------------------
      1          6           0       -3.004320    0.142878   -0.901164
      2         16           0       -2.451784   -1.204219    0.179547
      3          6           0       -0.637181   -1.092869   -0.007046
      4          6           0       -0.023472    0.139194    0.599017
      5          6           0       -0.223678    0.379372    2.069364
      6          6           0        0.046968    1.310895   -0.306924
      7          8           0        0.186615    2.479789    0.344314
      8          8           0        0.032753    1.246748   -1.513604
      9         16           0        2.817922   -0.587394    0.448067
     10          6           0        2.743281   -0.951640   -1.330480
     11          1           0       -2.805901    1.122272   -0.467422
     12          1           0       -2.532724    0.073699   -1.879983
     13          1           0       -4.081468    0.023595   -1.011736
     14          1           0       -0.068187   -0.547131    2.624409
     15          1           0       -1.245183    0.714457    2.266534
     16          1           0        0.460162    1.139817    2.442747
     17          1           0       -0.260199   -1.979800    0.504067
     18          1           0       -0.385717   -1.166937   -1.063602
     19          1           0        2.269007   -0.135349   -1.873181
     20          1           0        3.772519   -1.047497   -1.676791
     21          1           0        2.219414   -1.885621   -1.526330
     22          1           0        1.340963   -0.193517    0.563358
     23          1           0        0.294566    3.168535   -0.326168
 ---------------------------------------------------------------------

 SCF Done:  E(UHF) =  -1181.81952361     A.U. after    2 cycles

 The electronic state is 2-A.
 Alpha  occ. eigenvalues --  -75.68970 -75.68030 -21.13390 -21.06561 -13.14404
 Alpha  occ. eigenvalues --  -13.12953 -13.10591 -13.09964 -13.04750 -13.02511
 Alpha  occ. eigenvalues --  -11.56131 -11.47749 -11.42807 -11.39851 -11.39686
 Alpha  occ. eigenvalues --  -11.39552  -8.02627  -8.02081  -1.84775  -1.67086
 Alpha  occ. eigenvalues --   -1.30730  -1.19118  -1.16869  -1.03442  -0.97549
 Alpha  occ. eigenvalues --   -0.93455  -0.89064  -0.76516  -0.69786  -0.67339
 Alpha  occ. eigenvalues --   -0.63497  -0.59635  -0.59092  -0.58613  -0.58574
 Alpha  occ. eigenvalues --   -0.57035  -0.55619  -0.55269  -0.51735  -0.50589
 Alpha  occ. eigenvalues --   -0.45987  -0.44736  -0.41396  -0.37134  -0.36004
 Alpha  occ. eigenvalues --   -0.31547  -0.24108  -0.23967  -0.21635
 Alpha virt. eigenvalues --    0.03235   0.03678   0.04040   0.05060   0.05487
 Alpha virt. eigenvalues --    0.05663   0.05730   0.06427   0.07420   0.08439
 Alpha virt. eigenvalues --    0.09054   0.09222   0.09715   0.10338   0.11630

  Beta  occ. eigenvalues --  -75.68379 -75.67960 -21.13420 -21.06017 -13.12900
  Beta  occ. eigenvalues --  -13.11052 -13.09946 -13.09645 -13.04711 -13.02123
  Beta  occ. eigenvalues --  -11.56234 -11.46771 -11.42717 -11.39850 -11.39684
  Beta  occ. eigenvalues --  -11.39584  -8.02030  -8.01945  -1.84595  -1.66294
  Beta  occ. eigenvalues --   -1.28693  -1.17469  -1.14673  -1.03472  -0.96334
  Beta  occ. eigenvalues --   -0.91154  -0.88786  -0.74911  -0.67175  -0.65515
  Beta  occ. eigenvalues --   -0.63105  -0.59468  -0.58917  -0.58532  -0.57921
  Beta  occ. eigenvalues --   -0.56782  -0.55460  -0.54937  -0.51041  -0.49926
  Beta  occ. eigenvalues --   -0.45652  -0.44660  -0.40488  -0.36786  -0.34292
  Beta  occ. eigenvalues --   -0.30920  -0.23380  -0.22568
  Beta virt. eigenvalues --    0.03269   0.03659   0.03738   0.04779   0.05083
  Beta virt. eigenvalues --    0.05557   0.05726   0.06222   0.07360   0.07598
  Beta virt. eigenvalues --    0.08477   0.09070   0.09310   0.09919   0.10443

 Mulliken charges and spin densities:
               1          2
     1  C   -5.261138  -0.004645
     2  S    0.902710   0.068594
     3  C   -5.111657  -0.219597
     4  C    1.638450   1.509749
     5  C   -5.572175  -0.223227
     6  C    6.629250  -0.368876
     7  O   -3.652037   0.001248
     8  O   -3.412706   0.164418
     9  S   -0.238850   0.639597
    10  C   -5.178769  -0.073161
    11  H    1.537799   0.006196
    12  H    1.547311  -0.000772
    13  H    1.276217   0.000143
    14  H    1.106412   0.003593
    15  H    1.363002   0.031208
    16  H    1.213461   0.010348
    17  H    1.243372   0.011786
    18  H    1.302064   0.009228
    19  H    1.493955   0.010947
    20  H    1.237123   0.005672
    21  H    1.591917   0.000357
    22  H    3.481995  -0.582971
    23  H    0.862296   0.000165
 Sum of Mulliken charges =   0.00000   1.00000

 Dipole moment (field-independent basis, Debye):
    X=             -0.2654    Y=             -0.0099    Z=              1.0367  Tot=              1.0702
                          Isotropic Fermi Contact Couplings
        Atom                 a.u.       MegaHertz       Gauss      10(-4) cm-1
     1  C(13)             -0.00069      -0.77214      -0.27552      -0.25756
     2  S(33)              0.02274       7.80909       2.78648       2.60483
     3  C(13)             -0.02748     -30.89502     -11.02411     -10.30547
     4  C(13)              0.14056     158.01339      56.38311      52.70759
     5  C(13)             -0.02179     -24.49814      -8.74154      -8.17170
     6  C(13)             -0.03319     -37.31010     -13.31317     -12.44531
     7  O(17)             -0.00547       3.31369       1.18241       1.10533
     8  O(17)              0.03190     -19.33981      -6.90092      -6.45106

 Normal termination of Gaussian 16 at Wed Apr  9 01:04:19 2025.
