 Gaussian 16, Revision C.01,

 ----------------------------------------------------------------------
 #t hf aug-cc-pvdz symm=none int=(grid=ultrafine) guess=(read,tcheck) s
 table=(opt,rrhf)
 ----------------------------------------------------------------------
 -----
 title
 -----
 Symbolic Z-matrix:
 Charge =  0 Multiplicity = 1

 SCF Done:  E(RHF) =  -1015.52300461     A.U. after   18 cycles
 Normal termination of Gaussian 16 at Wed Apr  9 01:00:51 2025.
 Gaussian 16:  ES64L-G16RevC.01  3-Jul-2019

 ----------------------------------------------------------------------
 #t hf aug-cc-pvdz iop(5/13=1,5/36=2,99/5=2) pseudo=read geom=check gue
 ss=(read,tcheck) scf=(maxcycle=1)
 ----------------------------------------------------------------------
 -----
 title
 -----
 Structure from the checkpoint file:  "BH10-RE_376_mol2.chk"
 Charge =  0 Multiplicity = 1

                         Standard orientation:
 ---------------------------------------------------------------------
 Center     Atomic      Atomic             Coordinates (Angstroms)
 Number     Number       Type             X           Y           Z
 ---------------------------------------------------------------------
      1          7           0       -3.050770    0.811848   -0.079788
      2          7           0       -3.950974   -0.037483   -0.094663
      3          7           0       -4.884842   -0.653374   -0.114255
      4          6           0       -1.716727    0.420364   -0.018226
      5          6           0       -0.769933    1.439739    0.071104
      6          6           0       -1.239466   -0.887092   -0.045967
      7          6           0        0.579500    1.157434    0.125300
      8          6           0        0.111055   -1.163870    0.023379
      9          6           0        1.053248   -0.148679    0.104886
     10          9           0       -1.173252    2.706247    0.113049
     11          9           0        1.422969    2.180579    0.237759
     12          9           0        0.488692   -2.436566   -0.028829
     13          9           0       -2.109407   -1.899517   -0.151542
     14          6           0        2.507458   -0.477654    0.210445
     15          8           0        2.951016   -1.319220    0.939768
     16          8           0        3.234565    0.275728   -0.611171
     17          6           0        4.652971    0.069563   -0.553905
     18          1           0        4.894698   -0.958043   -0.822656
     19          1           0        5.075430    0.766782   -1.271266
     20          1           0        5.021683    0.276736    0.450068
 ---------------------------------------------------------------------

 SCF Done:  E(RHF) =  -1019.57094489     A.U. after    2 cycles

 The electronic state is 1-A.
 Alpha  occ. eigenvalues --  -29.32808 -29.32236 -29.32201 -29.31707 -21.11007
 Alpha  occ. eigenvalues --  -21.06887 -16.00299 -15.89837 -15.81782 -11.61333
 Alpha  occ. eigenvalues --  -11.56325 -11.56006 -11.53225 -11.52322 -11.50553
 Alpha  occ. eigenvalues --  -11.45449 -11.42831  -1.87027  -1.72482  -1.68576
 Alpha  occ. eigenvalues --   -1.50072  -1.40090  -1.29182  -1.22616  -1.09013
 Alpha  occ. eigenvalues --   -1.07614  -1.02346  -0.91368  -0.90399  -0.79567
 Alpha  occ. eigenvalues --   -0.78281  -0.75776  -0.73029  -0.72385  -0.70841
 Alpha  occ. eigenvalues --   -0.67262  -0.66308  -0.66068  -0.64325  -0.62322
 Alpha  occ. eigenvalues --   -0.58702  -0.56652  -0.55800  -0.53999  -0.50210
 Alpha  occ. eigenvalues --   -0.46961  -0.44957  -0.44325  -0.43034  -0.41575
 Alpha  occ. eigenvalues --   -0.41391  -0.40472  -0.39714  -0.35824  -0.33396
 Alpha  occ. eigenvalues --   -0.31232  -0.30665  -0.29885  -0.29347  -0.27483
 Alpha  occ. eigenvalues --   -0.25609  -0.18967
 Alpha virt. eigenvalues --    0.03829   0.05823   0.06205   0.06808   0.08534
 Alpha virt. eigenvalues --    0.08699   0.09496   0.09730   0.10161   0.11147
 Alpha virt. eigenvalues --    0.11262   0.11938   0.12050   0.12521   0.12645

 Mulliken charges:
               1
     1  N   -2.641635
     2  N    2.529884
     3  N   -1.671616
     4  C   -4.995886
     5  C    1.034447
     6  C    0.852171
     7  C    3.458322
     8  C    2.781540
     9  C   -4.904412
    10  F    1.066086
    11  F    1.076347
    12  F    1.160029
    13  F    1.079590
    14  C    4.461863
    15  O   -3.126815
    16  O   -3.066136
    17  C   -3.116774
    18  H    1.320226
    19  H    1.369482
    20  H    1.333288
 Sum of Mulliken charges =   0.00000

 Dipole moment (field-independent basis, Debye):
    X=              1.0179    Y=              0.3721    Z=             -0.8283  Tot=              1.3640

 Test job not archived.
 1\1\GINC-SE249\SP\RHF\Aug-CC-pVDZ\C8H3F4N3O2\OHZDE\09-Apr-2025\0\\#t h
 f aug-cc-pvdz iop(5/13=1,5/36=2,99/5=2) pseudo=read geom=check guess=(
 read,tcheck) scf=(maxcycle=1)\\title\\0,1\N,0,-3.05077,0.811848,-0.079
 788\N,0,-3.950974,-0.037483,-0.094663\N,0,-4.884842,-0.653374,-0.11425
 5\C,0,-1.716727,0.420364,-0.018226\C,0,-0.769933,1.439739,0.071104\C,0
 ,-1.239466,-0.887092,-0.045967\C,0,0.5795,1.157434,0.1253\C,0,0.111055
 ,-1.16387,0.023379\C,0,1.053248,-0.148679,0.104886\F,0,-1.173252,2.706
 247,0.113049\F,0,1.422969,2.180579,0.237759\F,0,0.488692,-2.436566,-0.

 Normal termination of Gaussian 16 at Wed Apr  9 01:01:10 2025.
