 Gaussian 16, Revision C.01,

 ----------------------------------------------------------------------
 #t hf aug-cc-pvdz symm=none int=(grid=ultrafine) guess=(read,tcheck) s
 table=(opt,rrhf)
 ----------------------------------------------------------------------
 -----
 title
 -----
 Symbolic Z-matrix:
 Charge =  0 Multiplicity = 1

 SCF Done:  E(RHF) =  -1375.42388410     A.U. after   17 cycles
 Normal termination of Gaussian 16 at Wed Apr  9 03:26:43 2025.
 Gaussian 16:  ES64L-G16RevC.01  3-Jul-2019

 ----------------------------------------------------------------------
 #t hf aug-cc-pvdz iop(5/13=1,5/36=2,99/5=2) pseudo=read geom=check gue
 ss=(read,tcheck) scf=(maxcycle=1)
 ----------------------------------------------------------------------
 -----
 title
 -----
 Structure from the checkpoint file:  "BH10_395_forward_mol2.chk"
 Charge =  0 Multiplicity = 1

                         Standard orientation:
 ---------------------------------------------------------------------
 Center     Atomic      Atomic             Coordinates (Angstroms)
 Number     Number       Type             X           Y           Z
 ---------------------------------------------------------------------
      1          6           0        0.695059   -2.829518    1.049688
      2          7           0        1.656478   -2.080577    0.259680
      3          6           0       -0.620455   -2.091440    1.180080
      4          6           0        0.344572   -0.069065    0.075508
      5          1           0        0.497568    0.173524   -0.978521
      6          1           0        0.123442    0.872769    0.584127
      7          6           0       -1.972827   -0.846476   -0.492898
      8          6           0       -1.477795   -2.374312    2.156759
      9          6           0       -3.066456   -1.821045   -0.504203
     10          6           0       -4.305915   -1.616639   -0.948355
     11          6           0       -0.829613   -1.003095    0.204740
     12          6           0       -5.373163   -2.662723   -0.964445
     13          1           0       -5.015486   -3.609540   -0.555810
     14          1           0       -6.242927   -2.344788   -0.381610
     15          1           0       -5.728418   -2.844094   -1.983362
     16          1           0        1.087230   -3.044294    2.059302
     17          6           0        1.633762   -0.673441    0.644910
     18          1           0        0.521960   -3.790558    0.554876
     19         16           0       -2.174513    0.573443   -1.567594
     20          6           0        2.970627   -2.688853    0.290913
     21          6           0        2.843056    0.099873    0.164546
     22          1           0        1.611715   -0.593041    1.748190
     23          6           0        3.897511   -0.523271   -0.499675
     24          6           0        3.869384   -2.011357   -0.725444
     25          1           0        4.882743   -2.415775   -0.663048
     26          1           0        3.492409   -2.228470   -1.729527
     27          1           0        2.860348   -3.750013    0.054923
     28          1           0        3.422147   -2.624226    1.298218
     29          6           0        2.901851    1.474064    0.397577
     30          6           0        4.978911    0.242598   -0.932187
     31          6           0        5.024079    1.607770   -0.711336
     32          6           0        3.978683    2.226780   -0.036485
     33          1           0        4.005213    3.293022    0.153252
     34          1           0        2.090827    1.962254    0.925811
     35          1           0        5.799004   -0.248887   -1.445035
     36          1           0        5.873191    2.186726   -1.054052
     37          6           0       -2.022001    1.935534   -0.428467
     38          6           0       -2.601310    1.899900    0.836978
     39          6           0       -1.332582    3.071164   -0.839726
     40          6           0       -1.226195    4.165285    0.008635
     41          6           0       -1.788862    4.125020    1.275973
     42          6           0       -2.473293    2.987077    1.686809
     43          1           0       -0.864817    3.089456   -1.816614
     44          1           0       -0.686374    5.045426   -0.319705
     45          1           0       -3.141325    1.017189    1.155653
     46          1           0       -1.695349    4.974213    1.941642
     47          1           0       -2.919226    2.948948    2.673596
     48          1           0       -2.415416   -1.843535    2.256823
     49          1           0       -1.259522   -3.142932    2.890261
     50          1           0       -4.574216   -0.635941   -1.328840
     51          1           0       -2.810005   -2.801457   -0.116185
 ---------------------------------------------------------------------

 SCF Done:  E(RHF) =  -1380.44043970     A.U. after    2 cycles

 The electronic state is 1-A.
 Alpha  occ. eigenvalues --  -75.68143 -15.70368 -13.19001 -13.17273 -13.10624
 Alpha  occ. eigenvalues --  -11.52444 -11.52216 -11.51622 -11.50597 -11.47044
 Alpha  occ. eigenvalues --  -11.45907 -11.45451 -11.44865 -11.44692 -11.44091
 Alpha  occ. eigenvalues --  -11.43623 -11.43268 -11.41715 -11.41450 -11.41216
 Alpha  occ. eigenvalues --  -11.41076 -11.40734 -11.40491 -11.39719 -11.38774
 Alpha  occ. eigenvalues --  -11.38647 -11.37311 -11.36561 -11.35713  -8.02373
 Alpha  occ. eigenvalues --   -1.49791  -1.36772  -1.33784  -1.30245  -1.21673
 Alpha  occ. eigenvalues --   -1.18003  -1.16381  -1.15018  -1.09766  -1.09442
 Alpha  occ. eigenvalues --   -1.07346  -1.04603  -1.00796  -0.99260  -0.95299
 Alpha  occ. eigenvalues --   -0.90677  -0.87060  -0.86839  -0.85474  -0.84646
 Alpha  occ. eigenvalues --   -0.82585  -0.78189  -0.76635  -0.71684  -0.70356
 Alpha  occ. eigenvalues --   -0.69459  -0.67415  -0.66077  -0.64707  -0.63680
 Alpha  occ. eigenvalues --   -0.62072  -0.61433  -0.60327  -0.59325  -0.58699
 Alpha  occ. eigenvalues --   -0.58079  -0.57256  -0.56304  -0.56214  -0.55051
 Alpha  occ. eigenvalues --   -0.54651  -0.54255  -0.52921  -0.52303  -0.52234
 Alpha  occ. eigenvalues --   -0.50857  -0.50238  -0.48562  -0.47756  -0.47568
 Alpha  occ. eigenvalues --   -0.46420  -0.45168  -0.43901  -0.43349  -0.40167
 Alpha  occ. eigenvalues --   -0.39774  -0.38769  -0.36953  -0.35646  -0.33800
 Alpha  occ. eigenvalues --   -0.33449  -0.32446  -0.31524  -0.30051  -0.27880
 Alpha  occ. eigenvalues --   -0.21230
 Alpha virt. eigenvalues --    0.03611   0.04227   0.04276   0.04625   0.05050
 Alpha virt. eigenvalues --    0.05139   0.05346   0.05517   0.05593   0.05900
 Alpha virt. eigenvalues --    0.06199   0.06277   0.06615   0.06703   0.07156

 Mulliken charges:
               1
     1  C   -5.144604
     2  N   -2.509642
     3  C    3.143416
     4  C   -3.615624
     5  H    1.571403
     6  H    2.373322
     7  C    4.031383
     8  C   -6.844778
     9  C   -0.260766
    10  C   -2.532966
    11  C    3.552044
    12  C   -5.992760
    13  H    1.256599
    14  H    1.104173
    15  H    1.129244
    16  H    1.421990
    17  C   -5.480998
    18  H    1.594943
    19  S    0.343957
    20  C   -5.103080
    21  C    9.451605
    22  H    1.551462
    23  C    4.102621
    24  C   -6.093920
    25  H    0.976219
    26  H    0.958980
    27  H    1.567941
    28  H    1.779279
    29  C   -2.921978
    30  C   -3.211044
    31  C   -2.799859
    32  C   -3.190443
    33  H    1.681079
    34  H    2.081414
    35  H    1.861959
    36  H    1.602712
    37  C    4.095132
    38  C   -4.051926
    39  C   -4.450718
    40  C   -1.424231
    41  C   -2.943810
    42  C   -1.551288
    43  H    1.945768
    44  H    1.641594
    45  H    2.291139
    46  H    1.634717
    47  H    1.649002
    48  H    1.812126
    49  H    1.805250
    50  H    1.881778
    51  H    2.230185
 Sum of Mulliken charges =   0.00000

 Dipole moment (field-independent basis, Debye):
    X=              0.4292    Y=             -0.5163    Z=             -0.2367  Tot=              0.7119

 Test job not archived.
 1\1\GINC-SE082\SP\RHF\Aug-CC-pVDZ\C24H25N1S1\OHZDE\09-Apr-2025\0\\#t h
 f aug-cc-pvdz iop(5/13=1,5/36=2,99/5=2) pseudo=read geom=check guess=(
 read,tcheck) scf=(maxcycle=1)\\title\\0,1\C,0,0.695059,-2.829518,1.049
 688\N,0,1.656478,-2.080577,0.25968\C,0,-0.620455,-2.09144,1.18008\C,0,
 0.344572,-0.069065,0.075508\H,0,0.497568,0.173524,-0.978521\H,0,0.1234
 42,0.872769,0.584127\C,0,-1.972827,-0.846476,-0.492898\C,0,-1.477795,-
 2.374312,2.156759\C,0,-3.066456,-1.821045,-0.504203\C,0,-4.305915,-1.6
 16639,-0.948355\C,0,-0.829613,-1.003095,0.20474\C,0,-5.373163,-2.66272

 Normal termination of Gaussian 16 at Wed Apr  9 03:30:03 2025.
