 Gaussian 16, Revision C.01,

 ----------------------------------------------------------------------
 #t hf aug-cc-pvdz symm=none int=(grid=ultrafine) guess=(read,tcheck) s
 table=(opt,rrhf)
 ----------------------------------------------------------------------
 -----
 title
 -----
 Symbolic Z-matrix:
 Charge =  0 Multiplicity = 1

 SCF Done:  E(RHF) =  -899.995208510     A.U. after   15 cycles
 Normal termination of Gaussian 16 at Wed Apr  9 01:02:47 2025.
 Gaussian 16:  ES64L-G16RevC.01  3-Jul-2019

 ----------------------------------------------------------------------
 #t hf aug-cc-pvdz iop(5/13=1,5/36=2,99/5=2) pseudo=read geom=check gue
 ss=(read,tcheck) scf=(maxcycle=1)
 ----------------------------------------------------------------------
 -----
 title
 -----
 Structure from the checkpoint file:  "BH10_133_forward_mol2.chk"
 Charge =  0 Multiplicity = 1

                         Standard orientation:
 ---------------------------------------------------------------------
 Center     Atomic      Atomic             Coordinates (Angstroms)
 Number     Number       Type             X           Y           Z
 ---------------------------------------------------------------------
      1          6           0       -1.540973    0.000279    0.155954
      2          6           0       -0.739592    1.242859   -0.229513
      3          6           0       -0.674752   -1.247681   -0.012071
      4          6           0       -2.150325    0.104490    1.546039
      5          1           0       -2.795688    0.980398    1.615538
      6          1           0       -1.371396    0.196314    2.305276
      7          1           0       -2.744820   -0.781035    1.772599
      8          6           0        0.580774    1.317628    0.536571
      9          1           0       -1.333047    2.140444   -0.043330
     10          1           0       -0.521183    1.207521   -1.298661
     11          6           0        0.648276   -1.117418    0.745789
     12          1           0       -0.458814   -1.386100   -1.073566
     13          1           0       -1.219785   -2.128863    0.333628
     14          7           0        1.347001    0.094070    0.354796
     15          1           0        0.404852    1.475249    1.606436
     16          1           0        1.187051    2.143179    0.173534
     17          6           0        2.592129    0.151912   -0.207528
     18          1           0        1.266211   -1.987676    0.546237
     19          1           0        0.470202   -1.095844    1.827254
     20          8           0        3.097378    1.209916   -0.539141
     21          6           0        3.332724   -1.153614   -0.404903
     22          1           0        3.489623   -1.675997    0.540673
     23          1           0        4.297909   -0.913615   -0.842453
     24          1           0        2.794726   -1.823495   -1.078669
     25         17           0       -2.939026   -0.145825   -1.019821
 ---------------------------------------------------------------------

 SCF Done:  E(RHF) =  -902.371433646     A.U. after    2 cycles

 The electronic state is 1-A.
 Alpha  occ. eigenvalues --  -99.86914 -21.01548 -15.74374 -11.50914 -11.48837
 Alpha  occ. eigenvalues --  -11.48000 -11.45492 -11.41208 -11.40477 -11.39501
 Alpha  occ. eigenvalues --  -11.37604 -10.44234  -9.64317  -9.63535  -9.63527
 Alpha  occ. eigenvalues --   -1.70613  -1.47531  -1.34877  -1.19657  -1.16135
 Alpha  occ. eigenvalues --   -1.10465  -1.05179  -0.94842  -0.93617  -0.81818
 Alpha  occ. eigenvalues --   -0.74963  -0.69804  -0.67086  -0.65273  -0.64407
 Alpha  occ. eigenvalues --   -0.62955  -0.62072  -0.59336  -0.56797  -0.55537
 Alpha  occ. eigenvalues --   -0.54405  -0.53487  -0.51136  -0.50105  -0.49174
 Alpha  occ. eigenvalues --   -0.48485  -0.45917  -0.44921  -0.43298  -0.41762
 Alpha  occ. eigenvalues --   -0.29186  -0.28222
 Alpha virt. eigenvalues --    0.03321   0.04448   0.04491   0.05020   0.05285
 Alpha virt. eigenvalues --    0.05952   0.06367   0.06626   0.06908   0.07506
 Alpha virt. eigenvalues --    0.07954   0.08327   0.08683   0.09170   0.10101

 Mulliken charges:
               1
     1  C    1.654917
     2  C   -3.325342
     3  C   -3.098382
     4  C   -4.482415
     5  H    1.171629
     6  H    1.721795
     7  H    1.161303
     8  C   -2.834051
     9  H    1.385639
    10  H    1.407405
    11  C   -2.869710
    12  H    1.431649
    13  H    1.354117
    14  N   -2.282147
    15  H    1.500665
    16  H    1.557341
    17  C    5.900934
    18  H    1.726068
    19  H    1.565905
    20  O   -3.486312
    21  C   -4.568294
    22  H    1.303667
    23  H    1.095195
    24  H    1.287765
    25  Cl  -0.279342
 Sum of Mulliken charges =  -0.00000

 Dipole moment (field-independent basis, Debye):
    X=              0.7118    Y=             -1.3939    Z=              2.4834  Tot=              2.9355

 Test job not archived.
 1\1\GINC-SE009\SP\RHF\Aug-CC-pVDZ\C8H14Cl1N1O1\OHZDE\09-Apr-2025\0\\#t
  hf aug-cc-pvdz iop(5/13=1,5/36=2,99/5=2) pseudo=read geom=check guess
 =(read,tcheck) scf=(maxcycle=1)\\title\\0,1\C,0,-1.540973,0.000279,0.1
 55954\C,0,-0.739592,1.242859,-0.229513\C,0,-0.674752,-1.247681,-0.0120
 71\C,0,-2.150325,0.10449,1.546039\H,0,-2.795688,0.980398,1.615538\H,0,
 -1.371396,0.196314,2.305276\H,0,-2.74482,-0.781035,1.772599\C,0,0.5807
 74,1.317628,0.536571\H,0,-1.333047,2.140444,-0.04333\H,0,-0.521183,1.2
 07521,-1.298661\C,0,0.648276,-1.117418,0.745789\H,0,-0.458814,-1.3861,

 Normal termination of Gaussian 16 at Wed Apr  9 01:03:07 2025.
