 Gaussian 16, Revision C.01,

 ----------------------------------------------------------------------
 #t hf aug-cc-pvdz symm=none int=(grid=ultrafine) guess=(read,tcheck) s
 table=(opt,rrhf)
 ----------------------------------------------------------------------
 -----
 title
 -----
 Symbolic Z-matrix:
 Charge =  0 Multiplicity = 1

 SCF Done:  E(RHF) =  -806.769950196     A.U. after   16 cycles
 Normal termination of Gaussian 16 at Wed Apr  9 00:59:06 2025.
 Gaussian 16:  ES64L-G16RevC.01  3-Jul-2019

 ----------------------------------------------------------------------
 #t hf aug-cc-pvdz iop(5/13=1,5/36=2,99/5=2) pseudo=read geom=check gue
 ss=(read,tcheck) scf=(maxcycle=1)
 ----------------------------------------------------------------------
 -----
 title
 -----
 Structure from the checkpoint file:  "BH10_139_reverse_mol3.chk"
 Charge =  0 Multiplicity = 1

                         Standard orientation:
 ---------------------------------------------------------------------
 Center     Atomic      Atomic             Coordinates (Angstroms)
 Number     Number       Type             X           Y           Z
 ---------------------------------------------------------------------
      1         17           0       -2.016113   -0.928519   -0.875565
      2          6           0       -1.193310    0.295319    0.236868
      3          6           0        0.309892    0.134905    0.077056
      4          6           0       -1.626458   -0.037142    1.660290
      5          6           0       -1.722903    1.659502   -0.175187
      6          6           0        0.902493   -1.111219    0.285852
      7          6           0        1.132898    1.214417   -0.223414
      8          1           0       -1.324266   -1.043987    1.944029
      9          1           0       -2.709463    0.043481    1.759283
     10          1           0       -1.154825    0.667966    2.349236
     11          1           0       -1.452444    1.900565   -1.202697
     12          1           0       -1.326538    2.431879    0.487715
     13          1           0       -2.809319    1.669110   -0.094862
     14          6           0        2.273973   -1.271492    0.198308
     15          6           0        3.087575   -0.184455   -0.099415
     16          6           0        2.511900    1.056567   -0.310297
     17          1           0        0.710750    2.194750   -0.395117
     18          1           0        2.710895   -2.249942    0.357530
     19          1           0        4.161321   -0.308682   -0.169687
     20          1           0        3.133080    1.911982   -0.547147
     21          1           0        0.278373   -1.970705    0.495960
 ---------------------------------------------------------------------

 SCF Done:  E(RHF) =  -808.749799105     A.U. after    2 cycles

 The electronic state is 1-A.
 Alpha  occ. eigenvalues --  -99.86351 -11.52617 -11.48464 -11.44150 -11.43618
 Alpha  occ. eigenvalues --  -11.41164 -11.40898 -11.40534 -11.39153 -11.36390
 Alpha  occ. eigenvalues --  -10.43649  -9.63697  -9.63085  -9.62947  -1.40314
 Alpha  occ. eigenvalues --   -1.30081  -1.17647  -1.09853  -1.08033  -1.02751
 Alpha  occ. eigenvalues --   -0.90129  -0.86704  -0.80357  -0.72240  -0.66545
 Alpha  occ. eigenvalues --   -0.64104  -0.62495  -0.61674  -0.58571  -0.56915
 Alpha  occ. eigenvalues --   -0.55552  -0.52478  -0.51325  -0.50221  -0.49208
 Alpha  occ. eigenvalues --   -0.47913  -0.46237  -0.42977  -0.41889  -0.33417
 Alpha  occ. eigenvalues --   -0.32735
 Alpha virt. eigenvalues --    0.03342   0.04768   0.05041   0.05675   0.05923
 Alpha virt. eigenvalues --    0.06017   0.06510   0.07065   0.07386   0.08238
 Alpha virt. eigenvalues --    0.08883   0.09217   0.11022   0.11275   0.11731

 Mulliken charges:
               1
     1  Cl  -0.127698
     2  C   -1.472685
     3  C    6.647371
     4  C   -4.351683
     5  C   -4.519363
     6  C   -2.195633
     7  C   -2.362300
     8  H    1.233632
     9  H    1.347684
    10  H    1.305890
    11  H    1.221199
    12  H    1.313878
    13  H    0.990374
    14  C   -1.770092
    15  C   -3.464818
    16  C   -2.125016
    17  H    1.873530
    18  H    1.462904
    19  H    1.557507
    20  H    1.506599
    21  H    1.928719
 Sum of Mulliken charges =   0.00000

 Dipole moment (field-independent basis, Debye):
    X=              1.4591    Y=              1.6562    Z=              1.5589  Tot=              2.7023

 Test job not archived.
 1\1\GINC-SE459\SP\RHF\Aug-CC-pVDZ\C9H11Cl1\OHZDE\09-Apr-2025\0\\#t hf
 aug-cc-pvdz iop(5/13=1,5/36=2,99/5=2) pseudo=read geom=check guess=(re
 ad,tcheck) scf=(maxcycle=1)\\title\\0,1\Cl,0,-2.016113,-0.928519,-0.87
 5565\C,0,-1.19331,0.295319,0.236868\C,0,0.309892,0.134905,0.077056\C,0
 ,-1.626458,-0.037142,1.66029\C,0,-1.722903,1.659502,-0.175187\C,0,0.90
 2493,-1.111219,0.285852\C,0,1.132898,1.214417,-0.223414\H,0,-1.324266,
 -1.043987,1.944029\H,0,-2.709463,0.043481,1.759283\H,0,-1.154825,0.667
 966,2.349236\H,0,-1.452444,1.900565,-1.202697\H,0,-1.326538,2.431879,0

 Normal termination of Gaussian 16 at Wed Apr  9 00:59:19 2025.
