 Gaussian 16, Revision C.01,

 ----------------------------------------------------------------------
 #t hf aug-cc-pvdz symm=none int=(grid=ultrafine) guess=(read,tcheck) s
 table=(opt,rrhf)
 ----------------------------------------------------------------------
 -----
 title
 -----
 Symbolic Z-matrix:
 Charge =  1 Multiplicity = 1

 SCF Done:  E(RHF) =  -345.859830314     A.U. after   14 cycles
 Normal termination of Gaussian 16 at Wed Apr  9 00:54:41 2025.
 Gaussian 16:  ES64L-G16RevC.01  3-Jul-2019

 ----------------------------------------------------------------------
 #t hf aug-cc-pvdz iop(5/13=1,5/36=2,99/5=2) pseudo=read geom=check gue
 ss=(read,tcheck) scf=(maxcycle=1)
 ----------------------------------------------------------------------
 -----
 title
 -----
 Structure from the checkpoint file:  "BH10-RE_106_mol2.chk"
 Charge =  1 Multiplicity = 1

                         Standard orientation:
 ---------------------------------------------------------------------
 Center     Atomic      Atomic             Coordinates (Angstroms)
 Number     Number       Type             X           Y           Z
 ---------------------------------------------------------------------
      1          6           0       -0.000000   -1.817884    0.000000
      2          6           0       -0.000000   -1.124983    1.205531
      3          6           0       -0.000000    0.251864    1.193572
      4          7           0       -0.000000    0.853443   -0.000000
      5          6           0       -0.000000    0.251864   -1.193572
      6          6           0       -0.000000   -1.124983   -1.205531
      7          9           0       -0.000000    2.199176   -0.000000
      8          1           0        0.000001   -2.900678    0.000000
      9          1           0        0.000002   -1.639272    2.156841
     10          1           0        0.000001    0.898636    2.060973
     11          1           0        0.000001    0.898636   -2.060973
     12          1           0        0.000002   -1.639272   -2.156841
 ---------------------------------------------------------------------

 SCF Done:  E(RHF) =  -347.337748639     A.U. after    2 cycles

 The electronic state is 1-A'.
 Alpha  occ. eigenvalues --  -29.52858 -16.10373 -11.71362 -11.69771 -11.67003
 Alpha  occ. eigenvalues --  -11.63181 -11.60548  -1.81262  -1.45882  -1.37478
 Alpha  occ. eigenvalues --   -1.17076  -1.14819  -1.03697  -0.92136  -0.87313
 Alpha  occ. eigenvalues --   -0.86254  -0.85140  -0.83247  -0.70620  -0.70274
 Alpha  occ. eigenvalues --   -0.64438  -0.61377  -0.57032  -0.50269  -0.45822
 Alpha virt. eigenvalues --   -0.10088  -0.09679  -0.07984  -0.05535  -0.05001
 Alpha virt. eigenvalues --   -0.04860  -0.03707  -0.03176  -0.01119   0.00248
 Alpha virt. eigenvalues --    0.00406   0.00875   0.00918   0.01390   0.01660

 Mulliken charges:
               1
     1  C    0.046266
     2  C   -0.573165
     3  C   -1.542515
     4  N   -1.881544
     5  C   -1.542515
     6  C   -0.573165
     7  F   -0.087408
     8  H    1.556133
     9  H    1.403445
    10  H    1.395511
    11  H    1.395511
    12  H    1.403445
 Sum of Mulliken charges =   1.00000

 Dipole moment (field-independent basis, Debye):
    X=              0.0000    Y=              1.4726    Z=             -0.0000  Tot=              1.4726

 Test job not archived.
 1\1\GINC-SE186\SP\RHF\Aug-CC-pVDZ\C5H5F1N1(1+)\OHZDE\09-Apr-2025\0\\#t
  hf aug-cc-pvdz iop(5/13=1,5/36=2,99/5=2) pseudo=read geom=check guess
 =(read,tcheck) scf=(maxcycle=1)\\title\\1,1\C,0,0.,-1.817884,0.\C,0,0.
 ,-1.124983,1.205531\C,0,0.,0.251864,1.193572\N,0,0.,0.853443,0.\C,0,0.
 ,0.251864,-1.193572\C,0,0.,-1.124983,-1.205531\F,0,0.,2.199176,0.\H,0,
 0.000001,-2.900678,0.\H,0,0.000002,-1.639272,2.156841\H,0,0.000001,0.8
 98636,2.060973\H,0,0.000001,0.898636,-2.060973\H,0,0.000002,-1.639272,
 -2.156841\\Version=ES64L-G16RevC.01\State=1-A'\HF=-347.3377486\RMSD=1.

 Normal termination of Gaussian 16 at Wed Apr  9 00:54:45 2025.
