 Gaussian 16, Revision C.01,

 ----------------------------------------------------------------------
 #t hf aug-cc-pvdz symm=none int=(grid=ultrafine) guess=(read,tcheck) s
 table=(opt,rrhf)
 ----------------------------------------------------------------------
 -----
 title
 -----
 Symbolic Z-matrix:
 Charge =  0 Multiplicity = 1

 SCF Done:  E(RHF) =  -404.774339559     A.U. after   13 cycles
 Normal termination of Gaussian 16 at Wed Apr  9 00:57:25 2025.
 Gaussian 16:  ES64L-G16RevC.01  3-Jul-2019

 ----------------------------------------------------------------------
 #t hf aug-cc-pvdz iop(5/13=1,5/36=2,99/5=2) pseudo=read geom=check gue
 ss=(read,tcheck) scf=(maxcycle=1)
 ----------------------------------------------------------------------
 -----
 title
 -----
 Structure from the checkpoint file:  "BH10_134_reverse_mol3.chk"
 Charge =  0 Multiplicity = 1

                         Standard orientation:
 ---------------------------------------------------------------------
 Center     Atomic      Atomic             Coordinates (Angstroms)
 Number     Number       Type             X           Y           Z
 ---------------------------------------------------------------------
      1          6           0        1.162747   -0.032666   -0.370986
      2          6           0        2.004167    0.647188    0.688335
      3          6           0       -0.298586    0.357261   -0.238455
      4          8           0       -0.674749    1.477515   -0.464326
      5          8           0       -1.079498   -0.635969    0.162470
      6          6           0       -2.467200   -0.312531    0.317877
      7          1           0        3.053448    0.390423    0.543754
      8          1           0        1.695500    0.320259    1.682684
      9          1           0        1.887014    1.728486    0.615859
     10          1           0       -2.945084   -1.233035    0.640147
     11          1           0       -2.883179    0.027710   -0.629826
     12          1           0       -2.590798    0.470349    1.065512
     13          9           0        1.325688   -1.406393   -0.278969
     14          1           0        1.479121    0.265465   -1.373181
 ---------------------------------------------------------------------

 SCF Done:  E(RHF) =  -406.472833173     A.U. after    2 cycles

 The electronic state is 1-A.
 Alpha  occ. eigenvalues --  -29.25927 -21.10238 -21.05587 -11.53734 -11.47825
 Alpha  occ. eigenvalues --  -11.42239 -11.39227  -1.86137  -1.67446  -1.26426
 Alpha  occ. eigenvalues --   -1.04581  -0.97233  -0.80661  -0.72562  -0.69461
 Alpha  occ. eigenvalues --   -0.64954  -0.61161  -0.58267  -0.56536  -0.54096
 Alpha  occ. eigenvalues --   -0.52356  -0.49320  -0.43713  -0.37147  -0.33285
 Alpha  occ. eigenvalues --   -0.32693  -0.25553  -0.23491
 Alpha virt. eigenvalues --    0.03592   0.05177   0.05499   0.05822   0.06471
 Alpha virt. eigenvalues --    0.06745   0.06949   0.10256   0.11440   0.12111
 Alpha virt. eigenvalues --    0.12726   0.14002   0.14551   0.15198   0.15866

 Mulliken charges:
               1
     1  C   -2.291430
     2  C   -3.835243
     3  C    5.821182
     4  O   -3.239944
     5  O   -3.169374
     6  C   -2.950403
     7  H    1.156927
     8  H    1.291462
     9  H    1.271239
    10  H    1.350537
    11  H    1.296361
    12  H    1.264819
    13  F    0.340241
    14  H    1.693627
 Sum of Mulliken charges =  -0.00000

 Dipole moment (field-independent basis, Debye):
    X=             -0.2234    Y=             -2.4594    Z=              0.5241  Tot=              2.5245

 Test job not archived.
 1\1\GINC-SE038\SP\RHF\Aug-CC-pVDZ\C4H7F1O2\OHZDE\09-Apr-2025\0\\#t hf
 aug-cc-pvdz iop(5/13=1,5/36=2,99/5=2) pseudo=read geom=check guess=(re
 ad,tcheck) scf=(maxcycle=1)\\title\\0,1\C,0,1.162747,-0.032666,-0.3709
 86\C,0,2.004167,0.647188,0.688335\C,0,-0.298586,0.357261,-0.238455\O,0
 ,-0.674749,1.477515,-0.464326\O,0,-1.079498,-0.635969,0.16247\C,0,-2.4
 672,-0.312531,0.317877\H,0,3.053448,0.390423,0.543754\H,0,1.6955,0.320
 259,1.682684\H,0,1.887014,1.728486,0.615859\H,0,-2.945084,-1.233035,0.
 640147\H,0,-2.883179,0.02771,-0.629826\H,0,-2.590798,0.470349,1.065512

 Normal termination of Gaussian 16 at Wed Apr  9 00:57:29 2025.
