 Gaussian 16, Revision C.01,

 ----------------------------------------------------------------------
 #t hf aug-cc-pvdz symm=none int=(grid=ultrafine) guess=(read,tcheck) s
 table=(opt,rrhf)
 ----------------------------------------------------------------------
 -----
 title
 -----
 Symbolic Z-matrix:
 Charge =  0 Multiplicity = 1

 SCF Done:  E(RHF) =  -989.201876777     A.U. after   16 cycles
 Normal termination of Gaussian 16 at Wed Apr  9 01:11:41 2025.
 Gaussian 16:  ES64L-G16RevC.01  3-Jul-2019

 ----------------------------------------------------------------------
 #t hf aug-cc-pvdz iop(5/13=1,5/36=2,99/5=2) pseudo=read geom=check gue
 ss=(read,tcheck) scf=(maxcycle=1)
 ----------------------------------------------------------------------
 -----
 title
 -----
 Structure from the checkpoint file:  "BH10_247_forward_mol3.chk"
 Charge =  0 Multiplicity = 1

                         Standard orientation:
 ---------------------------------------------------------------------
 Center     Atomic      Atomic             Coordinates (Angstroms)
 Number     Number       Type             X           Y           Z
 ---------------------------------------------------------------------
      1          6           0       -6.279991    0.978827   -0.262693
      2          6           0       -4.889604    0.801027    0.243817
      3          1           0       -6.484025    2.032937   -0.471762
      4          1           0       -7.009183    0.661226    0.488243
      5          1           0       -6.452917    0.406664   -1.175010
      6          6           0       -3.953447    0.041609   -0.329573
      7          6           0       -2.617562   -0.092804    0.206908
      8          6           0       -1.650187   -0.841138   -0.336390
      9          1           0       -2.383164    0.452994    1.117013
     10          6           0       -0.322936   -0.910872    0.285501
     11          1           0       -1.815758   -1.413075   -1.242573
     12          8           0       -0.005719   -0.320818    1.298041
     13         16           0        0.801426   -1.966597   -0.604290
     14          6           0        2.266041   -1.908099    0.472470
     15          6           0        3.244002   -0.789716    0.155646
     16          1           0        2.756340   -2.872837    0.344732
     17          1           0        1.905998   -1.843412    1.499967
     18          7           0        2.652621    0.508165    0.396998
     19          1           0        3.570386   -0.832429   -0.884785
     20          1           0        4.137857   -0.928628    0.774984
     21          6           0        3.135222    1.626725   -0.196153
     22          8           0        4.112867    1.610818   -0.923772
     23          6           0        2.382087    2.901666    0.104875
     24          1           0        3.056037    3.594611    0.610076
     25          1           0        1.498538    2.743288    0.724070
     26          1           0        2.085706    3.359550   -0.839075
     27          1           0        1.820562    0.551623    0.968862
     28          1           0       -4.630896    1.338438    1.153877
     29          1           0       -4.185586   -0.505902   -1.239574
 ---------------------------------------------------------------------

 SCF Done:  E(RHF) =  -992.172691178     A.U. after    2 cycles

 The electronic state is 1-A.
 Alpha  occ. eigenvalues --  -75.70078 -21.05790 -21.00065 -15.74044 -13.16890
 Alpha  occ. eigenvalues --  -13.13347 -13.05412 -11.52897 -11.48542 -11.47779
 Alpha  occ. eigenvalues --  -11.46111 -11.45581 -11.43867 -11.41104 -11.39517
 Alpha  occ. eigenvalues --  -11.39269 -11.37437  -8.04421  -1.73130  -1.68679
 Alpha  occ. eigenvalues --   -1.39338  -1.28954  -1.23261  -1.16587  -1.10515
 Alpha  occ. eigenvalues --   -1.05143  -1.01516  -0.91680  -0.86519  -0.80820
 Alpha  occ. eigenvalues --   -0.79013  -0.74197  -0.67871  -0.65697  -0.64201
 Alpha  occ. eigenvalues --   -0.63708  -0.61810  -0.59969  -0.58663  -0.58128
 Alpha  occ. eigenvalues --   -0.57138  -0.55001  -0.53393  -0.52348  -0.51492
 Alpha  occ. eigenvalues --   -0.49772  -0.49092  -0.47658  -0.45585  -0.45241
 Alpha  occ. eigenvalues --   -0.43275  -0.39150  -0.31210  -0.29280  -0.27991
 Alpha  occ. eigenvalues --   -0.26618  -0.25406
 Alpha virt. eigenvalues --    0.02848   0.04097   0.04560   0.04900   0.05301
 Alpha virt. eigenvalues --    0.05552   0.05716   0.05831   0.06497   0.06902
 Alpha virt. eigenvalues --    0.07364   0.07419   0.07749   0.08377   0.08469

 Mulliken charges:
               1
     1  C   -5.068709
     2  C   -1.615561
     3  H    1.062660
     4  H    1.071038
     5  H    1.275638
     6  C    0.054288
     7  C    2.654337
     8  C   -4.486595
     9  H    1.788490
    10  C    2.389857
    11  H    1.845634
    12  O   -3.991057
    13  S    0.913334
    14  C   -4.534241
    15  C   -2.461048
    16  H    1.354173
    17  H    1.700359
    18  N   -2.397311
    19  H    1.818945
    20  H    1.306467
    21  C    5.454700
    22  O   -3.429153
    23  C   -4.862422
    24  H    1.235332
    25  H    1.482748
    26  H    1.312623
    27  H    0.874529
    28  H    1.496476
    29  H    1.754470
 Sum of Mulliken charges =   0.00000

 Dipole moment (field-independent basis, Debye):
    X=             -4.5085    Y=             -1.4343    Z=              0.2396  Tot=              4.7373

 Test job not archived.
 1\1\GINC-SE184\SP\RHF\Aug-CC-pVDZ\C10H15N1O2S1\OHZDE\09-Apr-2025\0\\#t
  hf aug-cc-pvdz iop(5/13=1,5/36=2,99/5=2) pseudo=read geom=check guess
 =(read,tcheck) scf=(maxcycle=1)\\title\\0,1\C,0,-6.279991,0.978827,-0.
 262693\C,0,-4.889604,0.801027,0.243817\H,0,-6.484025,2.032937,-0.47176
 2\H,0,-7.009183,0.661226,0.488243\H,0,-6.452917,0.406664,-1.17501\C,0,
 -3.953447,0.041609,-0.329573\C,0,-2.617562,-0.092804,0.206908\C,0,-1.6
 50187,-0.841138,-0.33639\H,0,-2.383164,0.452994,1.117013\C,0,-0.322936
 ,-0.910872,0.285501\H,0,-1.815758,-1.413075,-1.242573\O,0,-0.005719,-0

 Normal termination of Gaussian 16 at Wed Apr  9 01:12:07 2025.
