 Gaussian 16, Revision C.01,

 ----------------------------------------------------------------------
 #t hf aug-cc-pvdz symm=none int=(grid=ultrafine) guess=(read,tcheck) s
 table=(opt,rrhf)
 ----------------------------------------------------------------------
 -----
 title
 -----
 Symbolic Z-matrix:
 Charge =  0 Multiplicity = 1

 SCF Done:  E(RHF) =  -1000.89959144     A.U. after   16 cycles
 Normal termination of Gaussian 16 at Wed Apr  9 02:32:17 2025.
 Gaussian 16:  ES64L-G16RevC.01  3-Jul-2019

 ----------------------------------------------------------------------
 #t hf aug-cc-pvdz iop(5/13=1,5/36=2,99/5=2) pseudo=read geom=check gue
 ss=(read,tcheck) scf=(maxcycle=1)
 ----------------------------------------------------------------------
 -----
 title
 -----
 Structure from the checkpoint file:  "BH10_84_forward_mol2.chk"
 Charge =  0 Multiplicity = 1

                         Standard orientation:
 ---------------------------------------------------------------------
 Center     Atomic      Atomic             Coordinates (Angstroms)
 Number     Number       Type             X           Y           Z
 ---------------------------------------------------------------------
      1          6           0       -0.234304   -0.149218    0.669519
      2          6           0        2.173314   -0.550409    0.031958
      3          6           0       -1.405148   -0.734324    0.969644
      4          6           0        2.598668    0.858057   -0.155477
      5          6           0        0.925351   -0.945334    0.377263
      6          6           0        4.069940    1.185184    0.023660
      7          6           0        2.154727    3.109625   -0.658072
      8          6           0        3.171416   -1.641337   -0.161734
      9          6           0       -2.693853   -0.042987    1.225299
     10          1           0       -3.229322   -0.602078    2.003145
     11          6           0       -2.556271    1.419365    1.657035
     12          1           0       -1.906933    1.510392    2.531547
     13          1           0       -2.126423    2.037997    0.866625
     14          1           0       -3.528015    1.843819    1.915543
     15          7           0        1.733138    1.736254   -0.476481
     16         14           0       -3.795771   -0.212965   -0.335515
     17          6           0       -5.518626    0.405830    0.084025
     18          6           0       -3.053663    0.809776   -1.718855
     19          6           0       -3.879828   -2.019570   -0.835865
     20          1           0       -3.092086    1.878425   -1.495816
     21          1           0       -3.598149    0.649097   -2.652918
     22          1           0       -2.008283    0.542932   -1.889925
     23          1           0       -5.513383    1.462118    0.361998
     24          1           0       -5.953375   -0.157110    0.913985
     25          1           0       -6.186489    0.295977   -0.774418
     26          1           0        1.296691    3.708373   -0.962070
     27          1           0        2.925532    3.208018   -1.431886
     28          1           0        2.559646    3.544201    0.264070
     29          1           0       -4.223897   -2.649807   -0.011480
     30          1           0       -2.905293   -2.392210   -1.158940
     31          1           0       -4.576569   -2.156984   -1.666760
     32          6           0        4.617541   -1.225662   -0.309860
     33          6           0        4.911146    0.017136    0.518976
     34          8           0        2.857728   -2.813925   -0.190372
     35          1           0        4.457873    1.531982   -0.942008
     36          1           0        4.156761    2.039252    0.701040
     37          1           0        4.685786   -0.186769    1.570365
     38          1           0        5.971308    0.273070    0.468601
     39          1           0        5.237334   -2.078991   -0.035229
     40          1           0        4.800269   -1.018870   -1.371838
     41          1           0       -0.139202    0.924423    0.609195
     42          1           0       -1.439173   -1.822397    0.977878
     43          1           0        0.799933   -2.022523    0.459744
 ---------------------------------------------------------------------

 SCF Done:  E(RHF) =  -1004.54991582     A.U. after    2 cycles

 The electronic state is 1-A.
 Alpha  occ. eigenvalues --  -76.18334 -21.02589 -15.70857 -11.51352 -11.48640
 Alpha  occ. eigenvalues --  -11.48240 -11.45892 -11.44489 -11.43523 -11.41794
 Alpha  occ. eigenvalues --  -11.40679 -11.39307 -11.38272 -11.37998 -11.36723
 Alpha  occ. eigenvalues --  -11.34826 -11.34698 -11.34257  -5.52632  -2.16849
 Alpha  occ. eigenvalues --   -2.16548  -2.16437  -1.69396  -1.41502  -1.27547
 Alpha  occ. eigenvalues --   -1.24738  -1.17119  -1.08273  -1.06581  -1.06252
 Alpha  occ. eigenvalues --   -1.01064  -1.00856  -0.99282  -0.94895  -0.90010
 Alpha  occ. eigenvalues --   -0.84479  -0.78477  -0.76324  -0.70565  -0.66658
 Alpha  occ. eigenvalues --   -0.65717  -0.64824  -0.63152  -0.60626  -0.59635
 Alpha  occ. eigenvalues --   -0.58684  -0.58307  -0.56763  -0.56715  -0.56381
 Alpha  occ. eigenvalues --   -0.55746  -0.54677  -0.54204  -0.53892  -0.53677
 Alpha  occ. eigenvalues --   -0.53096  -0.51675  -0.50945  -0.49497  -0.48207
 Alpha  occ. eigenvalues --   -0.47334  -0.46657  -0.44881  -0.42246  -0.41802
 Alpha  occ. eigenvalues --   -0.39091  -0.38869  -0.38733  -0.35165  -0.33027
 Alpha  occ. eigenvalues --   -0.26743  -0.25994
 Alpha virt. eigenvalues --    0.03188   0.04395   0.04547   0.04791   0.04963
 Alpha virt. eigenvalues --    0.05117   0.05407   0.05567   0.05901   0.06040
 Alpha virt. eigenvalues --    0.06302   0.06337   0.07206   0.07310   0.07547

 Mulliken charges:
               1
     1  C    2.876032
     2  C    1.103714
     3  C   -3.315126
     4  C    4.150583
     5  C   -0.449799
     6  C   -3.456289
     7  C   -4.498049
     8  C    3.717463
     9  C   -4.079454
    10  H    1.072033
    11  C   -5.255316
    12  H    1.312647
    13  H    1.536782
    14  H    1.136527
    15  N   -4.337729
    16  Si  12.780002
    17  C   -6.343181
    18  C   -6.584519
    19  C   -6.346597
    20  H    1.135506
    21  H    0.947834
    22  H    1.053400
    23  H    1.047073
    24  H    0.988181
    25  H    1.091447
    26  H    1.452842
    27  H    1.565820
    28  H    1.559859
    29  H    0.885256
    30  H    1.104900
    31  H    1.029739
    32  C   -4.621385
    33  C   -3.841288
    34  O   -4.326829
    35  H    1.156543
    36  H    1.272409
    37  H    1.446769
    38  H    1.181885
    39  H    1.300984
    40  H    1.382934
    41  H    2.363404
    42  H    1.932414
    43  H    1.870580
 Sum of Mulliken charges =   0.00000

 Dipole moment (field-independent basis, Debye):
    X=             -1.0318    Y=              1.4780    Z=              0.5729  Tot=              1.8914

 Test job not archived.
 1\1\GINC-SE461\SP\RHF\Aug-CC-pVDZ\C15H25N1O1Si1\OHZDE\09-Apr-2025\0\\#
 t hf aug-cc-pvdz iop(5/13=1,5/36=2,99/5=2) pseudo=read geom=check gues
 s=(read,tcheck) scf=(maxcycle=1)\\title\\0,1\C,0,-0.234304,-0.149218,0
 .669519\C,0,2.173314,-0.550409,0.031958\C,0,-1.405148,-0.734324,0.9696
 44\C,0,2.598668,0.858057,-0.155477\C,0,0.925351,-0.945334,0.377263\C,0
 ,4.06994,1.185184,0.02366\C,0,2.154727,3.109625,-0.658072\C,0,3.171416
 ,-1.641337,-0.161734\C,0,-2.693853,-0.042987,1.225299\H,0,-3.229322,-0
 .602078,2.003145\C,0,-2.556271,1.419365,1.657035\H,0,-1.906933,1.51039

 Normal termination of Gaussian 16 at Wed Apr  9 02:33:40 2025.
