 Gaussian 16, Revision C.01,

 ----------------------------------------------------------------------
 #t hf aug-cc-pvdz symm=none int=(grid=ultrafine) guess=(read,tcheck) s
 table=(opt,rrhf)
 ----------------------------------------------------------------------
 -----
 title
 -----
 Symbolic Z-matrix:
 Charge = -1 Multiplicity = 1

 SCF Done:  E(RHF) =  -1360.55472592     A.U. after   15 cycles
 Normal termination of Gaussian 16 at Wed Apr  9 01:42:39 2025.
 Gaussian 16:  ES64L-G16RevC.01  3-Jul-2019

 ----------------------------------------------------------------------
 #t hf aug-cc-pvdz iop(5/13=1,5/36=2,99/5=2) pseudo=read geom=check gue
 ss=(read,tcheck) scf=(maxcycle=1)
 ----------------------------------------------------------------------
 -----
 title
 -----
 Structure from the checkpoint file:  "BH10_313_reverse_mol2.chk"
 Charge = -1 Multiplicity = 1

                         Standard orientation:
 ---------------------------------------------------------------------
 Center     Atomic      Atomic             Coordinates (Angstroms)
 Number     Number       Type             X           Y           Z
 ---------------------------------------------------------------------
      1          6           0       -1.338214    0.951634    0.207348
      2          6           0       -2.627850    0.166180    0.096681
      3          6           0       -2.371471   -1.258855    0.551374
      4          1           0       -2.953904    0.167287   -0.944820
      5          1           0       -3.404044    0.641878    0.696003
      6          6           0       -1.145265   -1.873864   -0.136652
      7          6           0       -0.124080   -1.025923   -0.523983
      8          8           0       -0.329921    0.407702   -0.590916
      9          6           0       -1.481029    2.391377   -0.303241
     10          6           0        1.014977   -1.428364   -1.352937
     11          1           0        0.966826   -0.778702    1.167608
     12          8           0        2.358363   -1.297360   -0.733946
     13          1           0        1.072677   -0.848784   -2.279101
     14          1           0        0.927931   -2.488754   -1.571244
     15         15           0        2.760906   -0.082396    0.211192
     16          8           0        4.170692   -0.064605    0.605792
     17          8           0        1.715967   -0.195515    1.439659
     18          8           0        2.327753    1.260636   -0.553441
     19          1           0        1.362371    1.324929   -0.671367
     20          8           0       -1.165119   -3.125155   -0.258923
     21          8           0       -3.485560   -2.081010    0.282249
     22          1           0       -2.166597   -1.256021    1.629022
     23          1           0       -3.065088   -2.931739    0.051813
     24          8           0       -2.501105    2.930034   -0.630409
     25          8           0       -0.289007    3.015190   -0.311030
     26          1           0       -0.429783    3.919349   -0.621233
     27          8           0       -0.962793    1.005892    1.566416
     28          1           0       -0.000558    1.106930    1.620285
 ---------------------------------------------------------------------

 SCF Done:  E(RHF) =  -1365.08731463     A.U. after    2 cycles

 The electronic state is 1-A.
 Alpha  occ. eigenvalues -- -105.19615 -21.04674 -20.98435 -20.98049 -20.97899
 Alpha  occ. eigenvalues --  -20.97661 -20.96421 -20.95012 -20.93940 -20.89581
 Alpha  occ. eigenvalues --  -20.86736 -11.47368 -11.42824 -11.39266 -11.36739
 Alpha  occ. eigenvalues --  -11.34957 -11.30659 -11.27551  -2.82690  -1.87209
 Alpha  occ. eigenvalues --   -1.79771  -1.77813  -1.77501  -1.71218  -1.61917
 Alpha  occ. eigenvalues --   -1.60964  -1.59296  -1.58173  -1.51148  -1.29907
 Alpha  occ. eigenvalues --   -1.28273  -1.12613  -1.07507  -1.01901  -0.89860
 Alpha  occ. eigenvalues --   -0.83508  -0.76647  -0.70421  -0.63573  -0.58886
 Alpha  occ. eigenvalues --   -0.58403  -0.57647  -0.54217  -0.52715  -0.51465
 Alpha  occ. eigenvalues --   -0.49591  -0.48398  -0.47837  -0.46234  -0.43402
 Alpha  occ. eigenvalues --   -0.42315  -0.41372  -0.40173  -0.38848  -0.37593
 Alpha  occ. eigenvalues --   -0.34516  -0.32302  -0.31061  -0.29970  -0.29329
 Alpha  occ. eigenvalues --   -0.27705  -0.26510  -0.25970  -0.24561  -0.24224
 Alpha  occ. eigenvalues --   -0.23633  -0.22795  -0.20517  -0.19337  -0.14998
 Alpha  occ. eigenvalues --   -0.14235  -0.12790  -0.08980  -0.03400
 Alpha virt. eigenvalues --    0.11400   0.12791   0.13365   0.13951   0.14306
 Alpha virt. eigenvalues --    0.14892   0.15872   0.16003   0.16601   0.17313
 Alpha virt. eigenvalues --    0.18394   0.19562   0.19766   0.20670   0.20732

 Mulliken charges:
               1
     1  C    5.289083
     2  C   -4.600599
     3  C    1.461582
     4  H    1.312205
     5  H    1.372389
     6  C    4.769687
     7  C    2.125066
     8  O   -5.486696
     9  C    7.783225
    10  C   -2.372792
    11  H    1.867452
    12  O   -3.338200
    13  H    1.352713
    14  H    1.393418
    15  P    8.643850
    16  O   -3.136641
    17  O   -3.335559
    18  O   -3.244855
    19  H    1.749128
    20  O   -4.232928
    21  O   -3.400471
    22  H    1.363029
    23  H    0.596626
    24  O   -3.541026
    25  O   -3.408759
    26  H    1.076268
    27  O   -3.992228
    28  H    0.935034
 Sum of Mulliken charges =  -1.00000

 Dipole moment (field-independent basis, Debye):
    X=             -2.3284    Y=              4.5806    Z=             -0.9967  Tot=              5.2342

 Test job not archived.
 1\1\GINC-SE339\SP\RHF\Aug-CC-pVDZ\C7H10O10P1(1-)\OHZDE\09-Apr-2025\0\\
 #t hf aug-cc-pvdz iop(5/13=1,5/36=2,99/5=2) pseudo=read geom=check gue
 ss=(read,tcheck) scf=(maxcycle=1)\\title\\-1,1\C,0,-1.338214,0.951634,
 0.207348\C,0,-2.62785,0.16618,0.096681\C,0,-2.371471,-1.258855,0.55137
 4\H,0,-2.953904,0.167288,-0.94482\H,0,-3.404044,0.641879,0.696003\C,0,
 -1.145265,-1.873864,-0.136652\C,0,-0.12408,-1.025923,-0.523983\O,0,-0.
 329921,0.407702,-0.590916\C,0,-1.481029,2.391377,-0.303241\C,0,1.01497
 7,-1.428364,-1.352937\H,0,0.966826,-0.778702,1.167608\O,0,2.358363,-1.

 Normal termination of Gaussian 16 at Wed Apr  9 01:43:18 2025.
