 Gaussian 16, Revision C.01,

 ----------------------------------------------------------------------
 #t hf aug-cc-pvdz symm=none int=(grid=ultrafine) guess=(read,tcheck) s
 table=(opt,rrhf)
 ----------------------------------------------------------------------
 -----
 title
 -----
 Symbolic Z-matrix:
 Charge =  0 Multiplicity = 1

 SCF Done:  E(RHF) =  -1125.27612025     A.U. after   15 cycles
 Normal termination of Gaussian 16 at Wed Apr  9 02:33:56 2025.
 Gaussian 16:  ES64L-G16RevC.01  3-Jul-2019

 ----------------------------------------------------------------------
 #t hf aug-cc-pvdz iop(5/13=1,5/36=2,99/5=2) pseudo=read geom=check gue
 ss=(read,tcheck) scf=(maxcycle=1)
 ----------------------------------------------------------------------
 -----
 title
 -----
 Structure from the checkpoint file:  "BH10_299_reverse_mol2.chk"
 Charge =  0 Multiplicity = 1

                         Standard orientation:
 ---------------------------------------------------------------------
 Center     Atomic      Atomic             Coordinates (Angstroms)
 Number     Number       Type             X           Y           Z
 ---------------------------------------------------------------------
      1          6           0       -0.108499   -2.759245    0.227597
      2          6           0        0.663781   -1.813588    1.192889
      3          6           0        1.510873   -0.503658   -1.489653
      4          1           0       -1.029150   -3.078417    0.722265
      5          6           0        2.181618   -2.094358    1.221262
      6          1           0        2.690648   -1.300294    1.779086
      7          1           0        2.341165   -3.010996    1.800325
      8          1           0        1.741064    0.142004   -2.342302
      9          1           0        0.308556   -2.036506    2.204783
     10          6           0        2.868003   -2.281015   -0.127497
     11          1           0        3.907401   -2.571378    0.056155
     12          1           0        2.418295   -3.132192   -0.645747
     13          6           0        2.873036   -1.073144   -1.057316
     14          1           0        3.470837   -0.277791   -0.603301
     15          1           0        3.411172   -1.361410   -1.967040
     16          6           0        0.568654   -1.602266   -2.045798
     17          1           0        0.051548   -1.195471   -2.920011
     18          6           0       -0.523083   -2.145216   -1.116593
     19          1           0       -1.237502   -1.338130   -0.923018
     20          1           0       -1.088692   -2.898513   -1.674196
     21          1           0        1.176074   -2.431502   -2.424028
     22          1           0        0.472912   -3.671516    0.060750
     23          6           0        0.817963    0.386187   -0.432338
     24          1           0       -0.066185    0.853761   -0.892794
     25         14           0        1.801795    1.956827    0.030537
     26          6           0        2.977721    1.695735    1.479919
     27          1           0        3.763153    0.969786    1.262893
     28          1           0        3.463674    2.639686    1.742247
     29          1           0        2.443372    1.348959    2.368886
     30          6           0        0.623817    3.342974    0.508503
     31          1           0        1.163298    4.294045    0.531313
     32          1           0       -0.195951    3.439838   -0.207144
     33          1           0        0.185238    3.193289    1.496577
     34          6           0        2.784378    2.536699   -1.464493
     35          1           0        2.124819    2.734309   -2.313510
     36          1           0        3.305556    3.468415   -1.228079
     37          1           0        3.532878    1.810516   -1.786287
     38          5           0        0.260908   -0.331206    0.823558
     39          6           0       -3.137885   -0.500676    1.327349
     40          6           0       -3.421731    0.294421    0.125203
     41          8           0       -2.646835    0.998814   -0.480589
     42          8           0       -4.700343    0.132320   -0.264566
     43          6           0       -5.085587    0.845020   -1.440499
     44          1           0       -4.475759    0.537325   -2.290134
     45          1           0       -6.129518    0.593333   -1.608002
     46          1           0       -4.969517    1.918648   -1.292010
     47          6           0       -1.994906   -0.437922    2.017772
     48          6           0       -0.809212    0.419923    1.741304
     49          1           0       -0.303256    0.625688    2.694488
     50          1           0       -1.115565    1.361847    1.295061
     51          1           0       -3.929498   -1.167632    1.643000
     52          1           0       -1.916964   -1.107529    2.870041
 ---------------------------------------------------------------------

 SCF Done:  E(RHF) =  -1129.54362920     A.U. after    2 cycles

 The electronic state is 1-A.
 Alpha  occ. eigenvalues --  -76.17640 -21.08585 -21.03687 -11.54565 -11.48186
 Alpha  occ. eigenvalues --  -11.46757 -11.45305 -11.44641 -11.42168 -11.41562
 Alpha  occ. eigenvalues --  -11.41394 -11.40737 -11.38129 -11.37185 -11.36730
 Alpha  occ. eigenvalues --  -11.35809 -11.34831 -11.34755 -11.34036 -11.33689
 Alpha  occ. eigenvalues --   -7.60433  -5.51806  -2.16615  -2.15883  -2.15723
 Alpha  occ. eigenvalues --   -1.84315  -1.65571  -1.33364  -1.23814  -1.18684
 Alpha  occ. eigenvalues --   -1.16838  -1.11347  -1.06480  -1.04182  -1.00452
 Alpha  occ. eigenvalues --   -0.99828  -0.99273  -0.97670  -0.93623  -0.86694
 Alpha  occ. eigenvalues --   -0.83254  -0.82756  -0.74513  -0.72353  -0.68770
 Alpha  occ. eigenvalues --   -0.67921  -0.65847  -0.64139  -0.63486  -0.63261
 Alpha  occ. eigenvalues --   -0.62625  -0.60779  -0.59000  -0.57859  -0.57165
 Alpha  occ. eigenvalues --   -0.57092  -0.56636  -0.55916  -0.55179  -0.54542
 Alpha  occ. eigenvalues --   -0.54115  -0.53234  -0.52890  -0.52328  -0.52220
 Alpha  occ. eigenvalues --   -0.51071  -0.50420  -0.49506  -0.47439  -0.45457
 Alpha  occ. eigenvalues --   -0.44543  -0.42998  -0.41663  -0.41235  -0.40488
 Alpha  occ. eigenvalues --   -0.39101  -0.38799  -0.37386  -0.37072  -0.35886
 Alpha  occ. eigenvalues --   -0.32224  -0.31561  -0.30958  -0.28785
 Alpha virt. eigenvalues --    0.03872   0.04288   0.04516   0.04690   0.05003
 Alpha virt. eigenvalues --    0.05250   0.05333   0.05547   0.05716   0.05907
 Alpha virt. eigenvalues --    0.06007   0.06074   0.06217   0.06541   0.06727

 Mulliken charges:
               1
     1  C   -4.209918
     2  C   -3.755262
     3  C    0.188971
     4  H    1.299277
     5  C   -5.394075
     6  H    1.212206
     7  H    1.250518
     8  H    1.834005
     9  H    1.280014
    10  C   -3.086646
    11  H    1.420766
    12  H    1.516344
    13  C   -4.842364
    14  H    1.551009
    15  H    1.355021
    16  C   -4.529308
    17  H    1.224059
    18  C   -4.543007
    19  H    1.146340
    20  H    1.708321
    21  H    1.324608
    22  H    1.329290
    23  C   -9.022415
    24  H    1.375443
    25  Si  15.283062
    26  C   -6.744826
    27  H    1.032750
    28  H    1.034844
    29  H    1.159672
    30  C   -6.853087
    31  H    0.997687
    32  H    0.765134
    33  H    1.156419
    34  C   -7.130062
    35  H    0.919352
    36  H    0.922316
    37  H    0.991692
    38  B   22.961806
    39  C   -4.671403
    40  C    6.475799
    41  O   -3.400688
    42  O   -3.968347
    43  C   -3.573517
    44  H    1.434348
    45  H    1.383447
    46  H    1.503023
    47  C   -0.763219
    48  C   -7.325754
    49  H    0.214683
    50  H    1.231394
    51  H    1.864513
    52  H    1.465764
 Sum of Mulliken charges =   0.00000

 Dipole moment (field-independent basis, Debye):
    X=             -0.3737    Y=             -0.2768    Z=             -0.1907  Tot=              0.5026

 Test job not archived.
 1\1\GINC-SE129\SP\RHF\Aug-CC-pVDZ\C17H31B1O2Si1\OHZDE\09-Apr-2025\0\\#
 t hf aug-cc-pvdz iop(5/13=1,5/36=2,99/5=2) pseudo=read geom=check gues
 s=(read,tcheck) scf=(maxcycle=1)\\title\\0,1\C,0,-0.108499,-2.759245,0
 .227597\C,0,0.663781,-1.813588,1.192889\C,0,1.510873,-0.503658,-1.4896
 53\H,0,-1.02915,-3.078417,0.722265\C,0,2.181618,-2.094358,1.221262\H,0
 ,2.690648,-1.300294,1.779086\H,0,2.341165,-3.010996,1.800325\H,0,1.741
 064,0.142004,-2.342302\H,0,0.308556,-2.036506,2.204783\C,0,2.868003,-2
 .281015,-0.127497\H,0,3.907401,-2.571377,0.056155\H,0,2.418295,-3.1321

 Normal termination of Gaussian 16 at Wed Apr  9 02:36:54 2025.
