 Gaussian 16, Revision C.01,

 ----------------------------------------------------------------------
 #t hf aug-cc-pvdz symm=none int=(grid=ultrafine) guess=(read,tcheck) s
 table=(opt,rrhf)
 ----------------------------------------------------------------------
 -----
 title
 -----
 Symbolic Z-matrix:
 Charge =  0 Multiplicity = 1

 SCF Done:  E(RHF) =  -693.156613653     A.U. after   12 cycles
 Normal termination of Gaussian 16 at Wed Apr  9 00:55:47 2025.
 Gaussian 16:  ES64L-G16RevC.01  3-Jul-2019

 ----------------------------------------------------------------------
 #t hf aug-cc-pvdz iop(5/13=1,5/36=2,99/5=2) pseudo=read geom=check gue
 ss=(read,tcheck) scf=(maxcycle=1)
 ----------------------------------------------------------------------
 -----
 title
 -----
 Structure from the checkpoint file:  "BH10-RE_119_mol2.chk"
 Charge =  0 Multiplicity = 1

                         Standard orientation:
 ---------------------------------------------------------------------
 Center     Atomic      Atomic             Coordinates (Angstroms)
 Number     Number       Type             X           Y           Z
 ---------------------------------------------------------------------
      1          6           0       -0.447521    0.429391    0.000019
      2          6           0        0.497666    0.545560   -1.192127
      3          6           0        0.497624    0.545408    1.192211
      4          6           0       -1.607712    1.400539    0.000060
      5          6           0        1.772140   -0.205188   -0.775713
      6          6           0        1.772088   -0.205326    0.775755
      7          1           0        0.709381    1.611130   -1.330540
      8          1           0        0.051051    0.176180   -2.115021
      9          1           0        0.050971    0.175941    2.115052
     10          1           0        0.709363    1.610959    1.330743
     11          1           0       -2.231351    1.265368   -0.884358
     12          1           0       -1.222879    2.423825    0.000136
     13          1           0       -2.231387    1.265251    0.884434
     14          1           0        2.663647    0.268240   -1.188647
     15          1           0        1.748153   -1.227469   -1.153465
     16          1           0        2.663594    0.267974    1.188838
     17          1           0        1.748011   -1.227675    1.153319
     18         17           0       -1.150839   -1.274825   -0.000102
 ---------------------------------------------------------------------

 SCF Done:  E(RHF) =  -694.611479839     A.U. after    2 cycles

 The electronic state is 1-A.
 Alpha  occ. eigenvalues --  -99.85861 -11.48406 -11.46276 -11.40784 -11.38688
 Alpha  occ. eigenvalues --  -11.38059 -11.34551 -10.43193  -9.63191  -9.62543
 Alpha  occ. eigenvalues --   -9.62452  -1.39650  -1.23659  -1.10589  -1.05675
 Alpha  occ. eigenvalues --   -0.97212  -0.83052  -0.79589  -0.68437  -0.65976
 Alpha  occ. eigenvalues --   -0.61919  -0.60946  -0.57237  -0.55053  -0.49536
 Alpha  occ. eigenvalues --   -0.49487  -0.47333  -0.47162  -0.44463  -0.44042
 Alpha  occ. eigenvalues --   -0.43076  -0.41182
 Alpha virt. eigenvalues --    0.03968   0.05238   0.05297   0.05571   0.05868
 Alpha virt. eigenvalues --    0.06371   0.06528   0.06537   0.08001   0.08011
 Alpha virt. eigenvalues --    0.09087   0.09841   0.11421   0.12761   0.13718

 Mulliken charges:
               1
     1  C    2.813003
     2  C   -3.675015
     3  C   -3.674957
     4  C   -4.501176
     5  C   -2.491144
     6  C   -2.491197
     7  H    1.398045
     8  H    1.261950
     9  H    1.261928
    10  H    1.398059
    11  H    1.222881
    12  H    1.323576
    13  H    1.222881
    14  H    1.296111
    15  H    1.309657
    16  H    1.296086
    17  H    1.309683
    18  Cl  -0.280371
 Sum of Mulliken charges =  -0.00000

 Dipole moment (field-independent basis, Debye):
    X=              1.3157    Y=              2.4214    Z=              0.0002  Tot=              2.7557

 Test job not archived.
 1\1\GINC-SE159\SP\RHF\Aug-CC-pVDZ\C6H11Cl1\OHZDE\09-Apr-2025\0\\#t hf
 aug-cc-pvdz iop(5/13=1,5/36=2,99/5=2) pseudo=read geom=check guess=(re
 ad,tcheck) scf=(maxcycle=1)\\title\\0,1\C,0,-0.447521,0.429391,0.00001
 9\C,0,0.497666,0.54556,-1.192127\C,0,0.497624,0.545408,1.192211\C,0,-1
 .607712,1.400539,0.00006\C,0,1.77214,-0.205188,-0.775713\C,0,1.772088,
 -0.205326,0.775755\H,0,0.709381,1.61113,-1.33054\H,0,0.051051,0.17618,
 -2.115021\H,0,0.050971,0.175941,2.115052\H,0,0.709363,1.610959,1.33074
 3\H,0,-2.231351,1.265368,-0.884358\H,0,-1.222879,2.423825,0.000136\H,0

 Normal termination of Gaussian 16 at Wed Apr  9 00:55:54 2025.
