 Gaussian 16, Revision C.01,

 ----------------------------------------------------------------------
 #t hf aug-cc-pvdz symm=none int=(grid=ultrafine) guess=(read,tcheck) s
 table=(opt,rrhf)
 ----------------------------------------------------------------------
 -----
 title
 -----
 Symbolic Z-matrix:
 Charge =  0 Multiplicity = 1

 SCF Done:  E(RHF) =  -460.092614788     A.U. after    9 cycles
 Normal termination of Gaussian 16 at Wed Apr  9 02:11:56 2025.
 Gaussian 16:  ES64L-G16RevC.01  3-Jul-2019

 ----------------------------------------------------------------------
 #t hf aug-cc-pvdz iop(5/13=1,5/36=2,99/5=2) pseudo=read geom=check gue
 ss=(read,tcheck) scf=(maxcycle=1)
 ----------------------------------------------------------------------
 -----
 title
 -----
 Structure from the checkpoint file:  "BH76RC_14_mol2.chk"
 Charge =  0 Multiplicity = 1

                         Standard orientation:
 ---------------------------------------------------------------------
 Center     Atomic      Atomic             Coordinates (Angstroms)
 Number     Number       Type             X           Y           Z
 ---------------------------------------------------------------------
      1         17           0        0.000000    0.000000    0.070803
      2          1           0        0.000000    0.000000   -1.203645
 ---------------------------------------------------------------------

 SCF Done:  E(RHF) =  -460.349345324     A.U. after    2 cycles

 The electronic state is 1-SG.
 Alpha  occ. eigenvalues --  -99.91018 -10.48201  -9.68287  -9.67303  -9.67303
 Alpha  occ. eigenvalues --   -1.30681  -0.69780  -0.52840  -0.52840
 Alpha virt. eigenvalues --    0.02659   0.10273   0.13056   0.13056   0.13391
 Alpha virt. eigenvalues --    0.18627   0.25482   0.25482   0.33526   0.33526
 Alpha virt. eigenvalues --    0.40669   0.50524   0.50524   0.54184   0.83299

 Mulliken charges:
               1
     1  Cl  -0.486199
     2  H    0.486199
 Sum of Mulliken charges =   0.00000

 Dipole moment (field-independent basis, Debye):
    X=              0.0000    Y=              0.0000    Z=             -0.7833  Tot=              0.7833

 Test job not archived.
 1\1\GINC-SE341\SP\RHF\Aug-CC-pVDZ\Cl1H1\OHZDE\09-Apr-2025\0\\#t hf aug
 -cc-pvdz iop(5/13=1,5/36=2,99/5=2) pseudo=read geom=check guess=(read,
 tcheck) scf=(maxcycle=1)\\title\\0,1\Cl,0,0.,0.,0.07080285\H,0,0.,0.,-
 1.20364532\\Version=ES64L-G16RevC.01\State=1-SG\HF=-460.3493453\RMSD=1
 .531e-02\Dipole=0.,0.,-0.3081748\Quadrupole=-0.9814458,-0.9814458,1.96
 28916,0.,0.,0.\PG=C*V [C*(H1Cl1)]\\@

 Normal termination of Gaussian 16 at Wed Apr  9 02:11:57 2025.
