 Gaussian 16, Revision C.01,

 ----------------------------------------------------------------------
 #t hf aug-cc-pvdz symm=none int=(grid=ultrafine) guess=(read,tcheck) s
 table=(opt,rrhf)
 ----------------------------------------------------------------------
 -----
 title
 -----
 Symbolic Z-matrix:
 Charge =  0 Multiplicity = 1

 SCF Done:  E(RHF) =  -139.057571197     A.U. after   10 cycles
 Normal termination of Gaussian 16 at Wed Apr  9 02:11:57 2025.
 Gaussian 16:  ES64L-G16RevC.01  3-Jul-2019

 ----------------------------------------------------------------------
 #t hf aug-cc-pvdz iop(5/13=1,5/36=2,99/5=2) pseudo=read geom=check gue
 ss=(read,tcheck) scf=(maxcycle=1)
 ----------------------------------------------------------------------
 -----
 title
 -----
 Structure from the checkpoint file:  "BH76RC_2_mol2.chk"
 Charge =  0 Multiplicity = 1

                         Standard orientation:
 ---------------------------------------------------------------------
 Center     Atomic      Atomic             Coordinates (Angstroms)
 Number     Number       Type             X           Y           Z
 ---------------------------------------------------------------------
      1          6           0        0.000000    0.000000   -0.632077
      2          9           0        0.000000    0.000000    0.749118
      3          1           0        0.000000    1.029833   -0.983198
      4          1           0        0.891861   -0.514916   -0.983198
      5          1           0       -0.891861   -0.514916   -0.983198
 ---------------------------------------------------------------------

 SCF Done:  E(RHF) =  -139.608742932     A.U. after    2 cycles

 The electronic state is 1-A1.
 Alpha  occ. eigenvalues --  -29.25066 -11.42901  -1.14703  -0.66167  -0.62646
 Alpha  occ. eigenvalues --   -0.62646  -0.37104  -0.24640  -0.24640
 Alpha virt. eigenvalues --    0.03805   0.06047   0.06047   0.11990   0.15004
 Alpha virt. eigenvalues --    0.15004   0.16706   0.24546   0.26284   0.26284
 Alpha virt. eigenvalues --    0.31121   0.31121   0.34995   0.39000   0.39000

 Mulliken charges:
               1
     1  C   -4.005650
     2  F    0.252931
     3  H    1.250906
     4  H    1.250906
     5  H    1.250906
 Sum of Mulliken charges =  -0.00000

 Dipole moment (field-independent basis, Debye):
    X=              0.0000    Y=              0.0000    Z=              0.7270  Tot=              0.7270

 Test job not archived.
 1\1\GINC-SE365\SP\RHF\Aug-CC-pVDZ\C1H3F1\OHZDE\09-Apr-2025\0\\#t hf au
 g-cc-pvdz iop(5/13=1,5/36=2,99/5=2) pseudo=read geom=check guess=(read
 ,tcheck) scf=(maxcycle=1)\\title\\0,1\C,0,0.,0.,0.06556636\F,0,0.,0.,-
 1.31562849\H,0,0.5149163,-0.89186119,0.41668738\H,0,0.5149163,0.891861
 19,0.41668738\H,0,-1.02983259,0.,0.41668738\\Version=ES64L-G16RevC.01\
 State=1-A1\HF=-139.6087429\RMSD=6.505e-02\Dipole=0.,0.,-0.2860352\Quad
 rupole=0.2066065,0.2066065,-0.413213,0.,0.,0.\PG=C03V [C3(C1F1),3SGV(H
 1)]\\@

 Normal termination of Gaussian 16 at Wed Apr  9 02:11:58 2025.
