 Gaussian 16, Revision C.01,

 ----------------------------------------------------------------------
 #t hf aug-cc-pvdz symm=none int=(grid=ultrafine) guess=(read,tcheck) s
 table=(opt,rrhf)
 ----------------------------------------------------------------------
 -----
 title
 -----
 Symbolic Z-matrix:
 Charge = -1 Multiplicity = 1

 SCF Done:  E(RHF) =  -214.529543669     A.U. after   12 cycles
 Normal termination of Gaussian 16 at Wed Apr  9 02:12:58 2025.
 Gaussian 16:  ES64L-G16RevC.01  3-Jul-2019

 ----------------------------------------------------------------------
 #t hf aug-cc-pvdz iop(5/13=1,5/36=2,99/5=2) pseudo=read geom=check gue
 ss=(read,tcheck) scf=(maxcycle=1)
 ----------------------------------------------------------------------
 -----
 title
 -----
 Structure from the checkpoint file:  "BH76RC_8_mol2.chk"
 Charge = -1 Multiplicity = 1

                         Standard orientation:
 ---------------------------------------------------------------------
 Center     Atomic      Atomic             Coordinates (Angstroms)
 Number     Number       Type             X           Y           Z
 ---------------------------------------------------------------------
      1          6           0       -1.297998   -0.389518   -0.000034
      2          8           0       -0.477223    0.728021    0.000054
      3          1           0       -2.351923   -0.080231   -0.008639
      4          1           0       -1.140853   -1.035821   -0.878101
      5          1           0       -1.153178   -1.027513    0.886361
      6          1           0        0.510581    0.371160    0.000243
      7          9           0        1.749015   -0.190518   -0.000010
 ---------------------------------------------------------------------

 SCF Done:  E(RHF) =  -215.416657228     A.U. after    2 cycles

 The electronic state is 1-A.
 Alpha  occ. eigenvalues --  -28.88381 -20.81204 -11.21300  -1.47335  -0.77991
 Alpha  occ. eigenvalues --   -0.47580  -0.40804  -0.37781  -0.26294  -0.17337
 Alpha  occ. eigenvalues --   -0.10250   0.03181   0.03826   0.06359
 Alpha virt. eigenvalues --    0.14593   0.16498   0.17437   0.23514   0.24534
 Alpha virt. eigenvalues --    0.27911   0.28658   0.32481   0.36926   0.40785
 Alpha virt. eigenvalues --    0.41320   0.44717   0.45155   0.49408   0.50369

 Mulliken charges:
               1
     1  C   -2.318960
     2  O   -2.508306
     3  H    1.159247
     4  H    1.091631
     5  H    1.091687
     6  H    0.736559
     7  F   -0.251859
 Sum of Mulliken charges =  -1.00000

 Dipole moment (field-independent basis, Debye):
    X=             -3.0732    Y=             -0.2959    Z=             -0.0011  Tot=              3.0874

 Test job not archived.
 1\1\GINC-SE041\SP\RHF\Aug-CC-pVDZ\C1H4F1O1(1-)\OHZDE\09-Apr-2025\0\\#t
  hf aug-cc-pvdz iop(5/13=1,5/36=2,99/5=2) pseudo=read geom=check guess
 =(read,tcheck) scf=(maxcycle=1)\\title\\-1,1\C,0,-1.29799761,-0.389518
 35,-0.000034\O,0,-0.47722312,0.72802084,0.000054\H,0,-2.35192282,-0.08
 023226,-0.00863903\H,0,-1.14085315,-1.03582206,-0.87810079\H,0,-1.1531
 7769,-1.02751397,0.88636124\H,0,0.51058034,0.37116013,0.000243\F,0,1.7
 4901535,-0.19051703,-0.00001\\Version=ES64L-G16RevC.01\State=1-A\HF=-2
 15.4166572\RMSD=5.103e-02\Dipole=-1.2090967,-0.1164036,-0.0004454\Quad

 Normal termination of Gaussian 16 at Wed Apr  9 02:13:00 2025.
