 Gaussian 16, Revision C.01,

 ----------------------------------------------------------------------
 #t hf aug-cc-pvdz symm=none int=(grid=ultrafine) guess=(read,tcheck) s
 table=(opt,rrhf)
 ----------------------------------------------------------------------
 -----
 title
 -----
 Symbolic Z-matrix:
 Charge = -1 Multiplicity = 1

 SCF Done:  E(RHF) =  -214.473013429     A.U. after   13 cycles
 Normal termination of Gaussian 16 at Wed Apr  9 02:12:28 2025.
 Gaussian 16:  ES64L-G16RevC.01  3-Jul-2019

 ----------------------------------------------------------------------
 #t hf aug-cc-pvdz iop(5/13=1,5/36=2,99/5=2) pseudo=read geom=check gue
 ss=(read,tcheck) scf=(maxcycle=1)
 ----------------------------------------------------------------------
 -----
 title
 -----
 Structure from the checkpoint file:  "BH76RC_8_mol1.chk"
 Charge = -1 Multiplicity = 1

                         Standard orientation:
 ---------------------------------------------------------------------
 Center     Atomic      Atomic             Coordinates (Angstroms)
 Number     Number       Type             X           Y           Z
 ---------------------------------------------------------------------
      1          9           0        1.899053   -0.076457   -0.005404
      2          6           0        0.489413    0.105484    0.006768
      3          1           0        0.001304   -0.786167   -0.361155
      4          1           0        0.171943    0.298358    1.023244
      5          1           0        0.249744    0.947470   -0.630885
      6          8           0       -2.169447   -0.073143   -0.002320
      7          1           0       -3.095369    0.180697   -0.004624
 ---------------------------------------------------------------------

 SCF Done:  E(RHF) =  -215.352314006     A.U. after    2 cycles

 The electronic state is 1-A.
 Alpha  occ. eigenvalues --  -29.07781 -20.72167 -11.24101  -1.22665  -0.94790
 Alpha  occ. eigenvalues --   -0.47047  -0.43770  -0.43333  -0.22689  -0.17762
 Alpha  occ. eigenvalues --   -0.08434  -0.08281  -0.00635  -0.00616
 Alpha virt. eigenvalues --    0.16869   0.18036   0.18624   0.18867   0.26102
 Alpha virt. eigenvalues --    0.27707   0.28232   0.32029   0.39605   0.41932
 Alpha virt. eigenvalues --    0.42223   0.42534   0.46136   0.46539   0.48327

 Mulliken charges:
               1
     1  F    0.177394
     2  C   -4.154305
     3  H    1.356017
     4  H    1.312621
     5  H    1.273495
     6  O   -1.946011
     7  H    0.980789
 Sum of Mulliken charges =  -1.00000

 Dipole moment (field-independent basis, Debye):
    X=              8.6950    Y=              0.3328    Z=              0.0084  Tot=              8.7013

 Test job not archived.
 1\1\GINC-SE365\SP\RHF\Aug-CC-pVDZ\C1H4F1O1(1-)\OHZDE\09-Apr-2025\0\\#t
  hf aug-cc-pvdz iop(5/13=1,5/36=2,99/5=2) pseudo=read geom=check guess
 =(read,tcheck) scf=(maxcycle=1)\\title\\-1,1\F,0,1.89905296,-0.0764571
 1,-0.00540401\C,0,0.48941325,0.10548407,0.00676802\H,0,0.001304,-0.786
 16683,-0.36115498\H,0,0.17194291,0.29835805,1.02324351\H,0,0.24974413,
 0.94747063,-0.63088507\O,0,-2.16944664,-0.07314287,-0.00232\H,0,-3.095
 36918,0.18069708,-0.004624\\Version=ES64L-G16RevC.01\State=1-A\HF=-215
 .352314\RMSD=5.546e-02\Dipole=3.4208627,0.1309405,0.00329\Quadrupole=-

 Normal termination of Gaussian 16 at Wed Apr  9 02:12:30 2025.
