 Gaussian 16, Revision C.01,

 ----------------------------------------------------------------------
 #t hf aug-cc-pvdz symm=none int=(grid=ultrafine) guess=(read,tcheck) s
 table=(opt,rrhf)
 ----------------------------------------------------------------------
 -----
 title
 -----
 Symbolic Z-matrix:
 Charge =  0 Multiplicity = 1

 SCF Done:  E(RHF) =  -499.122199607     A.U. after   11 cycles

 1\1\GINC-SE365\Stability\RHF\Aug-CC-pVDZ\C1H3Cl1\OHZDE\09-Apr-2025\0\\
 #t hf aug-cc-pvdz symm=none int=(grid=ultrafine) guess=(read,tcheck) s
 table=(opt,rrhf)\\title\\0,1\C,0,0.,0.,-0.14991696\Cl,0,0.,0.,1.632801
 68\H,0,-0.51399776,-0.89027024,-0.49429491\H,0,-0.51399776,0.89027024,
 -0.49429491\H,0,1.02799552,0.,-0.49429491\\Version=ES64L-G16RevC.01\HF
 =-499.1221996\RMSD=1.698e-09\Dipole=0.,0.,-0.8571707\Quadrupole=0.5867
 ,0.5867001,-1.1734001,0.,0.,0.\PG=Unknown\\@
 The archive entry for this job was punched.

 Normal termination of Gaussian 16 at Wed Apr  9 02:12:05 2025.
 Gaussian 16:  ES64L-G16RevC.01  3-Jul-2019

 ----------------------------------------------------------------------
 #t hf aug-cc-pvdz iop(5/13=1,5/36=2,99/5=2) pseudo=read geom=check gue
 ss=(read,tcheck) scf=(maxcycle=1)
 ----------------------------------------------------------------------
 -----
 title
 -----
 Structure from the checkpoint file:  "BH76RC_5_mol2.chk"
 Charge =  0 Multiplicity = 1

                         Standard orientation:
 ---------------------------------------------------------------------
 Center     Atomic      Atomic             Coordinates (Angstroms)
 Number     Number       Type             X           Y           Z
 ---------------------------------------------------------------------
      1          6           0        0.000000    0.000000   -1.125888
      2         17           0        0.000000    0.000000    0.656831
      3          1           0        0.000000    1.027996   -1.470266
      4          1           0        0.890270   -0.513998   -1.470266
      5          1           0       -0.890270   -0.513998   -1.470266
 ---------------------------------------------------------------------

 SCF Done:  E(RHF) =  -499.578852940     A.U. after    2 cycles

 The electronic state is 1-A1.
 Alpha  occ. eigenvalues --  -99.87894 -11.42679 -10.45201  -9.64960  -9.64269
 Alpha  occ. eigenvalues --   -9.64269  -1.32588  -1.00983  -0.63366  -0.63366
 Alpha  occ. eigenvalues --   -0.58960  -0.47506  -0.47506
 Alpha virt. eigenvalues --    0.02249   0.06258   0.06258   0.07203   0.11263
 Alpha virt. eigenvalues --    0.15126   0.15656   0.15656   0.16526   0.16526
 Alpha virt. eigenvalues --    0.20461   0.25895   0.25895   0.26937   0.30089

 Mulliken charges:
               1
     1  C   -4.160588
     2  Cl  -0.017914
     3  H    1.392834
     4  H    1.392834
     5  H    1.392834
 Sum of Mulliken charges =  -0.00000

 Dipole moment (field-independent basis, Debye):
    X=              0.0000    Y=             -0.0000    Z=             -2.1409  Tot=              2.1409

 Test job not archived.
 1\1\GINC-SE365\SP\RHF\Aug-CC-pVDZ\C1H3Cl1\OHZDE\09-Apr-2025\0\\#t hf a
 ug-cc-pvdz iop(5/13=1,5/36=2,99/5=2) pseudo=read geom=check guess=(rea
 d,tcheck) scf=(maxcycle=1)\\title\\0,1\C,0,0.,0.,-0.14991696\Cl,0,0.,0
 .,1.63280168\H,0,-0.51399776,-0.89027024,-0.49429491\H,0,-0.51399776,0
 .89027024,-0.49429491\H,0,1.02799552,0.,-0.49429491\\Version=ES64L-G16
 RevC.01\State=1-A1\HF=-499.5788529\RMSD=6.109e-02\Dipole=0.,0.,-0.8423
 079\Quadrupole=-0.7236946,-0.7236946,1.4473892,0.,0.,0.\PG=C03V [C3(C1
 Cl1),3SGV(H1)]\\@

 Normal termination of Gaussian 16 at Wed Apr  9 02:12:06 2025.
