 Gaussian 16, Revision C.01,

 ----------------------------------------------------------------------
 #t hf aug-cc-pvdz symm=none int=(grid=ultrafine) guess=(read,tcheck) s
 table=(opt,rrhf)
 ----------------------------------------------------------------------
 -----
 title
 -----
 Symbolic Z-matrix:
 Charge = -1 Multiplicity = 1

 SCF Done:  E(RHF) =  -598.574269392     A.U. after   12 cycles
 Normal termination of Gaussian 16 at Wed Apr  9 02:12:29 2025.
 Gaussian 16:  ES64L-G16RevC.01  3-Jul-2019

 ----------------------------------------------------------------------
 #t hf aug-cc-pvdz iop(5/13=1,5/36=2,99/5=2) pseudo=read geom=check gue
 ss=(read,tcheck) scf=(maxcycle=1)
 ----------------------------------------------------------------------
 -----
 title
 -----
 Structure from the checkpoint file:  "BH76RC_6_mol1.chk"
 Charge = -1 Multiplicity = 1

                         Standard orientation:
 ---------------------------------------------------------------------
 Center     Atomic      Atomic             Coordinates (Angstroms)
 Number     Number       Type             X           Y           Z
 ---------------------------------------------------------------------
      1         17           0        0.000000    0.000000    1.623140
      2          6           0        0.000000    0.000000   -0.227359
      3          1           0        0.000000    1.026323   -0.555139
      4          1           0        0.888822   -0.513162   -0.555139
      5          1           0       -0.888822   -0.513162   -0.555139
      6          9           0        0.000000    0.000000   -2.729311
 ---------------------------------------------------------------------

 SCF Done:  E(RHF) =  -599.388955279     A.U. after    2 cycles

 The electronic state is 1-A1.
 Alpha  occ. eigenvalues --  -99.72337 -28.84727 -11.25534 -10.29546  -9.49327
 Alpha  occ. eigenvalues --   -9.48733  -9.48733  -1.15408  -0.83914  -0.45875
 Alpha  occ. eigenvalues --   -0.45875  -0.42182  -0.32440  -0.32440  -0.23086
 Alpha  occ. eigenvalues --    0.06455   0.06585   0.06585
 Alpha virt. eigenvalues --    0.15959   0.18121   0.18121   0.20018   0.26799
 Alpha virt. eigenvalues --    0.27314   0.27314   0.30340   0.30340   0.33521
 Alpha virt. eigenvalues --    0.36498   0.40731   0.41719   0.41719   0.47213

 Mulliken charges:
               1
     1  Cl  -0.417485
     2  C   -3.736230
     3  H    1.359205
     4  H    1.359205
     5  H    1.359205
     6  F   -0.923900
 Sum of Mulliken charges =  -1.00000

 Dipole moment (field-independent basis, Debye):
    X=              0.0000    Y=              0.0000    Z=              5.0260  Tot=              5.0260

 Test job not archived.
 1\1\GINC-SE127\SP\RHF\Aug-CC-pVDZ\C1H3Cl1F1(1-)\OHZDE\09-Apr-2025\0\\#
 t hf aug-cc-pvdz iop(5/13=1,5/36=2,99/5=2) pseudo=read geom=check gues
 s=(read,tcheck) scf=(maxcycle=1)\\title\\-1,1\Cl,0,0.,0.,2.12296416\C,
 0,0.,0.,0.27246585\H,0,-0.51316166,-0.88882207,-0.05531445\H,0,-0.5131
 6166,0.88882207,-0.05531445\H,0,1.02632332,0.,-0.05531445\F,0,0.,0.,-2
 .22948665\\Version=ES64L-G16RevC.01\State=1-A1\HF=-599.3889553\RMSD=6.
 653e-02\Dipole=0.,0.,1.9773865\Quadrupole=8.7789213,8.7789213,-17.5578
 426,0.,0.,0.\PG=C03V [C3(F1C1Cl1),3SGV(H1)]\\@

 Normal termination of Gaussian 16 at Wed Apr  9 02:12:31 2025.
