 Gaussian 16, Revision C.01,

 ----------------------------------------------------------------------
 #t hf aug-cc-pvdz symm=none int=(grid=ultrafine) guess=(read,tcheck) s
 table=(opt,rrhf)
 ----------------------------------------------------------------------
 -----
 title
 -----
 Symbolic Z-matrix:
 Charge = -1 Multiplicity = 1

 SCF Done:  E(RHF) =  -598.633442914     A.U. after   11 cycles
 Normal termination of Gaussian 16 at Wed Apr  9 02:12:28 2025.
 Gaussian 16:  ES64L-G16RevC.01  3-Jul-2019

 ----------------------------------------------------------------------
 #t hf aug-cc-pvdz iop(5/13=1,5/36=2,99/5=2) pseudo=read geom=check gue
 ss=(read,tcheck) scf=(maxcycle=1)
 ----------------------------------------------------------------------
 -----
 title
 -----
 Structure from the checkpoint file:  "BH76RC_6_mol2.chk"
 Charge = -1 Multiplicity = 1

                         Standard orientation:
 ---------------------------------------------------------------------
 Center     Atomic      Atomic             Coordinates (Angstroms)
 Number     Number       Type             X           Y           Z
 ---------------------------------------------------------------------
      1          9           0        0.000000    0.000000   -2.648542
      2          6           0        0.000000    0.000000   -1.240168
      3          1           0       -0.000000    1.024720   -0.886408
      4          1           0       -0.887433   -0.512360   -0.886408
      5          1           0        0.887433   -0.512360   -0.886408
      6         17           0        0.000000    0.000000    1.996301
 ---------------------------------------------------------------------

 SCF Done:  E(RHF) =  -599.436114219     A.U. after    2 cycles

 The electronic state is 1-A1.
 Alpha  occ. eigenvalues --  -99.58620 -29.10883 -11.27480 -10.15174  -9.34903
 Alpha  occ. eigenvalues --   -9.34736  -9.34736  -0.98731  -0.93607  -0.50665
 Alpha  occ. eigenvalues --   -0.46985  -0.46985  -0.25072  -0.21994  -0.21994
 Alpha  occ. eigenvalues --   -0.20570  -0.11044  -0.11044
 Alpha virt. eigenvalues --    0.16167   0.17601   0.17601   0.23489   0.26895
 Alpha virt. eigenvalues --    0.26895   0.29195   0.31828   0.32220   0.32220
 Alpha virt. eigenvalues --    0.38067   0.40679   0.40679   0.44370   0.45307

 Mulliken charges:
               1
     1  F    0.135194
     2  C   -4.006804
     3  H    1.293646
     4  H    1.293646
     5  H    1.293646
     6  Cl  -1.009327
 Sum of Mulliken charges =  -1.00000

 Dipole moment (field-independent basis, Debye):
    X=             -0.0000    Y=              0.0000    Z=             -8.6764  Tot=              8.6764

 Test job not archived.
 1\1\GINC-SE334\SP\RHF\Aug-CC-pVDZ\C1H3Cl1F1(1-)\OHZDE\09-Apr-2025\0\\#
 t hf aug-cc-pvdz iop(5/13=1,5/36=2,99/5=2) pseudo=read geom=check gues
 s=(read,tcheck) scf=(maxcycle=1)\\title\\-1,1\F,0,0.,0.,-1.88993612\C,
 0,0.,0.,-0.48156273\H,0,-0.51235996,0.88743348,-0.12780247\H,0,-0.5123
 5996,-0.88743348,-0.12780247\H,0,1.02471992,0.,-0.12780247\Cl,0,0.,0.,
 2.75490626\\Version=ES64L-G16RevC.01\State=1-A1\HF=-599.4361142\RMSD=5
 .403e-02\Dipole=0.,0.,-3.4135702\Quadrupole=5.4143151,5.4143151,-10.82
 86302,0.,0.,0.\PG=C03V [C3(F1C1Cl1),3SGV(H1)]\\@

 Normal termination of Gaussian 16 at Wed Apr  9 02:12:29 2025.
