 Gaussian 16, Revision C.01,

 ----------------------------------------------------------------------
 #t hf aug-cc-pvdz symm=none int=(grid=ultrafine) guess=(read,tcheck) s
 table=(opt,rrhf)
 ----------------------------------------------------------------------
 -----
 title
 -----
 Symbolic Z-matrix:
 Charge =  0 Multiplicity = 1

 SCF Done:  E(RHF) =  -521.848443976     A.U. after   14 cycles
 Normal termination of Gaussian 16 at Wed Apr  9 02:13:42 2025.
 Gaussian 16:  ES64L-G16RevC.01  3-Jul-2019

 ----------------------------------------------------------------------
 #t hf aug-cc-pvdz iop(5/13=1,5/36=2,99/5=2) pseudo=read geom=check gue
 ss=(read,tcheck) scf=(maxcycle=1)
 ----------------------------------------------------------------------
 -----
 title
 -----
 Structure from the checkpoint file:  "BHPERI26_21_mol3.chk"
 Charge =  0 Multiplicity = 1

                         Standard orientation:
 ---------------------------------------------------------------------
 Center     Atomic      Atomic             Coordinates (Angstroms)
 Number     Number       Type             X           Y           Z
 ---------------------------------------------------------------------
      1          6           0       -0.346546   -0.214154    1.304476
      2         14           0       -1.060364    0.923157    0.000000
      3          6           0        1.665055    0.555957    0.697742
      4          6           0       -0.346546   -1.479880    0.704231
      5          6           0       -0.346546   -0.214154   -1.304476
      6          6           0        1.665055    0.555957   -0.697742
      7          6           0       -0.346546   -1.479880   -0.704231
      8          1           0       -0.363922   -0.112722    2.383393
      9          1           0       -2.551732    0.897438    0.000000
     10          1           0       -0.614421    2.338869    0.000000
     11          1           0        1.581146    1.493924    1.233399
     12          1           0        2.167138   -0.234286    1.237947
     13          1           0       -0.210520   -2.398707    1.267424
     14          1           0       -0.363922   -0.112722   -2.383393
     15          1           0        1.581146    1.493924   -1.233399
     16          1           0        2.167138   -0.234286   -1.237947
     17          1           0       -0.210520   -2.398707   -1.267424
 ---------------------------------------------------------------------

 SCF Done:  E(RHF) =  -523.216143493     A.U. after    2 cycles

 The electronic state is 1-A'.
 Alpha  occ. eigenvalues --  -76.20403 -11.44939 -11.42531 -11.40002 -11.38636
 Alpha  occ. eigenvalues --  -11.36970 -11.35483  -5.54199  -2.18846  -2.18408
 Alpha  occ. eigenvalues --   -2.16511  -1.27908  -1.12007  -1.02731  -0.89151
 Alpha  occ. eigenvalues --   -0.83628  -0.73152  -0.71820  -0.67515  -0.63057
 Alpha  occ. eigenvalues --   -0.54982  -0.53283  -0.52615  -0.49969  -0.48366
 Alpha  occ. eigenvalues --   -0.45062  -0.43043  -0.38870  -0.30941  -0.29067
 Alpha virt. eigenvalues --    0.03842   0.04728   0.05352   0.05646   0.05678
 Alpha virt. eigenvalues --    0.05901   0.06099   0.06399   0.07423   0.07884
 Alpha virt. eigenvalues --    0.08361   0.09177   0.10934   0.12081   0.12605

 Mulliken charges:
               1
     1  C   -2.888174
     2  Si   6.026084
     3  C   -2.925628
     4  C   -0.898550
     5  C   -2.888174
     6  C   -2.925628
     7  C   -0.898550
     8  H    1.351303
     9  H   -2.043319
    10  H   -1.826873
    11  H    1.346754
    12  H    1.431314
    13  H    1.505035
    14  H    1.351303
    15  H    1.346754
    16  H    1.431314
    17  H    1.505035
 Sum of Mulliken charges =   0.00000

 Dipole moment (field-independent basis, Debye):
    X=              1.0888    Y=             -0.5374    Z=             -0.0000  Tot=              1.2142

 Test job not archived.
 1\1\GINC-SE334\SP\RHF\Aug-CC-pVDZ\C6H10Si1\OHZDE\09-Apr-2025\0\\#t hf
 aug-cc-pvdz iop(5/13=1,5/36=2,99/5=2) pseudo=read geom=check guess=(re
 ad,tcheck) scf=(maxcycle=1)\\title\\0,1\C,0,-0.60440289,0.09628447,1.3
 0447607\Si,0,-0.74911343,1.43122735,0.\C,0,1.54144542,-0.09064058,0.69
 774155\C,0,-1.15781215,-1.04204796,0.70423074\C,0,-0.60440289,0.096284
 47,-1.30447607\C,0,1.54144542,-0.09064058,-0.69774155\C,0,-1.15781215,
 -1.04204796,-0.70423074\H,0,-0.57568156,0.19510472,2.38339309\H,0,-2.1
 0162282,2.06016253,0.\H,0,0.27093286,2.50947166,0.\H,0,1.87608655,0.78

 Normal termination of Gaussian 16 at Wed Apr  9 02:13:47 2025.
