 Gaussian 16, Revision C.01,

 ----------------------------------------------------------------------
 #t hf aug-cc-pvdz symm=none int=(grid=ultrafine) guess=(read,tcheck) s
 table=(opt,rrhf)
 ----------------------------------------------------------------------
 -----
 title
 -----
 Symbolic Z-matrix:
 Charge =  0 Multiplicity = 1

 SCF Done:  E(RHF) =  -629.286459389     A.U. after   15 cycles
 Normal termination of Gaussian 16 at Wed Apr  9 02:14:09 2025.
 Gaussian 16:  ES64L-G16RevC.01  3-Jul-2019

 ----------------------------------------------------------------------
 #t hf aug-cc-pvdz iop(5/13=1,5/36=2,99/5=2) pseudo=read geom=check gue
 ss=(read,tcheck) scf=(maxcycle=1)
 ----------------------------------------------------------------------
 -----
 title
 -----
 Structure from the checkpoint file:  "BHPERI26_26_mol3.chk"
 Charge =  0 Multiplicity = 1

                         Standard orientation:
 ---------------------------------------------------------------------
 Center     Atomic      Atomic             Coordinates (Angstroms)
 Number     Number       Type             X           Y           Z
 ---------------------------------------------------------------------
      1          6           0       -0.005137    0.390174    1.204752
      2         16           0        1.216920    0.813244    0.000000
      3          6           0       -0.005137   -1.714447    0.702159
      4          6           0       -1.294288    0.694069    0.686481
      5          6           0       -0.005137    0.390174   -1.204752
      6          6           0       -0.005137   -1.714447   -0.702159
      7          6           0       -1.294288    0.694069   -0.686481
      8          1           0        0.260498    0.477189    2.250149
      9          1           0        0.915735   -1.928851    1.230286
     10          1           0       -0.903787   -2.002111    1.233478
     11          1           0       -2.180432    0.729041    1.307287
     12          1           0        0.260498    0.477189   -2.250149
     13          1           0        0.915735   -1.928851   -1.230286
     14          1           0       -0.903787   -2.002111   -1.233478
     15          1           0       -2.180432    0.729041   -1.307287
 ---------------------------------------------------------------------

 SCF Done:  E(RHF) =  -630.716736858     A.U. after    2 cycles

 The electronic state is 1-A'.
 Alpha  occ. eigenvalues --  -75.68890 -13.15476 -13.13722 -13.05449 -11.47155
 Alpha  occ. eigenvalues --  -11.42837 -11.42663 -11.41236 -11.36838 -11.36194
 Alpha  occ. eigenvalues --   -8.03226  -1.36951  -1.11342  -1.07625  -1.04024
 Alpha  occ. eigenvalues --   -0.83380  -0.81292  -0.76051  -0.71076  -0.63174
 Alpha  occ. eigenvalues --   -0.56113  -0.53768  -0.53213  -0.50337  -0.49503
 Alpha  occ. eigenvalues --   -0.43460  -0.40139  -0.33303  -0.29580  -0.23188
 Alpha virt. eigenvalues --    0.03742   0.04474   0.05331   0.05751   0.05848
 Alpha virt. eigenvalues --    0.06281   0.06481   0.07584   0.08375   0.10437
 Alpha virt. eigenvalues --    0.11046   0.12445   0.13085   0.14280   0.14597

 Mulliken charges:
               1
     1  C   -3.032082
     2  S    1.015787
     3  C   -2.646566
     4  C   -0.576266
     5  C   -3.032082
     6  C   -2.646566
     7  C   -0.576266
     8  H    1.407081
     9  H    1.377469
    10  H    1.472713
    11  H    1.489757
    12  H    1.407081
    13  H    1.377469
    14  H    1.472713
    15  H    1.489757
 Sum of Mulliken charges =  -0.00000

 Dipole moment (field-independent basis, Debye):
    X=              0.9538    Y=              0.2939    Z=             -0.0000  Tot=              0.9980

 Test job not archived.
 1\1\GINC-SE029\SP\RHF\Aug-CC-pVDZ\C6H8S1\OHZDE\09-Apr-2025\0\\#t hf au
 g-cc-pvdz iop(5/13=1,5/36=2,99/5=2) pseudo=read geom=check guess=(read
 ,tcheck) scf=(maxcycle=1)\\title\\0,1\C,0,0.82811617,-0.21159069,1.204
 75228\S,0,1.44229834,-1.34965552,0.\C,0,-1.2490846,-0.5502165,0.702159
 2\C,0,0.92063189,1.10965989,0.68648123\C,0,0.82811617,-0.21159069,-1.2
 0475228\C,0,-1.2490846,-0.5502165,-0.7021592\C,0,0.92063189,1.10965989
 ,-0.68648123\H,0,0.95673688,-0.45976412,2.25014885\H,0,-1.31253023,-1.
 49358792,1.23028597\H,0,-1.67759031,0.29044161,1.23347838\H,0,0.812571

 Normal termination of Gaussian 16 at Wed Apr  9 02:14:13 2025.
