 Gaussian 16, Revision C.01,

 ----------------------------------------------------------------------
 #t hf aug-cc-pvdz symm=none int=(grid=ultrafine) guess=(read,tcheck) s
 table=(opt,rrhf)
 ----------------------------------------------------------------------
 -----
 title
 -----
 Symbolic Z-matrix:
 Charge =  0 Multiplicity = 1

 SCF Done:  E(RHF) =  -443.872463111     A.U. after   12 cycles

 1\1\GINC-SE127\Stability\RHF\Aug-CC-pVDZ\C4H6Si1\OHZDE\09-Apr-2025\0\\
 #t hf aug-cc-pvdz symm=none int=(grid=ultrafine) guess=(read,tcheck) s
 table=(opt,rrhf)\\title\\0,1\Si,0,0.,0.,-1.37623845\C,0,0.,-1.35357739
 ,-0.07601308\C,0,0.,1.35357739,-0.07601308\C,0,0.,-0.74316821,1.123967
 26\C,0,0.,0.74316821,1.12396726\H,0,-1.20433713,0.,-2.24936337\H,0,1.2
 0433713,0.,-2.24936337\H,0,0.,-2.43103669,-0.18113111\H,0,0.,2.4310366
 9,-0.18113111\H,0,0.,-1.27765036,2.07065953\H,0,0.,1.27765036,2.070659
 53\\Version=ES64L-G16RevC.01\HF=-443.8724631\RMSD=6.104e-09\Dipole=0.,

 Normal termination of Gaussian 16 at Wed Apr  9 02:13:04 2025.
 Gaussian 16:  ES64L-G16RevC.01  3-Jul-2019

 ----------------------------------------------------------------------
 #t hf aug-cc-pvdz iop(5/13=1,5/36=2,99/5=2) pseudo=read geom=check gue
 ss=(read,tcheck) scf=(maxcycle=1)
 ----------------------------------------------------------------------
 -----
 title
 -----
 Structure from the checkpoint file:  "BHPERI26_21_mol1.chk"
 Charge =  0 Multiplicity = 1

                         Standard orientation:
 ---------------------------------------------------------------------
 Center     Atomic      Atomic             Coordinates (Angstroms)
 Number     Number       Type             X           Y           Z
 ---------------------------------------------------------------------
      1         14           0       -0.000000    0.000000    1.207794
      2          6           0        0.000000    1.353577   -0.092431
      3          6           0       -0.000000   -1.353577   -0.092431
      4          6           0        0.000000    0.743168   -1.292412
      5          6           0       -0.000000   -0.743168   -1.292412
      6          1           0       -1.204337    0.000000    2.080919
      7          1           0        1.204337   -0.000000    2.080919
      8          1           0        0.000000    2.431037    0.012687
      9          1           0       -0.000000   -2.431037    0.012687
     10          1           0        0.000000    1.277650   -2.239104
     11          1           0       -0.000000   -1.277650   -2.239104
 ---------------------------------------------------------------------

 SCF Done:  E(RHF) =  -444.784215774     A.U. after    2 cycles

 The electronic state is 1-A1.
 Alpha  occ. eigenvalues --  -76.20820 -11.44934 -11.40643 -11.37494 -11.35902
 Alpha  occ. eigenvalues --   -5.54609  -2.19006  -2.18588  -2.16444  -1.26021
 Alpha  occ. eigenvalues --   -1.03773  -0.88407  -0.73142  -0.72678  -0.67408
 Alpha  occ. eigenvalues --   -0.55634  -0.49253  -0.49179  -0.42973  -0.42235
 Alpha  occ. eigenvalues --   -0.40020  -0.31425
 Alpha virt. eigenvalues --    0.03477   0.05067   0.05692   0.05826   0.05837
 Alpha virt. eigenvalues --    0.07025   0.07420   0.07678   0.08273   0.10362
 Alpha virt. eigenvalues --    0.13228   0.13491   0.13643   0.14366   0.14397

 Mulliken charges:
               1
     1  Si   6.023860
     2  C   -3.099033
     3  C   -3.099033
     4  C   -0.819036
     5  C   -0.819036
     6  H   -1.744770
     7  H   -1.744770
     8  H    1.164849
     9  H    1.164849
    10  H    1.486061
    11  H    1.486061
 Sum of Mulliken charges =   0.00000

 Dipole moment (field-independent basis, Debye):
    X=              0.0000    Y=             -0.0000    Z=             -1.2922  Tot=              1.2922

 Test job not archived.
 1\1\GINC-SE127\SP\RHF\Aug-CC-pVDZ\C4H6Si1\OHZDE\09-Apr-2025\0\\#t hf a
 ug-cc-pvdz iop(5/13=1,5/36=2,99/5=2) pseudo=read geom=check guess=(rea
 d,tcheck) scf=(maxcycle=1)\\title\\0,1\Si,0,0.,0.,-1.37623845\C,0,0.,-
 1.35357739,-0.07601308\C,0,0.,1.35357739,-0.07601308\C,0,0.,-0.7431682
 1,1.12396726\C,0,0.,0.74316821,1.12396726\H,0,-1.20433713,0.,-2.249363
 37\H,0,1.20433713,0.,-2.24936337\H,0,0.,-2.43103669,-0.18113111\H,0,0.
 ,2.43103669,-0.18113111\H,0,0.,-1.27765036,2.07065953\H,0,0.,1.2776503
 6,2.07065953\\Version=ES64L-G16RevC.01\State=1-A1\HF=-444.7842158\RMSD

 Normal termination of Gaussian 16 at Wed Apr  9 02:13:07 2025.
