 Gaussian 16, Revision C.01,

 ----------------------------------------------------------------------
 #t hf aug-cc-pvdz symm=none int=(grid=ultrafine) guess=(read,tcheck) s
 table=(opt,rrhf)
 ----------------------------------------------------------------------
 -----
 title
 -----
 Symbolic Z-matrix:
 Charge =  0 Multiplicity = 1

 SCF Done:  E(RHF) =  -573.067317299     A.U. after   15 cycles
 Normal termination of Gaussian 16 at Wed Apr  9 02:13:40 2025.
 Gaussian 16:  ES64L-G16RevC.01  3-Jul-2019

 ----------------------------------------------------------------------
 #t hf aug-cc-pvdz iop(5/13=1,5/36=2,99/5=2) pseudo=read geom=check gue
 ss=(read,tcheck) scf=(maxcycle=1)
 ----------------------------------------------------------------------
 -----
 title
 -----
 Structure from the checkpoint file:  "BHPERI26_24_mol3.chk"
 Charge =  0 Multiplicity = 1

                         Standard orientation:
 ---------------------------------------------------------------------
 Center     Atomic      Atomic             Coordinates (Angstroms)
 Number     Number       Type             X           Y           Z
 ---------------------------------------------------------------------
      1          1           0       -1.555451    1.784068    1.290038
      2          6           0       -0.800401    1.277384    0.698094
      3          6           0        0.136699    0.394952    1.247013
      4          6           0       -0.800401    1.277384   -0.698094
      5          1           0        2.017003    1.316940    0.000000
      6         15           0        1.441209    0.002458    0.000000
      7          6           0       -0.800401   -1.551526    0.697823
      8          1           0        0.314024    0.315799    2.312915
      9          6           0       -0.800401   -1.551526   -0.697823
     10          1           0       -1.555451    1.784068   -1.290038
     11          6           0        0.136699    0.394952   -1.247013
     12          1           0        0.314024    0.315799   -2.312915
     13          1           0       -0.077974   -2.157056   -1.231458
     14          1           0       -1.713547   -1.344579    1.238859
     15          1           0       -0.077974   -2.157056    1.231458
     16          1           0       -1.713547   -1.344579   -1.238859
 ---------------------------------------------------------------------

 SCF Done:  E(RHF) =  -574.460814058     A.U. after    2 cycles

 The electronic state is 1-A'.
 Alpha  occ. eigenvalues -- -105.17456 -11.46072 -11.42697 -11.41141 -11.40186
 Alpha  occ. eigenvalues --  -11.36906 -11.36259  -2.74850  -1.50617  -1.46746
 Alpha  occ. eigenvalues --   -1.44375  -1.24223  -1.11927  -1.00593  -0.88420
 Alpha  occ. eigenvalues --   -0.83817  -0.71097  -0.70998  -0.66125  -0.61877
 Alpha  occ. eigenvalues --   -0.54876  -0.53239  -0.50756  -0.49596  -0.48718
 Alpha  occ. eigenvalues --   -0.31927  -0.30893  -0.23916  -0.22263  -0.01197
 Alpha virt. eigenvalues --    0.04235   0.04877   0.05568   0.05657   0.06137
 Alpha virt. eigenvalues --    0.06151   0.06691   0.07547   0.08054   0.09305
 Alpha virt. eigenvalues --    0.10380   0.10443   0.12978   0.13656   0.14401

 Mulliken charges:
               1
     1  H    1.445509
     2  C   -1.403316
     3  C   -2.564967
     4  C   -1.403316
     5  H   -0.470129
     6  P    2.797846
     7  C   -2.889124
     8  H    1.438657
     9  C   -2.889124
    10  H    1.445509
    11  C   -2.564967
    12  H    1.438657
    13  H    1.415962
    14  H    1.393421
    15  H    1.415962
    16  H    1.393421
 Sum of Mulliken charges =  -0.00000

 Dipole moment (field-independent basis, Debye):
    X=             -1.4086    Y=             -0.5172    Z=             -0.0000  Tot=              1.5006

 Test job not archived.
 1\1\GINC-SE364\SP\RHF\Aug-CC-pVDZ\C6H9P1\OHZDE\09-Apr-2025\0\\#t hf au
 g-cc-pvdz iop(5/13=1,5/36=2,99/5=2) pseudo=read geom=check guess=(read
 ,tcheck) scf=(maxcycle=1)\\title\\0,1\H,0,-1.20945809,1.86172553,1.290
 03837\C,0,-0.45440788,1.35504139,0.6980942\C,0,0.48269239,0.47260913,1
 .24701336\C,0,-0.45440788,1.35504139,-0.6980942\H,0,2.36299592,1.39459
 74,0.\P,0,1.78720176,0.08011502,0.\C,0,-0.45440788,-1.47386842,0.69782
 32\H,0,0.66001744,0.39345611,2.31291466\C,0,-0.45440788,-1.47386842,-0
 .6978232\H,0,-1.20945809,1.86172553,-1.29003837\C,0,0.48269239,0.47260

 Normal termination of Gaussian 16 at Wed Apr  9 02:13:44 2025.
