 Gaussian 16, Revision C.01,

 ----------------------------------------------------------------------
 #t hf aug-cc-pvdz symm=none int=(grid=ultrafine) guess=(read,tcheck) s
 table=(opt,rrhf)
 ----------------------------------------------------------------------
 -----
 title
 -----
 Symbolic Z-matrix:
 Charge =  0 Multiplicity = 1

 SCF Done:  E(RHF) =  -573.066873776     A.U. after   15 cycles
 Normal termination of Gaussian 16 at Wed Apr  9 02:13:49 2025.
 Gaussian 16:  ES64L-G16RevC.01  3-Jul-2019

 ----------------------------------------------------------------------
 #t hf aug-cc-pvdz iop(5/13=1,5/36=2,99/5=2) pseudo=read geom=check gue
 ss=(read,tcheck) scf=(maxcycle=1)
 ----------------------------------------------------------------------
 -----
 title
 -----
 Structure from the checkpoint file:  "BHPERI26_25_mol3.chk"
 Charge =  0 Multiplicity = 1

                         Standard orientation:
 ---------------------------------------------------------------------
 Center     Atomic      Atomic             Coordinates (Angstroms)
 Number     Number       Type             X           Y           Z
 ---------------------------------------------------------------------
      1          1           0       -2.176208    0.853743    1.292398
      2          6           0       -1.277980    0.737855    0.696552
      3          6           0       -0.029503    0.378132    1.243025
      4          6           0       -1.277980    0.737855   -0.696552
      5          1           0        2.132482   -0.173140    0.000000
      6         15           0        1.203305    0.902023    0.000000
      7          6           0       -0.029503   -1.774930    0.696470
      8          1           0        0.159520    0.417499    2.309561
      9          6           0       -0.029503   -1.774930   -0.696470
     10          1           0       -2.176208    0.853743   -1.292398
     11          6           0       -0.029503    0.378132   -1.243025
     12          1           0        0.159520    0.417499   -2.309561
     13          1           0        0.885185   -1.984480   -1.237100
     14          1           0       -0.937611   -2.011713    1.235148
     15          1           0        0.885185   -1.984480    1.237100
     16          1           0       -0.937611   -2.011713   -1.235148
 ---------------------------------------------------------------------

 SCF Done:  E(RHF) =  -574.460884419     A.U. after    2 cycles

 The electronic state is 1-A'.
 Alpha  occ. eigenvalues -- -105.17654 -11.46106 -11.42332 -11.41023 -11.40237
 Alpha  occ. eigenvalues --  -11.36595 -11.36258  -2.75400  -1.52324  -1.47691
 Alpha  occ. eigenvalues --   -1.43694  -1.24510  -1.11335  -1.00509  -0.88719
 Alpha  occ. eigenvalues --   -0.83365  -0.71600  -0.71148  -0.65748  -0.61516
 Alpha  occ. eigenvalues --   -0.54463  -0.53288  -0.50890  -0.49123  -0.48903
 Alpha  occ. eigenvalues --   -0.31968  -0.31007  -0.24245  -0.21645  -0.02547
 Alpha virt. eigenvalues --    0.04099   0.04809   0.05614   0.05620   0.06108
 Alpha virt. eigenvalues --    0.06354   0.06682   0.07471   0.07911   0.09670
 Alpha virt. eigenvalues --    0.10358   0.11555   0.12984   0.13161   0.14141

 Mulliken charges:
               1
     1  H    1.433965
     2  C   -1.357999
     3  C   -2.756517
     4  C   -1.357999
     5  H   -0.567020
     6  P    3.455084
     7  C   -2.915966
     8  H    1.369292
     9  C   -2.915966
    10  H    1.433965
    11  C   -2.756517
    12  H    1.369292
    13  H    1.369207
    14  H    1.413986
    15  H    1.369207
    16  H    1.413986
 Sum of Mulliken charges =   0.00000

 Dipole moment (field-independent basis, Debye):
    X=              2.3986    Y=              2.3660    Z=             -0.0000  Tot=              3.3692

 Test job not archived.
 1\1\GINC-SE143\SP\RHF\Aug-CC-pVDZ\C6H9P1\OHZDE\09-Apr-2025\0\\#t hf au
 g-cc-pvdz iop(5/13=1,5/36=2,99/5=2) pseudo=read geom=check guess=(read
 ,tcheck) scf=(maxcycle=1)\\title\\0,1\H,0,-1.95893181,1.23117454,1.292
 39837\C,0,-1.06070455,1.11528651,0.6965522\C,0,0.1877728,0.7555634,1.2
 4302535\C,0,-1.06070455,1.11528651,-0.6965522\H,0,2.34975742,0.2042912
 5,0.\P,0,1.42058115,1.27945455,0.\C,0,0.1877728,-1.39749821,0.6964702\
 H,0,0.37679586,0.79493041,2.30956066\C,0,0.1877728,-1.39749821,-0.6964
 702\H,0,-1.95893181,1.23117454,-1.29239837\C,0,0.1877728,0.7555634,-1.

 Normal termination of Gaussian 16 at Wed Apr  9 02:13:54 2025.
