 Gaussian 16, Revision C.01,

 ----------------------------------------------------------------------
 #t hf aug-cc-pvdz symm=none int=(grid=ultrafine) guess=(read,tcheck) s
 table=(opt,rrhf)
 ----------------------------------------------------------------------
 -----
 title
 -----
 Symbolic Z-matrix:
 Charge =  0 Multiplicity = 1

 SCF Done:  E(RHF) =  -551.328298272     A.U. after   13 cycles
 Normal termination of Gaussian 16 at Wed Apr  9 02:13:09 2025.
 Gaussian 16:  ES64L-G16RevC.01  3-Jul-2019

 ----------------------------------------------------------------------
 #t hf aug-cc-pvdz iop(5/13=1,5/36=2,99/5=2) pseudo=read geom=check gue
 ss=(read,tcheck) scf=(maxcycle=1)
 ----------------------------------------------------------------------
 -----
 title
 -----
 Structure from the checkpoint file:  "BHPERI26_26_mol1.chk"
 Charge =  0 Multiplicity = 1

                         Standard orientation:
 ---------------------------------------------------------------------
 Center     Atomic      Atomic             Coordinates (Angstroms)
 Number     Number       Type             X           Y           Z
 ---------------------------------------------------------------------
      1          6           0        0.000000    0.713555   -1.270864
      2          6           0        0.000000    1.240985   -0.012203
      3         16           0        0.000000    0.000000    1.198037
      4          6           0       -0.000000   -1.240985   -0.012203
      5          6           0       -0.000000   -0.713555   -1.270864
      6          1           0        0.000000    1.318136   -2.168158
      7          1           0        0.000000    2.278819    0.282266
      8          1           0       -0.000000   -2.278819    0.282266
      9          1           0       -0.000000   -1.318136   -2.168158
 ---------------------------------------------------------------------

 SCF Done:  E(RHF) =  -552.297759093     A.U. after    2 cycles

 The electronic state is 1-A1.
 Alpha  occ. eigenvalues --  -75.70945 -13.14530 -13.14096 -13.02468 -11.46690
 Alpha  occ. eigenvalues --  -11.42800 -11.41227 -11.37248  -8.05432  -1.36230
 Alpha  occ. eigenvalues --   -1.07788  -1.04600  -0.80733  -0.77189  -0.71096
 Alpha  occ. eigenvalues --   -0.56167  -0.50753  -0.50018  -0.45643  -0.38512
 Alpha  occ. eigenvalues --   -0.32204  -0.26426
 Alpha virt. eigenvalues --    0.03229   0.04465   0.05669   0.05795   0.07670
 Alpha virt. eigenvalues --    0.11417   0.11729   0.12871   0.13936   0.14228
 Alpha virt. eigenvalues --    0.14599   0.14969   0.15182   0.15579   0.15781

 Mulliken charges:
               1
     1  C   -0.344714
     2  C   -3.131800
     3  S    1.701817
     4  C   -3.131800
     5  C   -0.344714
     6  H    1.422718
     7  H    1.202887
     8  H    1.202887
     9  H    1.422718
 Sum of Mulliken charges =  -0.00000

 Dipole moment (field-independent basis, Debye):
    X=             -0.0000    Y=             -0.0000    Z=              1.7697  Tot=              1.7697

 Test job not archived.
 1\1\GINC-SE365\SP\RHF\Aug-CC-pVDZ\C4H4S1\OHZDE\09-Apr-2025\0\\#t hf au
 g-cc-pvdz iop(5/13=1,5/36=2,99/5=2) pseudo=read geom=check guess=(read
 ,tcheck) scf=(maxcycle=1)\\title\\0,1\C,0,-0.7135547,0.,-0.69976624\C,
 0,-1.24098496,0.,0.55889443\S,0,0.,0.,1.76913499\C,0,1.24098496,0.,0.5
 5889443\C,0,0.7135547,0.,-0.69976624\H,0,-1.3181355,0.,-1.5970597\H,0,
 -2.27881941,0.,0.85336402\H,0,2.27881941,0.,0.85336402\H,0,1.3181355,0
 .,-1.5970597\\Version=ES64L-G16RevC.01\State=1-A1\HF=-552.2977591\RMSD
 =1.471e+00\Dipole=0.,0.,0.6962708\Quadrupole=2.2313743,-4.9488794,2.71

 Normal termination of Gaussian 16 at Wed Apr  9 02:13:11 2025.
