 Gaussian 16, Revision C.01,

 ----------------------------------------------------------------------
 #t hf aug-cc-pvdz symm=none int=(grid=ultrafine) guess=(read,tcheck) s
 table=(opt,rrhf)
 ----------------------------------------------------------------------
 -----
 title
 -----
 Symbolic Z-matrix:
 Charge =  0 Multiplicity = 1

 SCF Done:  E(RHF) =  -1101.50182128     A.U. after   15 cycles
 Normal termination of Gaussian 16 at Wed Apr  9 02:14:43 2025.
 Gaussian 16:  ES64L-G16RevC.01  3-Jul-2019

 ----------------------------------------------------------------------
 #t hf aug-cc-pvdz iop(5/13=1,5/36=2,99/5=2) pseudo=read geom=check gue
 ss=(read,tcheck) scf=(maxcycle=1)
 ----------------------------------------------------------------------
 -----
 title
 -----
 Structure from the checkpoint file:  "BHROT27_20_mol1.chk"
 Charge =  0 Multiplicity = 1

                         Standard orientation:
 ---------------------------------------------------------------------
 Center     Atomic      Atomic             Coordinates (Angstroms)
 Number     Number       Type             X           Y           Z
 ---------------------------------------------------------------------
      1          6           0       -1.221774    1.433920    0.322619
      2          6           0       -1.023109    2.827726    0.261902
      3          6           0        0.259062    3.160167   -0.043415
      4         16           0        1.221774    1.776100   -0.281866
      5          6           0       -0.086853    0.716830    0.062498
      6          6           0        0.086853   -0.716830    0.062498
      7         16           0       -1.221774   -1.776100   -0.281866
      8          6           0       -0.259062   -3.160167   -0.043415
      9          6           0        1.023109   -2.827726    0.261902
     10          6           0        1.221774   -1.433920    0.322619
     11          1           0       -2.154946    0.964438    0.585437
     12          1           0       -1.794758    3.553436    0.452458
     13          1           0        0.687090    4.139050   -0.149655
     14          1           0       -0.687090   -4.139050   -0.149655
     15          1           0        1.794758   -3.553436    0.452458
     16          1           0        2.154946   -0.964438    0.585437
 ---------------------------------------------------------------------

 SCF Done:  E(RHF) =  -1103.42662343     A.U. after    2 cycles

 The electronic state is 1-A.
 Alpha  occ. eigenvalues --  -75.71331 -75.71296 -13.19186 -13.18449 -13.16431
 Alpha  occ. eigenvalues --  -13.16160 -13.03728 -13.03495 -11.49124 -11.47497
 Alpha  occ. eigenvalues --  -11.45000 -11.43867 -11.42274 -11.41449 -11.39170
 Alpha  occ. eigenvalues --  -11.37759  -8.06063  -8.06013  -1.42768  -1.34604
 Alpha  occ. eigenvalues --   -1.11510  -1.09649  -1.08107  -1.01353  -0.85652
 Alpha  occ. eigenvalues --   -0.80799  -0.77274  -0.73833  -0.72156  -0.64560
 Alpha  occ. eigenvalues --   -0.55192  -0.54576  -0.53673  -0.51374  -0.49040
 Alpha  occ. eigenvalues --   -0.48587  -0.43501  -0.39544  -0.38082  -0.35833
 Alpha  occ. eigenvalues --   -0.28675  -0.26982  -0.26168
 Alpha virt. eigenvalues --    0.03088   0.04011   0.04845   0.05700   0.05918
 Alpha virt. eigenvalues --    0.06378   0.08365   0.08550   0.08955   0.10033
 Alpha virt. eigenvalues --    0.11370   0.12383   0.13214   0.13485   0.13953

 Mulliken charges:
               1
     1  C   -3.521827
     2  C   -1.460586
     3  C   -4.275487
     4  S    1.458140
     5  C    3.645898
     6  C    3.645898
     7  S    1.458140
     8  C   -4.275487
     9  C   -1.460586
    10  C   -3.521827
    11  H    1.557608
    12  H    1.408502
    13  H    1.187753
    14  H    1.187753
    15  H    1.408502
    16  H    1.557608
 Sum of Mulliken charges =   0.00000

 Dipole moment (field-independent basis, Debye):
    X=              0.0000    Y=              0.0000    Z=             -0.8395  Tot=              0.8395

 Test job not archived.
 1\1\GINC-SE403\SP\RHF\Aug-CC-pVDZ\C8H6S2\OHZDE\09-Apr-2025\0\\#t hf au
 g-cc-pvdz iop(5/13=1,5/36=2,99/5=2) pseudo=read geom=check guess=(read
 ,tcheck) scf=(maxcycle=1)\\title\\0,1\C,0,-1.459533,-1.1910594,0.16003
 27\C,0,-2.8488073,-0.9628516,0.0993153\C,0,-3.1539559,0.3260872,-0.206
 0017\S,0,-1.7497644,1.2592017,-0.444453\C,0,-0.7185117,-0.0716168,-0.1
 000887\C,0,0.7185117,0.0716168,-0.1000887\S,0,1.7497644,-1.2592017,-0.
 444453\C,0,3.1539559,-0.3260872,-0.2060017\C,0,2.8488073,0.9628516,0.0
 993153\C,0,1.459533,1.1910594,0.1600327\H,0,-1.0099655,-2.1339875,0.42

 Normal termination of Gaussian 16 at Wed Apr  9 02:14:49 2025.
