 Gaussian 16, Revision C.01,

 ----------------------------------------------------------------------
 #t hf aug-cc-pvdz symm=none int=(grid=ultrafine) guess=(read,tcheck) s
 table=(opt,rrhf)
 ----------------------------------------------------------------------
 -----
 title
 -----
 Symbolic Z-matrix:
 Charge =  0 Multiplicity = 1

 SCF Done:  E(RHF) =  -624.742569277     A.U. after   14 cycles
 Normal termination of Gaussian 16 at Wed Apr  9 02:14:18 2025.
 Gaussian 16:  ES64L-G16RevC.01  3-Jul-2019

 ----------------------------------------------------------------------
 #t hf aug-cc-pvdz iop(5/13=1,5/36=2,99/5=2) pseudo=read geom=check gue
 ss=(read,tcheck) scf=(maxcycle=1)
 ----------------------------------------------------------------------
 -----
 title
 -----
 Structure from the checkpoint file:  "BHROT27_25_mol1.chk"
 Charge =  0 Multiplicity = 1

                         Standard orientation:
 ---------------------------------------------------------------------
 Center     Atomic      Atomic             Coordinates (Angstroms)
 Number     Number       Type             X           Y           Z
 ---------------------------------------------------------------------
      1          6           0        2.915523   -0.566727    0.007575
      2          6           0        1.736774    0.378405    0.041168
      3          7           0        0.494726   -0.342329   -0.088057
      4          6           0       -0.728436    0.215256   -0.029400
      5          7           0       -0.755325    1.565627   -0.041587
      6         16           0       -2.115884   -0.695384    0.023735
      7          1           0        0.063979    2.118987    0.117304
      8          1           0       -1.651237    1.990857    0.088089
      9          1           0        0.498856   -1.341526   -0.002478
     10          1           0        1.822867    1.100855   -0.771991
     11          1           0        1.749441    0.941605    0.979259
     12          1           0        2.935798   -1.131272   -0.920792
     13          1           0        3.841997   -0.006294    0.087631
     14          1           0        2.873480   -1.271764    0.834675
 ---------------------------------------------------------------------

 SCF Done:  E(RHF) =  -626.069850764     A.U. after    2 cycles

 The electronic state is 1-A.
 Alpha  occ. eigenvalues --  -75.60996 -15.79244 -15.77376 -13.10200 -12.96177
 Alpha  occ. eigenvalues --  -12.92205 -11.49460 -11.45579 -11.39137  -7.95268
 Alpha  occ. eigenvalues --   -1.51412  -1.33506  -1.16491  -1.06338  -0.92133
 Alpha  occ. eigenvalues --   -0.84818  -0.73689  -0.68070  -0.66739  -0.61117
 Alpha  occ. eigenvalues --   -0.56494  -0.55496  -0.52101  -0.51013  -0.43551
 Alpha  occ. eigenvalues --   -0.37429  -0.22211  -0.20850
 Alpha virt. eigenvalues --    0.02510   0.04054   0.05217   0.05437   0.05832
 Alpha virt. eigenvalues --    0.06315   0.06981   0.07422   0.09790   0.10653
 Alpha virt. eigenvalues --    0.12433   0.13266   0.13615   0.13814   0.14623

 Mulliken charges:
               1
     1  C   -3.130855
     2  C   -2.574142
     3  N   -2.415106
     4  C    0.934331
     5  N   -2.902211
     6  S    1.305892
     7  H    0.786838
     8  H    0.708647
     9  H    0.658247
    10  H    1.589466
    11  H    1.532555
    12  H    1.228402
    13  H    1.049983
    14  H    1.227953
 Sum of Mulliken charges =  -0.00000

 Dipole moment (field-independent basis, Debye):
    X=              3.3074    Y=              1.5093    Z=              0.4584  Tot=              3.6643

 Test job not archived.
 1\1\GINC-SE366\SP\RHF\Aug-CC-pVDZ\C3H8N2S1\OHZDE\09-Apr-2025\0\\#t hf
 aug-cc-pvdz iop(5/13=1,5/36=2,99/5=2) pseudo=read geom=check guess=(re
 ad,tcheck) scf=(maxcycle=1)\\title\\0,1\C,0,0.62527801,2.89809628,-0.0
 3936045\C,0,-0.34255388,1.7374537,-0.031501\N,0,0.36138843,0.47998434,
 0.01403975\C,0,-0.22542645,-0.72812871,0.09515085\N,0,-1.56562722,-0.7
 3828989,-0.0725709\S,0,0.6429302,-2.1195582,0.35396039\H,0,-2.11587316
 ,0.0976519,-0.03875318\H,0,-2.0221603,-1.61654192,0.07076903\H,0,1.343
 88429,0.47744786,0.21511755\H,0,-0.96428971,1.77250469,-0.92748736\H,0

 Normal termination of Gaussian 16 at Wed Apr  9 02:14:21 2025.
