 Gaussian 16, Revision C.01,

 ----------------------------------------------------------------------
 #t hf aug-cc-pvdz symm=none int=(grid=ultrafine) guess=(read,tcheck) s
 table=(opt,rrhf)
 ----------------------------------------------------------------------
 -----
 title
 -----
 Symbolic Z-matrix:
 Charge =  0 Multiplicity = 1

 SCF Done:  E(RHF) =  -624.712124326     A.U. after   14 cycles
 Normal termination of Gaussian 16 at Wed Apr  9 02:14:53 2025.
 Gaussian 16:  ES64L-G16RevC.01  3-Jul-2019

 ----------------------------------------------------------------------
 #t hf aug-cc-pvdz iop(5/13=1,5/36=2,99/5=2) pseudo=read geom=check gue
 ss=(read,tcheck) scf=(maxcycle=1)
 ----------------------------------------------------------------------
 -----
 title
 -----
 Structure from the checkpoint file:  "BHROT27_26_mol2.chk"
 Charge =  0 Multiplicity = 1

                         Standard orientation:
 ---------------------------------------------------------------------
 Center     Atomic      Atomic             Coordinates (Angstroms)
 Number     Number       Type             X           Y           Z
 ---------------------------------------------------------------------
      1         16           0       -2.022240   -0.763244   -0.100530
      2          7           0       -0.853673    1.570904    0.026509
      3          7           0        0.543363   -0.237499    0.494683
      4          6           0       -0.753670    0.234999    0.144069
      5          1           0       -0.050868    2.165235    0.102218
      6          1           0       -1.725568    1.968410   -0.266502
      7          1           0        0.778819    0.060531    1.432015
      8          6           0        1.599781    0.108630   -0.448776
      9          6           0        2.933398   -0.426524    0.020924
     10          1           0        1.331506   -0.342069   -1.402127
     11          1           0        1.690222    1.188777   -0.625788
     12          1           0        2.914583   -1.508857    0.101651
     13          1           0        3.718107   -0.141556   -0.673795
     14          1           0        3.194146   -0.015039    0.995160
 ---------------------------------------------------------------------

 SCF Done:  E(RHF) =  -626.038427206     A.U. after    2 cycles

 The electronic state is 1-A.
 Alpha  occ. eigenvalues --  -75.63035 -15.80120 -15.74255 -13.13314 -12.97887
 Alpha  occ. eigenvalues --  -12.94719 -11.49593 -11.43787 -11.37324  -7.97374
 Alpha  occ. eigenvalues --   -1.49437  -1.32837  -1.14314  -1.07655  -0.90197
 Alpha  occ. eigenvalues --   -0.82450  -0.73551  -0.69371  -0.63993  -0.61345
 Alpha  occ. eigenvalues --   -0.54846  -0.52235  -0.50381  -0.48396  -0.44265
 Alpha  occ. eigenvalues --   -0.35370  -0.25699  -0.20730
 Alpha virt. eigenvalues --    0.02674   0.04241   0.05182   0.05720   0.06179
 Alpha virt. eigenvalues --    0.06558   0.06696   0.07742   0.08685   0.10666
 Alpha virt. eigenvalues --    0.11094   0.12613   0.13823   0.15144   0.15465

 Mulliken charges:
               1
     1  S    1.442246
     2  N   -2.933485
     3  N   -2.660888
     4  C    1.608610
     5  H    0.834593
     6  H    0.778174
     7  H    0.605690
     8  C   -2.482317
     9  C   -3.764833
    10  H    1.470537
    11  H    1.430203
    12  H    1.216395
    13  H    1.130948
    14  H    1.324127
 Sum of Mulliken charges =  -0.00000

 Dipole moment (field-independent basis, Debye):
    X=              1.5257    Y=              1.9018    Z=             -0.0321  Tot=              2.4384

 Test job not archived.
 1\1\GINC-SE029\SP\RHF\Aug-CC-pVDZ\C3H8N2S1\OHZDE\09-Apr-2025\0\\#t hf
 aug-cc-pvdz iop(5/13=1,5/36=2,99/5=2) pseudo=read geom=check guess=(re
 ad,tcheck) scf=(maxcycle=1)\\title\\0,1\S,0,0.66677564,2.05437369,0.14
 977685\N,0,-1.62081433,0.80292359,-0.02554571\N,0,0.24495718,-0.524249
 26,-0.4713313\C,0,-0.28033597,0.75225082,-0.1204862\H,0,-2.18417446,-0
 .02032756,-0.11685858\H,0,-2.05472923,1.65770957,0.2662196\H,0,-0.0281
 8719,-0.76360303,-1.41523483\C,0,-0.07866699,-1.59927786,0.45900259\C,
 0,0.51260491,-2.90920939,-0.01005744\H,0,0.34555462,-1.32170942,1.4217

 Normal termination of Gaussian 16 at Wed Apr  9 02:14:57 2025.
