 Gaussian 16, Revision C.01,

 ----------------------------------------------------------------------
 #t hf aug-cc-pvdz symm=none int=(grid=ultrafine) guess=(read,tcheck) s
 table=(opt,rrhf)
 ----------------------------------------------------------------------
 -----
 title
 -----
 Symbolic Z-matrix:
 Charge =  0 Multiplicity = 1

 SCF Done:  E(RHF) =  -624.723675783     A.U. after   14 cycles
 Normal termination of Gaussian 16 at Wed Apr  9 02:14:20 2025.
 Gaussian 16:  ES64L-G16RevC.01  3-Jul-2019

 ----------------------------------------------------------------------
 #t hf aug-cc-pvdz iop(5/13=1,5/36=2,99/5=2) pseudo=read geom=check gue
 ss=(read,tcheck) scf=(maxcycle=1)
 ----------------------------------------------------------------------
 -----
 title
 -----
 Structure from the checkpoint file:  "BHROT27_24_mol2.chk"
 Charge =  0 Multiplicity = 1

                         Standard orientation:
 ---------------------------------------------------------------------
 Center     Atomic      Atomic             Coordinates (Angstroms)
 Number     Number       Type             X           Y           Z
 ---------------------------------------------------------------------
      1         16           0        1.644480   -1.029565    0.012116
      2          7           0        1.312978    1.572509   -0.169684
      3          7           0       -0.581908    0.483155    0.457587
      4          6           0        0.795758    0.373109    0.095332
      5          1           0        0.718183    2.377383   -0.123381
      6          1           0        2.269417    1.649086   -0.458682
      7          1           0       -0.659848    0.147163    1.409703
      8          6           0       -1.462779   -0.339818   -0.376136
      9          6           0       -2.905172   -0.112312    0.007022
     10          1           0       -1.300736   -0.041892   -1.409803
     11          1           0       -1.197959   -1.395782   -0.296748
     12          1           0       -3.185716    0.926739   -0.143528
     13          1           0       -3.561212   -0.733759   -0.594973
     14          1           0       -3.078136   -0.371419    1.050933
 ---------------------------------------------------------------------

 SCF Done:  E(RHF) =  -626.051667088     A.U. after    2 cycles

 The electronic state is 1-A.
 Alpha  occ. eigenvalues --  -75.63039 -15.80409 -15.74334 -13.12902 -12.99031
 Alpha  occ. eigenvalues --  -12.95085 -11.49456 -11.42456 -11.36465  -7.97373
 Alpha  occ. eigenvalues --   -1.49372  -1.33545  -1.12650  -1.07981  -0.89797
 Alpha  occ. eigenvalues --   -0.82391  -0.73436  -0.66507  -0.64517  -0.60647
 Alpha  occ. eigenvalues --   -0.53976  -0.51476  -0.49583  -0.47582  -0.46956
 Alpha  occ. eigenvalues --   -0.35444  -0.25421  -0.21461
 Alpha virt. eigenvalues --    0.03213   0.04309   0.05641   0.05745   0.06386
 Alpha virt. eigenvalues --    0.06657   0.07076   0.07241   0.09862   0.10670
 Alpha virt. eigenvalues --    0.11624   0.13162   0.14015   0.14909   0.15568

 Mulliken charges:
               1
     1  S    1.217786
     2  N   -3.119085
     3  N   -2.399475
     4  C    1.470743
     5  H    0.833443
     6  H    0.786100
     7  H    0.658685
     8  C   -2.749166
     9  C   -3.530798
    10  H    1.537501
    11  H    1.615746
    12  H    1.263969
    13  H    1.125862
    14  H    1.288689
 Sum of Mulliken charges =  -0.00000

 Dipole moment (field-independent basis, Debye):
    X=             -0.4398    Y=              1.0488    Z=             -0.1760  Tot=              1.1508

 Test job not archived.
 1\1\GINC-SE292\SP\RHF\Aug-CC-pVDZ\C3H8N2S1\OHZDE\09-Apr-2025\0\\#t hf
 aug-cc-pvdz iop(5/13=1,5/36=2,99/5=2) pseudo=read geom=check guess=(re
 ad,tcheck) scf=(maxcycle=1)\\title\\0,1\S,0,0.9877987,1.6908616,-0.050
 66349\N,0,-1.61020626,1.29841558,-0.15110636\N,0,-0.45937754,-0.564341
 ,0.46247752\C,0,-0.39187804,0.81146297,0.08312165\H,0,-2.39944662,0.68
 603674,-0.07469157\H,0,-1.71732706,2.24968277,-0.44737712\H,0,-0.09355
 347,-0.62431146,1.4048497\C,0,0.35853015,-1.43528096,-0.38652433\C,0,0
 .17576383,-2.87823113,0.01789791\H,0,0.0263868,-1.291253,-1.4124002\H,

 Normal termination of Gaussian 16 at Wed Apr  9 02:14:24 2025.
