 Gaussian 16, Revision C.01,

 ----------------------------------------------------------------------
 #t hf aug-cc-pvdz symm=none int=(grid=ultrafine) guess=(read,tcheck) s
 table=(opt,rrhf)
 ----------------------------------------------------------------------
 -----
 title
 -----
 Symbolic Z-matrix:
 Charge =  0 Multiplicity = 1

 SCF Done:  E(RHF) =  -796.217364970     A.U. after   11 cycles
 Normal termination of Gaussian 16 at Wed Apr  9 02:13:30 2025.
 Gaussian 16:  ES64L-G16RevC.01  3-Jul-2019

 ----------------------------------------------------------------------
 #t hf aug-cc-pvdz iop(5/13=1,5/36=2,99/5=2) pseudo=read geom=check gue
 ss=(read,tcheck) scf=(maxcycle=1)
 ----------------------------------------------------------------------
 -----
 title
 -----
 Structure from the checkpoint file:  "BHROT27_10_mol2.chk"
 Charge =  0 Multiplicity = 1

                         Standard orientation:
 ---------------------------------------------------------------------
 Center     Atomic      Atomic             Coordinates (Angstroms)
 Number     Number       Type             X           Y           Z
 ---------------------------------------------------------------------
      1         16           0        0.000000    1.057229   -0.077941
      2         16           0       -0.000000   -1.057229   -0.077941
      3          1           0        0.000000    1.209318    1.247048
      4          1           0       -0.000000   -1.209318    1.247048
 ---------------------------------------------------------------------

 SCF Done:  E(RHF) =  -796.667354963     A.U. after    2 cycles

 The electronic state is 1-A1.
 Alpha  occ. eigenvalues --  -75.72259 -75.72031 -13.16214 -13.11629 -13.07794
 Alpha  occ. eigenvalues --  -13.06578 -13.04080 -13.02500  -8.06024  -8.05886
 Alpha  occ. eigenvalues --   -1.21591  -1.00440  -0.57838  -0.44932  -0.37359
 Alpha  occ. eigenvalues --   -0.35064  -0.19315
 Alpha virt. eigenvalues --    0.01896   0.02458   0.08413   0.10243   0.12577
 Alpha virt. eigenvalues --    0.12583   0.14495   0.15182   0.17674   0.17867
 Alpha virt. eigenvalues --    0.19074   0.24035   0.25391   0.28074   0.31238

 Mulliken charges:
               1
     1  S   -1.082165
     2  S   -1.082165
     3  H    1.082165
     4  H    1.082165
 Sum of Mulliken charges =  -0.00000

 Dipole moment (field-independent basis, Debye):
    X=             -0.0000    Y=              0.0000    Z=             -1.7330  Tot=              1.7330

 Test job not archived.
 1\1\GINC-SE165\SP\RHF\Aug-CC-pVDZ\H2S2\OHZDE\09-Apr-2025\0\\#t hf aug-
 cc-pvdz iop(5/13=1,5/36=2,99/5=2) pseudo=read geom=check guess=(read,t
 check) scf=(maxcycle=1)\\title\\0,1\S,0,1.0572291,0.,-0.6622784\S,0,-1
 .0572291,0.,-0.6622784\H,0,1.2093176,0.,0.6627105\H,0,-1.2093176,0.,0.
 6627105\\Version=ES64L-G16RevC.01\State=1-A1\HF=-796.667355\RMSD=1.232
 e-01\Dipole=0.,0.,-0.6818078\Quadrupole=2.2270686,-4.6365666,2.409498,
 0.,0.,0.\PG=C02V [SGV(H2S2)]\\@

 Normal termination of Gaussian 16 at Wed Apr  9 02:13:34 2025.
