 Gaussian 16, Revision C.01,

 ----------------------------------------------------------------------
 #t hf aug-cc-pvdz symm=none int=(grid=ultrafine) guess=(read,tcheck) s
 table=(opt,rrhf)
 ----------------------------------------------------------------------
 -----
 title
 -----
 Symbolic Z-matrix:
 Charge =  0 Multiplicity = 1

 SCF Done:  E(RHF) =  -796.220607716     A.U. after   10 cycles
 Normal termination of Gaussian 16 at Wed Apr  9 02:14:31 2025.
 Gaussian 16:  ES64L-G16RevC.01  3-Jul-2019

 ----------------------------------------------------------------------
 #t hf aug-cc-pvdz iop(5/13=1,5/36=2,99/5=2) pseudo=read geom=check gue
 ss=(read,tcheck) scf=(maxcycle=1)
 ----------------------------------------------------------------------
 -----
 title
 -----
 Structure from the checkpoint file:  "BHROT27_9_mol2.chk"
 Charge =  0 Multiplicity = 1

                         Standard orientation:
 ---------------------------------------------------------------------
 Center     Atomic      Atomic             Coordinates (Angstroms)
 Number     Number       Type             X           Y           Z
 ---------------------------------------------------------------------
      1         16           0        0.000000    1.049308    0.000000
      2         16           0       -0.000000   -1.049308    0.000000
      3          1           0        1.334460    1.117167    0.000000
      4          1           0       -1.334460   -1.117167    0.000000
 ---------------------------------------------------------------------

 SCF Done:  E(RHF) =  -796.671493710     A.U. after    2 cycles

 The electronic state is 1-AG.
 Alpha  occ. eigenvalues --  -75.72084 -75.72044 -13.15723 -13.12451 -13.07222
 Alpha  occ. eigenvalues --  -13.06883 -13.03916 -13.02482  -8.05924  -8.05877
 Alpha  occ. eigenvalues --   -1.22084  -1.00212  -0.54372  -0.50342  -0.35463
 Alpha  occ. eigenvalues --   -0.35263  -0.19130
 Alpha virt. eigenvalues --    0.02328   0.02329   0.05783   0.11476   0.12513
 Alpha virt. eigenvalues --    0.13881   0.14037   0.16002   0.17607   0.17667
 Alpha virt. eigenvalues --    0.21735   0.22393   0.24491   0.27007   0.31630

 Mulliken charges:
               1
     1  S   -1.124578
     2  S   -1.124578
     3  H    1.124578
     4  H    1.124578
 Sum of Mulliken charges =  -0.00000

 Dipole moment (field-independent basis, Debye):
    X=             -0.0000    Y=              0.0000    Z=              0.0000  Tot=              0.0000

 Test job not archived.
 1\1\GINC-SE165\SP\RHF\Aug-CC-pVDZ\H2S2\OHZDE\09-Apr-2025\0\\#t hf aug-
 cc-pvdz iop(5/13=1,5/36=2,99/5=2) pseudo=read geom=check guess=(read,t
 check) scf=(maxcycle=1)\\title\\0,1\S,0,-0.1980499,1.0304478,0.\S,0,0.
 1980499,-1.0304478,0.\H,0,1.0996175,1.3489585,0.\H,0,-1.0996175,-1.348
 9585,0.\\Version=ES64L-G16RevC.01\State=1-AG\HF=-796.6714937\RMSD=1.12
 8e-01\Dipole=0.,0.,0.\Quadrupole=2.5918096,2.037904,-4.6297136,-0.1681
 526,0.,0.\PG=C02H [SGH(H2S2)]\\@

 Normal termination of Gaussian 16 at Wed Apr  9 02:14:35 2025.
