 Gaussian 16, Revision C.01,

 ----------------------------------------------------------------------
 #t hf aug-cc-pvdz symm=none int=(grid=ultrafine) guess=(read,tcheck) s
 table=(opt,rrhf)
 ----------------------------------------------------------------------
 -----
 title
 -----
 Symbolic Z-matrix:
 Charge =  0 Multiplicity = 1

 SCF Done:  E(RHF) =  -1101.50015873     A.U. after   14 cycles
 Normal termination of Gaussian 16 at Wed Apr  9 02:15:17 2025.
 Gaussian 16:  ES64L-G16RevC.01  3-Jul-2019

 ----------------------------------------------------------------------
 #t hf aug-cc-pvdz iop(5/13=1,5/36=2,99/5=2) pseudo=read geom=check gue
 ss=(read,tcheck) scf=(maxcycle=1)
 ----------------------------------------------------------------------
 -----
 title
 -----
 Structure from the checkpoint file:  "BHROT27_20_mol2.chk"
 Charge =  0 Multiplicity = 1

                         Standard orientation:
 ---------------------------------------------------------------------
 Center     Atomic      Atomic             Coordinates (Angstroms)
 Number     Number       Type             X           Y           Z
 ---------------------------------------------------------------------
      1          6           0        0.771197    1.514712    1.113418
      2          6           0        0.652379    2.893014    0.828813
      3          6           0       -0.155148    3.135472   -0.237761
      4         16           0       -0.771197    1.694412   -0.899649
      5          6           0        0.055978    0.726545    0.257864
      6          6           0       -0.055978   -0.726545    0.257864
      7         16           0        0.771197   -1.694412   -0.899649
      8          6           0        0.155148   -3.135472   -0.237761
      9          6           0       -0.652379   -2.893014    0.828813
     10          6           0       -0.771197   -1.514712    1.113418
     11          1           0        1.372077    1.105332    1.907486
     12          1           0        1.150897    3.668029    1.385377
     13          1           0       -0.415822    4.082812   -0.672491
     14          1           0        0.415822   -4.082812   -0.672491
     15          1           0       -1.150897   -3.668029    1.385377
     16          1           0       -1.372077   -1.105332    1.907486
 ---------------------------------------------------------------------

 SCF Done:  E(RHF) =  -1103.42755452     A.U. after    2 cycles

 The electronic state is 1-A.
 Alpha  occ. eigenvalues --  -75.71250 -75.71165 -13.18677 -13.18330 -13.16473
 Alpha  occ. eigenvalues --  -13.15752 -13.03900 -13.03868 -11.48743 -11.47919
 Alpha  occ. eigenvalues --  -11.44575 -11.43813 -11.41927 -11.41701 -11.38075
 Alpha  occ. eigenvalues --  -11.37331  -8.05918  -8.05871  -1.42278  -1.34532
 Alpha  occ. eigenvalues --   -1.11073  -1.08778  -1.08497  -1.01190  -0.85228
 Alpha  occ. eigenvalues --   -0.79066  -0.78930  -0.73762  -0.71836  -0.64482
 Alpha  occ. eigenvalues --   -0.54937  -0.53972  -0.53690  -0.52405  -0.48978
 Alpha  occ. eigenvalues --   -0.46170  -0.45182  -0.38819  -0.38720  -0.32385
 Alpha  occ. eigenvalues --   -0.30177  -0.27355  -0.26388
 Alpha virt. eigenvalues --    0.02981   0.04023   0.05410   0.05426   0.05956
 Alpha virt. eigenvalues --    0.06242   0.08133   0.08282   0.09718   0.09965
 Alpha virt. eigenvalues --    0.11140   0.11331   0.13116   0.13427   0.13447

 Mulliken charges:
               1
     1  C   -3.808200
     2  C   -0.570510
     3  C   -3.945949
     4  S    1.113300
     5  C    2.904559
     6  C    2.904559
     7  S    1.113300
     8  C   -3.945949
     9  C   -0.570510
    10  C   -3.808200
    11  H    1.600091
    12  H    1.436607
    13  H    1.270103
    14  H    1.270103
    15  H    1.436607
    16  H    1.600091
 Sum of Mulliken charges =  -0.00000

 Dipole moment (field-independent basis, Debye):
    X=             -0.0000    Y=              0.0000    Z=             -2.6860  Tot=              2.6860

 Test job not archived.
 1\1\GINC-SE024\SP\RHF\Aug-CC-pVDZ\C8H6S2\OHZDE\09-Apr-2025\0\\#t hf au
 g-cc-pvdz iop(5/13=1,5/36=2,99/5=2) pseudo=read geom=check guess=(read
 ,tcheck) scf=(maxcycle=1)\\title\\0,1\C,0,-1.4452769,-0.8945789,-0.653
 0359\C,0,-2.828686,-0.8908769,-0.3684307\C,0,-3.137507,-0.1063297,0.69
 81435\S,0,-1.7527144,0.6275104,1.3600308\C,0,-0.7193656,-0.116248,0.20
 25179\C,0,0.7193656,0.116248,0.2025179\S,0,1.7527144,-0.6275104,1.3600
 308\C,0,3.137507,0.1063297,0.6981435\C,0,2.828686,0.8908769,-0.3684307
 \C,0,1.4452769,0.8945789,-0.6530359\H,0,-0.9873115,-1.4593053,-1.44710

 Normal termination of Gaussian 16 at Wed Apr  9 02:15:24 2025.
