 Gaussian 16, Revision C.01,

 ----------------------------------------------------------------------
 #t hf aug-cc-pvdz symm=none int=(grid=ultrafine) guess=(read,tcheck) s
 table=(opt,rrhf)
 ----------------------------------------------------------------------
 -----
 title
 -----
 Symbolic Z-matrix:
 Charge =  0 Multiplicity = 1

 SCF Done:  E(RHF) =  -624.741759531     A.U. after   13 cycles
 Normal termination of Gaussian 16 at Wed Apr  9 02:14:21 2025.
 Gaussian 16:  ES64L-G16RevC.01  3-Jul-2019

 ----------------------------------------------------------------------
 #t hf aug-cc-pvdz iop(5/13=1,5/36=2,99/5=2) pseudo=read geom=check gue
 ss=(read,tcheck) scf=(maxcycle=1)
 ----------------------------------------------------------------------
 -----
 title
 -----
 Structure from the checkpoint file:  "BHROT27_24_mol1.chk"
 Charge =  0 Multiplicity = 1

                         Standard orientation:
 ---------------------------------------------------------------------
 Center     Atomic      Atomic             Coordinates (Angstroms)
 Number     Number       Type             X           Y           Z
 ---------------------------------------------------------------------
      1         16           0       -1.518283   -1.103947   -0.003126
      2          7           0       -1.527466    1.534491   -0.070820
      3          7           0        0.535283    0.567320    0.048554
      4          6           0       -0.795643    0.385622    0.004016
      5          1           0       -1.148158    2.379622    0.317608
      6          1           0       -2.513687    1.401561    0.046841
      7          1           0        0.892228    1.489494   -0.126331
      8          6           0        1.493771   -0.517398    0.021998
      9          6           0        2.898514    0.038819   -0.023007
     10          1           0        1.344923   -1.138666    0.902139
     11          1           0        1.294766   -1.152607   -0.839409
     12          1           0        3.122316    0.629069    0.863450
     13          1           0        3.619364   -0.770787   -0.079832
     14          1           0        3.046201    0.670517   -0.896636
 ---------------------------------------------------------------------

 SCF Done:  E(RHF) =  -626.069531482     A.U. after    2 cycles

 The electronic state is 1-A.
 Alpha  occ. eigenvalues --  -75.61577 -15.78587 -15.77546 -13.10919 -12.98510
 Alpha  occ. eigenvalues --  -12.93376 -11.49405 -11.43303 -11.37635  -7.95887
 Alpha  occ. eigenvalues --   -1.50698  -1.33707  -1.13404  -1.07900  -0.92166
 Alpha  occ. eigenvalues --   -0.81676  -0.72140  -0.68669  -0.65943  -0.61627
 Alpha  occ. eigenvalues --   -0.55915  -0.52063  -0.50833  -0.49902  -0.44357
 Alpha  occ. eigenvalues --   -0.36347  -0.23655  -0.20974
 Alpha virt. eigenvalues --    0.02728   0.03947   0.05499   0.05757   0.06202
 Alpha virt. eigenvalues --    0.06391   0.07458   0.08040   0.09293   0.10851
 Alpha virt. eigenvalues --    0.12681   0.13279   0.14126   0.14417   0.14810

 Mulliken charges:
               1
     1  S    1.057023
     2  N   -2.899328
     3  N   -2.653644
     4  C    1.280744
     5  H    0.739398
     6  H    0.653091
     7  H    0.754258
     8  C   -2.773024
     9  C   -3.223443
    10  H    1.680393
    11  H    1.686958
    12  H    1.278673
    13  H    1.127707
    14  H    1.291194
 Sum of Mulliken charges =  -0.00000

 Dipole moment (field-independent basis, Debye):
    X=              1.7856    Y=              1.8778    Z=              0.4205  Tot=              2.6251

 Test job not archived.
 1\1\GINC-SE159\SP\RHF\Aug-CC-pVDZ\C3H8N2S1\OHZDE\09-Apr-2025\0\\#t hf
 aug-cc-pvdz iop(5/13=1,5/36=2,99/5=2) pseudo=read geom=check guess=(re
 ad,tcheck) scf=(maxcycle=1)\\title\\0,1\S,0,-1.07651409,1.55909331,-0.
 16473424\N,0,1.55759138,1.52879103,-0.00166526\N,0,0.55024178,-0.51665
 328,0.07584105\C,0,0.39480762,0.81542712,-0.01226111\H,0,2.35939051,1.
 14610345,0.46702008\H,0,1.43099378,2.51919923,0.08325352\H,0,1.4782087
 4,-0.89064132,-0.01023746\C,0,-0.54350315,-1.45978337,-0.02538257\C,0,
 -0.00842596,-2.87304067,0.00782816\H,0,-1.23656353,-1.28244277,0.79375

 Normal termination of Gaussian 16 at Wed Apr  9 02:14:27 2025.
