 Gaussian 16, Revision C.01,

 ----------------------------------------------------------------------
 #t hf aug-cc-pvdz symm=none int=(grid=ultrafine) guess=(read,tcheck) s
 table=(opt,rrhf)
 ----------------------------------------------------------------------
 -----
 title
 -----
 Symbolic Z-matrix:
 Charge =  0 Multiplicity = 1

 SCF Done:  E(RHF) =  -1101.50043630     A.U. after   15 cycles
 Normal termination of Gaussian 16 at Wed Apr  9 02:15:30 2025.
 Gaussian 16:  ES64L-G16RevC.01  3-Jul-2019

 ----------------------------------------------------------------------
 #t hf aug-cc-pvdz iop(5/13=1,5/36=2,99/5=2) pseudo=read geom=check gue
 ss=(read,tcheck) scf=(maxcycle=1)
 ----------------------------------------------------------------------
 -----
 title
 -----
 Structure from the checkpoint file:  "BHROT27_21_mol1.chk"
 Charge =  0 Multiplicity = 1

                         Standard orientation:
 ---------------------------------------------------------------------
 Center     Atomic      Atomic             Coordinates (Angstroms)
 Number     Number       Type             X           Y           Z
 ---------------------------------------------------------------------
      1          6           0       -0.251265    1.560482    1.364124
      2          6           0       -0.156974    2.924471    1.018780
      3          6           0        0.156974    3.111837   -0.290948
      4         16           0        0.356216    1.628452   -1.103796
      5          6           0       -0.000624    0.722125    0.312545
      6          6           0        0.000624   -0.722125    0.312545
      7         16           0       -0.356216   -1.628452   -1.103796
      8          6           0       -0.156974   -3.111837   -0.290948
      9          6           0        0.156974   -2.924471    1.018780
     10          6           0        0.251265   -1.560482    1.364124
     11          1           0       -0.517943    1.200711    2.343447
     12          1           0       -0.325204    3.733132    1.709456
     13          1           0        0.282376    4.038401   -0.819168
     14          1           0       -0.282376   -4.038401   -0.819168
     15          1           0        0.325204   -3.733132    1.709456
     16          1           0        0.517943   -1.200711    2.343447
 ---------------------------------------------------------------------

 SCF Done:  E(RHF) =  -1103.42574934     A.U. after    2 cycles

 The electronic state is 1-A.
 Alpha  occ. eigenvalues --  -75.71350 -75.71218 -13.20696 -13.17202 -13.16649
 Alpha  occ. eigenvalues --  -13.15968 -13.03554 -13.03552 -11.48779 -11.47679
 Alpha  occ. eigenvalues --  -11.44903 -11.43686 -11.42618 -11.41525 -11.39376
 Alpha  occ. eigenvalues --  -11.37339  -8.06066  -8.05951  -1.42682  -1.34565
 Alpha  occ. eigenvalues --   -1.11420  -1.09566  -1.08213  -1.01197  -0.85611
 Alpha  occ. eigenvalues --   -0.80290  -0.78060  -0.73644  -0.72226  -0.64551
 Alpha  occ. eigenvalues --   -0.55263  -0.54522  -0.53407  -0.52060  -0.49384
 Alpha  occ. eigenvalues --   -0.46296  -0.43908  -0.40231  -0.37913  -0.35970
 Alpha  occ. eigenvalues --   -0.28310  -0.27575  -0.25830
 Alpha virt. eigenvalues --    0.03002   0.03959   0.05182   0.05688   0.05847
 Alpha virt. eigenvalues --    0.06899   0.07653   0.08845   0.08963   0.10014
 Alpha virt. eigenvalues --    0.10613   0.12357   0.13044   0.13206   0.13304

 Mulliken charges:
               1
     1  C   -3.736799
     2  C   -1.348071
     3  C   -4.372851
     4  S    1.647842
     5  C    3.626059
     6  C    3.626059
     7  S    1.647842
     8  C   -4.372851
     9  C   -1.348071
    10  C   -3.736799
    11  H    1.570792
    12  H    1.401080
    13  H    1.211947
    14  H    1.211947
    15  H    1.401080
    16  H    1.570792
 Sum of Mulliken charges =  -0.00000

 Dipole moment (field-independent basis, Debye):
    X=              0.0000    Y=             -0.0000    Z=             -3.3440  Tot=              3.3440

 Test job not archived.
 1\1\GINC-SE116\SP\RHF\Aug-CC-pVDZ\C8H6S2\OHZDE\09-Apr-2025\0\\#t hf au
 g-cc-pvdz iop(5/13=1,5/36=2,99/5=2) pseudo=read geom=check guess=(read
 ,tcheck) scf=(maxcycle=1)\\title\\0,1\C,0,-1.5509383,-0.3046782,0.7974
 216\C,0,-2.91736,-0.2572608,0.4520777\C,0,-3.1153913,0.050072,-0.85765
 04\S,0,-1.6397192,0.3001116,-1.6704985\C,0,-0.7216777,-0.0254094,-0.25
 41573\C,0,0.7216777,0.0254094,-0.2541573\S,0,1.6397192,-0.3001116,-1.6
 704985\C,0,3.1153913,-0.050072,-0.8576504\C,0,2.91736,0.2572608,0.4520
 777\C,0,1.5509383,0.3046782,0.7974216\H,0,-1.182226,-0.5588506,1.77674

 Normal termination of Gaussian 16 at Wed Apr  9 02:15:36 2025.
