 Gaussian 16, Revision C.01,

 ----------------------------------------------------------------------
 #t hf aug-cc-pvdz symm=none int=(grid=ultrafine) guess=(read,tcheck) s
 table=(opt,rrhf)
 ----------------------------------------------------------------------
 -----
 title
 -----
 Symbolic Z-matrix:
 Charge =  0 Multiplicity = 1

 SCF Done:  E(RHF) =  -796.229795187     A.U. after   12 cycles
 Normal termination of Gaussian 16 at Wed Apr  9 02:13:28 2025.
 Gaussian 16:  ES64L-G16RevC.01  3-Jul-2019

 ----------------------------------------------------------------------
 #t hf aug-cc-pvdz iop(5/13=1,5/36=2,99/5=2) pseudo=read geom=check gue
 ss=(read,tcheck) scf=(maxcycle=1)
 ----------------------------------------------------------------------
 -----
 title
 -----
 Structure from the checkpoint file:  "BHROT27_10_mol1.chk"
 Charge =  0 Multiplicity = 1

                         Standard orientation:
 ---------------------------------------------------------------------
 Center     Atomic      Atomic             Coordinates (Angstroms)
 Number     Number       Type             X           Y           Z
 ---------------------------------------------------------------------
      1         16           0       -0.000000    1.024340   -0.055941
      2         16           0       -0.000000   -1.024340   -0.055941
      3          1           0        0.923046    1.227150    0.895063
      4          1           0       -0.923046   -1.227150    0.895063
 ---------------------------------------------------------------------

 SCF Done:  E(RHF) =  -796.684457426     A.U. after    2 cycles

 The electronic state is 1-A.
 Alpha  occ. eigenvalues --  -75.72137 -75.71992 -13.16207 -13.12318 -13.07638
 Alpha  occ. eigenvalues --  -13.07590 -13.03552 -13.03441  -8.05999  -8.05947
 Alpha  occ. eigenvalues --   -1.23005  -0.99676  -0.55356  -0.50282  -0.37254
 Alpha  occ. eigenvalues --   -0.27271  -0.26101
 Alpha virt. eigenvalues --    0.02243   0.02775   0.07248   0.10255   0.12119
 Alpha virt. eigenvalues --    0.12816   0.15341   0.15908   0.16568   0.18517
 Alpha virt. eigenvalues --    0.23724   0.24487   0.25303   0.26905   0.28590

 Mulliken charges:
               1
     1  S   -1.243910
     2  S   -1.243910
     3  H    1.243910
     4  H    1.243910
 Sum of Mulliken charges =  -0.00000

 Dipole moment (field-independent basis, Debye):
    X=              0.0000    Y=              0.0000    Z=             -1.1696  Tot=              1.1696

 Test job not archived.
 1\1\GINC-SE116\SP\RHF\Aug-CC-pVDZ\H2S2\OHZDE\09-Apr-2025\0\\#t hf aug-
 cc-pvdz iop(5/13=1,5/36=2,99/5=2) pseudo=read geom=check guess=(read,t
 check) scf=(maxcycle=1)\\title\\0,1\S,0,-0.068731,1.0220312,-0.4834061
 \S,0,0.068731,-1.0220312,-0.4834061\H,0,0.8386269,1.286319,0.4675986\H
 ,0,-0.8386269,-1.286319,0.4675986\\Version=ES64L-G16RevC.01\State=1-A\
 HF=-796.6844574\RMSD=1.206e-01\Dipole=0.,0.,-0.4601662\Quadrupole=-1.3
 351768,2.4300511,-1.0948742,-0.3341907,0.,0.\PG=C02 [X(H2S2)]\\@

 Normal termination of Gaussian 16 at Wed Apr  9 02:13:30 2025.
