 Gaussian 16, Revision C.01,

 ----------------------------------------------------------------------
 #t hf aug-cc-pvdz symm=none int=(grid=ultrafine) guess=(read,tcheck) s
 table=(opt,rrhf)
 ----------------------------------------------------------------------
 -----
 title
 -----
 Symbolic Z-matrix:
 Charge =  0 Multiplicity = 1

 SCF Done:  E(RHF) =  -629.415529788     A.U. after   13 cycles
 Normal termination of Gaussian 16 at Wed Apr  9 02:15:39 2025.
 Gaussian 16:  ES64L-G16RevC.01  3-Jul-2019

 ----------------------------------------------------------------------
 #t hf aug-cc-pvdz iop(5/13=1,5/36=2,99/5=2) pseudo=read geom=check gue
 ss=(read,tcheck) scf=(maxcycle=1)
 ----------------------------------------------------------------------
 -----
 title
 -----
 Structure from the checkpoint file:  "BzDC215_110_mol1.chk"
 Charge =  0 Multiplicity = 1

                         Standard orientation:
 ---------------------------------------------------------------------
 Center     Atomic      Atomic             Coordinates (Angstroms)
 Number     Number       Type             X           Y           Z
 ---------------------------------------------------------------------
      1          6           0       -0.963246    1.406946    0.000000
      2          6           0       -0.963246    0.711196    1.205074
      3          6           0       -0.963246   -0.680304    1.205074
      4          6           0       -0.963246   -1.376054    0.000000
      5          6           0       -0.963246   -0.680304   -1.205074
      6          6           0       -0.963246    0.711196   -1.205074
      7          1           0       -0.963246    2.486946    0.000000
      8          1           0       -0.963246    1.251196    2.140382
      9          1           0       -0.963246   -1.220304    2.140382
     10          1           0       -0.963246   -2.456054    0.000000
     11          1           0       -0.963246   -1.220304   -2.140382
     12          1           0       -0.963246    1.251196   -2.140382
     13         16           0        2.336754    0.015446   -0.000000
     14          1           0        2.015000   -1.280818   -0.000000
     15          1           0        1.053279    0.384932   -0.000000
 ---------------------------------------------------------------------

 SCF Done:  E(RHF) =  -630.788765506     A.U. after    2 cycles

 The electronic state is 1-A'.
 Alpha  occ. eigenvalues --  -75.67608 -13.13824 -13.08048 -12.99907 -11.52605
 Alpha  occ. eigenvalues --  -11.43235 -11.43152 -11.40893 -11.40817 -11.36857
 Alpha  occ. eigenvalues --   -8.01451  -1.35314  -1.10160  -1.09891  -1.09336
 Alpha  occ. eigenvalues --   -0.86675  -0.86650  -0.73406  -0.66372  -0.59138
 Alpha  occ. eigenvalues --   -0.59015  -0.56698  -0.56256  -0.50095  -0.45483
 Alpha  occ. eigenvalues --   -0.45448  -0.40283  -0.34553  -0.33869  -0.23526
 Alpha virt. eigenvalues --    0.02929   0.04965   0.04994   0.05442   0.05786
 Alpha virt. eigenvalues --    0.05892   0.07015   0.07183   0.10225   0.10580
 Alpha virt. eigenvalues --    0.12560   0.12890   0.13255   0.13848   0.14243

 Mulliken charges:
               1
     1  C   -1.501996
     2  C   -1.609554
     3  C   -1.175090
     4  C   -2.316880
     5  C   -1.175090
     6  C   -1.609554
     7  H    1.501969
     8  H    1.471547
     9  H    1.509310
    10  H    1.537826
    11  H    1.509310
    12  H    1.471547
    13  S   -2.783589
    14  H    0.969109
    15  H    2.201137
 Sum of Mulliken charges =   0.00000

 Dipole moment (field-independent basis, Debye):
    X=              0.4605    Y=              0.5829    Z=              0.0000  Tot=              0.7428

 Test job not archived.
 1\1\GINC-SE165\SP\RHF\Aug-CC-pVDZ\C6H8S1\OHZDE\09-Apr-2025\0\\#t hf au
 g-cc-pvdz iop(5/13=1,5/36=2,99/5=2) pseudo=read geom=check guess=(read
 ,tcheck) scf=(maxcycle=1)\\title\\0,1\C,0,1.3915,0.,1.\C,0,0.69575,1.2
 0507435,1.\C,0,-0.69575,1.20507435,1.\C,0,-1.3915,0.,1.\C,0,-0.69575,-
 1.20507435,1.\C,0,0.69575,-1.20507435,1.\H,0,2.4715,0.,1.\H,0,1.23575,
 2.14038179,1.\H,0,-1.23575,2.14038179,1.\H,0,-2.4715,0.,1.\H,0,-1.2357
 5,-2.14038179,1.\H,0,1.23575,-2.14038179,1.\S,0,0.,0.,4.3\H,0,-1.29626
 462,0.,3.97824638\H,0,0.36948551,0.,3.0165251\\Version=ES64L-G16RevC.0

 Normal termination of Gaussian 16 at Wed Apr  9 02:15:48 2025.
