 Gaussian 16, Revision C.01,

 ----------------------------------------------------------------------
 #t hf aug-cc-pvdz symm=none int=(grid=ultrafine) guess=(read,tcheck) s
 table=(opt,rrhf)
 ----------------------------------------------------------------------
 -----
 title
 -----
 Symbolic Z-matrix:
 Charge =  0 Multiplicity = 1

 SCF Done:  E(RHF) =  -690.809548436     A.U. after   11 cycles

 1\1\GINC-SE292\Stability\RHF\Aug-CC-pVDZ\C6H7Cl1\OHZDE\09-Apr-2025\0\\
 #t hf aug-cc-pvdz symm=none int=(grid=ultrafine) guess=(read,tcheck) s
 table=(opt,rrhf)\\title\\0,1\C,0,1.3915,0.,1.\C,0,0.69575,1.20507435,1
 .\C,0,-0.69575,1.20507435,1.\C,0,-1.3915,0.,1.\C,0,-0.69575,-1.2050743
 5,1.\C,0,0.69575,-1.20507435,1.\H,0,2.4715,0.,1.\H,0,1.23575,2.1403817
 9,1.\H,0,-1.23575,2.14038179,1.\H,0,-2.4715,0.,1.\H,0,-1.23575,-2.1403
 8179,1.\H,0,1.23575,-2.14038179,1.\Cl,0,0.,0.,4.1\H,0,0.,0.,2.8253\\Ve
 rsion=ES64L-G16RevC.01\HF=-690.8095484\RMSD=6.411e-09\Dipole=0.,0.,-0.

 Normal termination of Gaussian 16 at Wed Apr  9 02:17:24 2025.
 Gaussian 16:  ES64L-G16RevC.01  3-Jul-2019

 ----------------------------------------------------------------------
 #t hf aug-cc-pvdz iop(5/13=1,5/36=2,99/5=2) pseudo=read geom=check gue
 ss=(read,tcheck) scf=(maxcycle=1)
 ----------------------------------------------------------------------
 -----
 title
 -----
 Structure from the checkpoint file:  "BzDC215_89_mol1.chk"
 Charge =  0 Multiplicity = 1

                         Standard orientation:
 ---------------------------------------------------------------------
 Center     Atomic      Atomic             Coordinates (Angstroms)
 Number     Number       Type             X           Y           Z
 ---------------------------------------------------------------------
      1          6           0        0.000000    1.391500   -0.908755
      2          6           0       -1.205074    0.695750   -0.908755
      3          6           0       -1.205074   -0.695750   -0.908755
      4          6           0       -0.000000   -1.391500   -0.908755
      5          6           0        1.205074   -0.695750   -0.908755
      6          6           0        1.205074    0.695750   -0.908755
      7          1           0        0.000000    2.471500   -0.908755
      8          1           0       -2.140382    1.235750   -0.908755
      9          1           0       -2.140382   -1.235750   -0.908755
     10          1           0       -0.000000   -2.471500   -0.908755
     11          1           0        2.140382   -1.235750   -0.908755
     12          1           0        2.140382    1.235750   -0.908755
     13         17           0        0.000000    0.000000    2.191245
     14          1           0        0.000000    0.000000    0.916545
 ---------------------------------------------------------------------

 SCF Done:  E(RHF) =  -692.205892470     A.U. after    2 cycles

 The electronic state is 1-A1.
 Alpha  occ. eigenvalues --  -99.87222 -11.52850 -11.43536 -11.43536 -11.41267
 Alpha  occ. eigenvalues --  -11.41267 -11.37421 -10.44549  -9.64726  -9.63816
 Alpha  occ. eigenvalues --   -9.63816  -1.36140  -1.27523  -1.10615  -1.10615
 Alpha  occ. eigenvalues --   -0.87197  -0.87197  -0.74072  -0.68531  -0.66700
 Alpha  occ. eigenvalues --   -0.59524  -0.59524  -0.57080  -0.50784  -0.50374
 Alpha  occ. eigenvalues --   -0.50374  -0.45853  -0.45853  -0.34516  -0.34516
 Alpha virt. eigenvalues --    0.03179   0.04979   0.04979   0.06003   0.06003
 Alpha virt. eigenvalues --    0.06888   0.07504   0.10592   0.10592   0.11890
 Alpha virt. eigenvalues --    0.12686   0.12686   0.12848   0.13947   0.14607

 Mulliken charges:
               1
     1  C   -1.517076
     2  C   -1.517076
     3  C   -1.517076
     4  C   -1.517076
     5  C   -1.517076
     6  C   -1.517076
     7  H    1.448128
     8  H    1.448128
     9  H    1.448128
    10  H    1.448128
    11  H    1.448128
    12  H    1.448128
    13  Cl  -0.784845
    14  H    1.198531
 Sum of Mulliken charges =  -0.00000

 Dipole moment (field-independent basis, Debye):
    X=             -0.0000    Y=              0.0000    Z=             -1.6532  Tot=              1.6532

 Test job not archived.
 1\1\GINC-SE292\SP\RHF\Aug-CC-pVDZ\C6H7Cl1\OHZDE\09-Apr-2025\0\\#t hf a
 ug-cc-pvdz iop(5/13=1,5/36=2,99/5=2) pseudo=read geom=check guess=(rea
 d,tcheck) scf=(maxcycle=1)\\title\\0,1\C,0,1.3915,0.,1.\C,0,0.69575,1.
 20507435,1.\C,0,-0.69575,1.20507435,1.\C,0,-1.3915,0.,1.\C,0,-0.69575,
 -1.20507435,1.\C,0,0.69575,-1.20507435,1.\H,0,2.4715,0.,1.\H,0,1.23575
 ,2.14038179,1.\H,0,-1.23575,2.14038179,1.\H,0,-2.4715,0.,1.\H,0,-1.235
 75,-2.14038179,1.\H,0,1.23575,-2.14038179,1.\Cl,0,0.,0.,4.1\H,0,0.,0.,
 2.8253\\Version=ES64L-G16RevC.01\State=1-A1\HF=-692.2058925\RMSD=1.716

 Normal termination of Gaussian 16 at Wed Apr  9 02:17:27 2025.
