 Gaussian 16, Revision C.01,

 ----------------------------------------------------------------------
 #t hf aug-cc-pvdz symm=none int=(grid=ultrafine) guess=(read,tcheck) s
 table=(opt,rrhf)
 ----------------------------------------------------------------------
 -----
 title
 -----
 Symbolic Z-matrix:
 Charge =  0 Multiplicity = 1

 SCF Done:  E(RHF) =  -330.759789904     A.U. after   11 cycles
 Normal termination of Gaussian 16 at Wed Apr  9 02:17:23 2025.
 Gaussian 16:  ES64L-G16RevC.01  3-Jul-2019

 ----------------------------------------------------------------------
 #t hf aug-cc-pvdz iop(5/13=1,5/36=2,99/5=2) pseudo=read geom=check gue
 ss=(read,tcheck) scf=(maxcycle=1)
 ----------------------------------------------------------------------
 -----
 title
 -----
 Structure from the checkpoint file:  "BzDC215_1_mol1.chk"
 Charge =  0 Multiplicity = 1

                         Standard orientation:
 ---------------------------------------------------------------------
 Center     Atomic      Atomic             Coordinates (Angstroms)
 Number     Number       Type             X           Y           Z
 ---------------------------------------------------------------------
      1          6           0        0.000000    1.391500   -0.520828
      2          6           0       -1.205074    0.695750   -0.520828
      3          6           0       -1.205074   -0.695750   -0.520828
      4          6           0       -0.000000   -1.391500   -0.520828
      5          6           0        1.205074   -0.695750   -0.520828
      6          6           0        1.205074    0.695750   -0.520828
      7          1           0        0.000000    2.471500   -0.520828
      8          1           0       -2.140382    1.235750   -0.520828
      9          1           0       -2.140382   -1.235750   -0.520828
     10          1           0       -0.000000   -2.471500   -0.520828
     11          1           0        2.140382   -1.235750   -0.520828
     12          1           0        2.140382    1.235750   -0.520828
     13          9           0        0.000000    0.000000    2.279172
     14          1           0        0.000000    0.000000    1.362214
 ---------------------------------------------------------------------

 SCF Done:  E(RHF) =  -332.236743764     A.U. after    2 cycles

 The electronic state is 1-A1.
 Alpha  occ. eigenvalues --  -29.26122 -11.53053 -11.43737 -11.43737 -11.41464
 Alpha  occ. eigenvalues --  -11.41464 -11.37588  -1.35982  -1.10825  -1.10825
 Alpha  occ. eigenvalues --   -0.87266  -0.87266  -0.83209  -0.73794  -0.66823
 Alpha  occ. eigenvalues --   -0.59755  -0.59755  -0.57265  -0.51225  -0.46004
 Alpha  occ. eigenvalues --   -0.46004  -0.36267  -0.36142  -0.36142  -0.25239
 Alpha  occ. eigenvalues --   -0.25239
 Alpha virt. eigenvalues --    0.03456   0.04679   0.04679   0.05873   0.05873
 Alpha virt. eigenvalues --    0.07237   0.10457   0.10457   0.11264   0.12770
 Alpha virt. eigenvalues --    0.12770   0.14118   0.14303   0.14803   0.14803

 Mulliken charges:
               1
     1  C   -1.555958
     2  C   -1.555958
     3  C   -1.555958
     4  C   -1.555958
     5  C   -1.555958
     6  C   -1.555958
     7  H    1.445316
     8  H    1.445316
     9  H    1.445316
    10  H    1.445316
    11  H    1.445316
    12  H    1.445316
    13  F    1.274889
    14  H   -0.611037
 Sum of Mulliken charges =  -0.00000

 Dipole moment (field-independent basis, Debye):
    X=             -0.0000    Y=              0.0000    Z=             -0.3606  Tot=              0.3606

 Test job not archived.
 1\1\GINC-SE115\SP\RHF\Aug-CC-pVDZ\C6H7F1\OHZDE\09-Apr-2025\0\\#t hf au
 g-cc-pvdz iop(5/13=1,5/36=2,99/5=2) pseudo=read geom=check guess=(read
 ,tcheck) scf=(maxcycle=1)\\title\\0,1\C,0,1.3915,0.,1.\C,0,0.69575,1.2
 0507435,1.\C,0,-0.69575,1.20507435,1.\C,0,-1.3915,0.,1.\C,0,-0.69575,-
 1.20507435,1.\C,0,0.69575,-1.20507435,1.\H,0,2.4715,0.,1.\H,0,1.23575,
 2.14038179,1.\H,0,-1.23575,2.14038179,1.\H,0,-2.4715,0.,1.\H,0,-1.2357
 5,-2.14038179,1.\H,0,1.23575,-2.14038179,1.\F,0,0.,0.,3.8\H,0,0.,0.,2.
 883042\\Version=ES64L-G16RevC.01\State=1-A1\HF=-332.2367438\RMSD=1.736

 Normal termination of Gaussian 16 at Wed Apr  9 02:17:27 2025.
