 Gaussian 16, Revision C.01,

 ----------------------------------------------------------------------
 #t hf aug-cc-pvdz symm=none int=(grid=ultrafine) guess=(read,tcheck) s
 table=(opt,rrhf)
 ----------------------------------------------------------------------
 -----
 title
 -----
 Symbolic Z-matrix:
 Charge =  0 Multiplicity = 1

 SCF Done:  E(RHF) =  -521.946528388     A.U. after   13 cycles
 Normal termination of Gaussian 16 at Wed Apr  9 02:17:40 2025.
 Gaussian 16:  ES64L-G16RevC.01  3-Jul-2019

 ----------------------------------------------------------------------
 #t hf aug-cc-pvdz iop(5/13=1,5/36=2,99/5=2) pseudo=read geom=check gue
 ss=(read,tcheck) scf=(maxcycle=1)
 ----------------------------------------------------------------------
 -----
 title
 -----
 Structure from the checkpoint file:  "BzDC215_157_mol1.chk"
 Charge =  0 Multiplicity = 1

                         Standard orientation:
 ---------------------------------------------------------------------
 Center     Atomic      Atomic             Coordinates (Angstroms)
 Number     Number       Type             X           Y           Z
 ---------------------------------------------------------------------
      1          6           0       -1.214963   -1.396121    0.021047
      2          6           0       -1.235401   -0.714714   -1.192023
      3          6           0       -1.250478    0.676609   -1.208320
      4          6           0       -1.245117    1.386525   -0.011548
      5          6           0       -1.224679    0.705117    1.201522
      6          6           0       -1.209602   -0.686206    1.217819
      7          1           0       -1.203261   -2.475984    0.033696
      8          1           0       -1.239561   -1.265708   -2.120886
      9          1           0       -1.266340    1.205477   -2.149833
     10          1           0       -1.256819    2.466387   -0.024197
     11          1           0       -1.220518    1.256111    2.130386
     12          1           0       -1.193739   -1.215074    2.159332
     13         14           0        2.869485    0.039106   -0.039657
     14          1           0        1.396255    0.023328   -0.023699
     15          1           0        3.366161   -1.166723   -0.725366
     16          1           0        3.345509    1.433323   -0.061247
     17          1           0        3.380964   -0.635884    1.166031
 ---------------------------------------------------------------------

 SCF Done:  E(RHF) =  -523.254534258     A.U. after    2 cycles

 The electronic state is 1-A.
 Alpha  occ. eigenvalues --  -76.20742 -11.51628 -11.42327 -11.42318 -11.40003
 Alpha  occ. eigenvalues --  -11.39966 -11.35889  -5.54128  -2.17384  -2.16757
 Alpha  occ. eigenvalues --   -2.15264  -1.33700  -1.08989  -1.08983  -0.85756
 Alpha  occ. eigenvalues --   -0.85755  -0.78139  -0.72170  -0.65567  -0.58184
 Alpha  occ. eigenvalues --   -0.58181  -0.55815  -0.50969  -0.49399  -0.45162
 Alpha  occ. eigenvalues --   -0.44638  -0.44637  -0.41452  -0.32956  -0.32941
 Alpha virt. eigenvalues --    0.03480   0.04720   0.04827   0.04855   0.06077
 Alpha virt. eigenvalues --    0.06138   0.06746   0.07037   0.07238   0.08384
 Alpha virt. eigenvalues --    0.09924   0.10327   0.11955   0.12044   0.12298

 Mulliken charges:
               1
     1  C   -1.679886
     2  C   -1.544035
     3  C   -1.622899
     4  C   -1.487835
     5  C   -1.712664
     6  C   -1.490407
     7  H    1.567994
     8  H    1.578284
     9  H    1.554433
    10  H    1.569790
    11  H    1.566646
    12  H    1.578891
    13  Si   6.004475
    14  H   -1.435908
    15  H   -1.392490
    16  H   -1.518163
    17  H   -1.536226
 Sum of Mulliken charges =  -0.00000

 Dipole moment (field-independent basis, Debye):
    X=             -0.2596    Y=              0.8617    Z=             -0.8040  Tot=              1.2068

 Test job not archived.
 1\1\GINC-SE029\SP\RHF\Aug-CC-pVDZ\C6H10Si1\OHZDE\09-Apr-2025\0\\#t hf
 aug-cc-pvdz iop(5/13=1,5/36=2,99/5=2) pseudo=read geom=check guess=(re
 ad,tcheck) scf=(maxcycle=1)\\title\\0,1\C,0,1.3915,0.,1.\C,0,0.69575,1
 .20507435,1.\C,0,-0.69575,1.20507435,1.\C,0,-1.3915,0.,1.\C,0,-0.69575
 ,-1.20507435,1.\C,0,0.69575,-1.20507435,1.\H,0,2.4715,0.,1.\H,0,1.2357
 5,2.14038179,1.\H,0,-1.23575,2.14038179,1.\H,0,-2.4715,0.,1.\H,0,-1.23
 575,-2.14038179,1.\H,0,1.23575,-2.14038179,1.\Si,0,0.,0.,5.1\H,0,0.,0.
 ,3.6266\H,0,1.20302606,0.69456742,5.59113333\H,0,-1.38913484,0.,5.5911

 Normal termination of Gaussian 16 at Wed Apr  9 02:17:47 2025.
