 Gaussian 16, Revision C.01,

 ----------------------------------------------------------------------
 #t hf aug-cc-pvdz symm=none int=(grid=ultrafine) guess=(read,tcheck) s
 table=(opt,rrhf)
 ----------------------------------------------------------------------
 -----
 title
 -----
 Symbolic Z-matrix:
 Charge =  0 Multiplicity = 1

 SCF Done:  E(RHF) =  -521.942749966     A.U. after   13 cycles
 Normal termination of Gaussian 16 at Wed Apr  9 02:17:11 2025.
 Gaussian 16:  ES64L-G16RevC.01  3-Jul-2019

 ----------------------------------------------------------------------
 #t hf aug-cc-pvdz iop(5/13=1,5/36=2,99/5=2) pseudo=read geom=check gue
 ss=(read,tcheck) scf=(maxcycle=1)
 ----------------------------------------------------------------------
 -----
 title
 -----
 Structure from the checkpoint file:  "BzDC215_154_mol1.chk"
 Charge =  0 Multiplicity = 1

                         Standard orientation:
 ---------------------------------------------------------------------
 Center     Atomic      Atomic             Coordinates (Angstroms)
 Number     Number       Type             X           Y           Z
 ---------------------------------------------------------------------
      1          6           0       -1.122599   -1.397023    0.023040
      2          6           0       -1.146192   -0.716609   -1.190531
      3          6           0       -1.163627    0.674673   -1.207899
      4          6           0       -1.157470    1.385542   -0.011697
      5          6           0       -1.133877    0.705128    1.201874
      6          6           0       -1.116441   -0.686154    1.219242
      7          1           0       -1.109066   -2.476854    0.036520
      8          1           0       -1.150971   -1.268344   -2.118952
      9          1           0       -1.181939    1.202770   -2.149800
     10          1           0       -1.171003    2.465373   -0.025177
     11          1           0       -1.129098    1.256863    2.130295
     12          1           0       -1.098130   -1.214251    2.161143
     13         14           0        2.659378    0.041281   -0.041829
     14          1           0        1.186206    0.023049   -0.023412
     15          1           0        3.156936   -1.164256   -0.727412
     16          1           0        3.133029    1.436276   -0.065307
     17          1           0        3.173988   -0.631899    1.163539
 ---------------------------------------------------------------------

 SCF Done:  E(RHF) =  -523.254331671     A.U. after    2 cycles

 The electronic state is 1-A.
 Alpha  occ. eigenvalues --  -76.20364 -11.51739 -11.42407 -11.42392 -11.40111
 Alpha  occ. eigenvalues --  -11.40089 -11.35963  -5.53757  -2.17079  -2.16530
 Alpha  occ. eigenvalues --   -2.14933  -1.33845  -1.09102  -1.09097  -0.85852
 Alpha  occ. eigenvalues --   -0.85851  -0.77965  -0.72270  -0.65640  -0.58266
 Alpha  occ. eigenvalues --   -0.58262  -0.55881  -0.52082  -0.49201  -0.44710
 Alpha  occ. eigenvalues --   -0.44708  -0.44013  -0.41265  -0.33130  -0.33107
 Alpha virt. eigenvalues --    0.03526   0.04736   0.04821   0.04924   0.06089
 Alpha virt. eigenvalues --    0.06135   0.06789   0.07041   0.07208   0.08598
 Alpha virt. eigenvalues --    0.09898   0.10290   0.11625   0.12173   0.12406

 Mulliken charges:
               1
     1  C   -1.726418
     2  C   -1.574922
     3  C   -1.689046
     4  C   -1.466167
     5  C   -1.807062
     6  C   -1.507745
     7  H    1.569635
     8  H    1.579668
     9  H    1.556740
    10  H    1.575319
    11  H    1.567847
    12  H    1.585396
    13  Si   6.098483
    14  H   -1.213100
    15  H   -1.414276
    16  H   -1.558677
    17  H   -1.575673
 Sum of Mulliken charges =  -0.00000

 Dipole moment (field-independent basis, Debye):
    X=             -0.3173    Y=              0.8519    Z=             -0.7955  Tot=              1.2080

 Test job not archived.
 1\1\GINC-SE128\SP\RHF\Aug-CC-pVDZ\C6H10Si1\OHZDE\09-Apr-2025\0\\#t hf
 aug-cc-pvdz iop(5/13=1,5/36=2,99/5=2) pseudo=read geom=check guess=(re
 ad,tcheck) scf=(maxcycle=1)\\title\\0,1\C,0,1.3915,0.,1.\C,0,0.69575,1
 .20507435,1.\C,0,-0.69575,1.20507435,1.\C,0,-1.3915,0.,1.\C,0,-0.69575
 ,-1.20507435,1.\C,0,0.69575,-1.20507435,1.\H,0,2.4715,0.,1.\H,0,1.2357
 5,2.14038179,1.\H,0,-1.23575,2.14038179,1.\H,0,-2.4715,0.,1.\H,0,-1.23
 575,-2.14038179,1.\H,0,1.23575,-2.14038179,1.\Si,0,0.,0.,4.8\H,0,0.,0.
 ,3.3266\H,0,1.20302606,0.69456742,5.29113333\H,0,-1.38913484,0.,5.2911

 Normal termination of Gaussian 16 at Wed Apr  9 02:17:18 2025.
