 Gaussian 16, Revision C.01,

 ----------------------------------------------------------------------
 #t hf aug-cc-pvdz symm=none int=(grid=ultrafine) guess=(read,tcheck) s
 table=(opt,rrhf)
 ----------------------------------------------------------------------
 -----
 title
 -----
 Symbolic Z-matrix:
 Charge =  0 Multiplicity = 1

 SCF Done:  E(RHF) =  -573.179837561     A.U. after   13 cycles
 Normal termination of Gaussian 16 at Wed Apr  9 02:16:33 2025.
 Gaussian 16:  ES64L-G16RevC.01  3-Jul-2019

 ----------------------------------------------------------------------
 #t hf aug-cc-pvdz iop(5/13=1,5/36=2,99/5=2) pseudo=read geom=check gue
 ss=(read,tcheck) scf=(maxcycle=1)
 ----------------------------------------------------------------------
 -----
 title
 -----
 Structure from the checkpoint file:  "BzDC215_147_mol1.chk"
 Charge =  0 Multiplicity = 1

                         Standard orientation:
 ---------------------------------------------------------------------
 Center     Atomic      Atomic             Coordinates (Angstroms)
 Number     Number       Type             X           Y           Z
 ---------------------------------------------------------------------
      1          6           0        1.587023    0.028086   -1.382864
      2          6           0        1.575808   -1.191848   -0.713604
      3          6           0        1.541221   -1.222163    0.677136
      4          6           0        1.517848   -0.032545    1.398616
      5          6           0        1.529063    1.187389    0.729357
      6          6           0        1.563650    1.217705   -0.661383
      7          1           0        1.613867    0.051615   -2.462273
      8          1           0        1.593949   -2.115159   -1.273575
      9          1           0        1.532517   -2.169003    1.196575
     10          1           0        1.491004   -0.056074    2.478026
     11          1           0        1.510922    2.110701    1.289327
     12          1           0        1.572354    2.164545   -1.180823
     13         15           0       -3.695875   -0.025872   -0.123163
     14          1           0       -2.285279   -0.019517   -0.087943
     15          1           0       -4.173906   -0.647225    1.050068
     16          1           0       -3.304982    1.148442    0.554518
 ---------------------------------------------------------------------

 SCF Done:  E(RHF) =  -574.508863444     A.U. after    2 cycles

 The electronic state is 1-A.
 Alpha  occ. eigenvalues -- -105.17653 -11.51669 -11.42378 -11.42354 -11.39885
 Alpha  occ. eigenvalues --  -11.39880 -11.35956  -2.74322  -1.46156  -1.42140
 Alpha  occ. eigenvalues --   -1.38965  -1.33803  -1.09018  -1.09015  -0.85817
 Alpha  occ. eigenvalues --   -0.85815  -0.74780  -0.72220  -0.65638  -0.58262
 Alpha  occ. eigenvalues --   -0.58258  -0.55911  -0.50033  -0.44720  -0.44718
 Alpha  occ. eigenvalues --   -0.32940  -0.32934  -0.26213  -0.20889  -0.04126
 Alpha virt. eigenvalues --    0.03417   0.04790   0.04791   0.05826   0.06200
 Alpha virt. eigenvalues --    0.06249   0.07238   0.08705   0.09914   0.10431
 Alpha virt. eigenvalues --    0.11200   0.11295   0.12064   0.13582   0.14332

 Mulliken charges:
               1
     1  C   -1.588964
     2  C   -1.513150
     3  C   -1.665498
     4  C   -1.292957
     5  C   -1.851236
     6  C   -1.242512
     7  H    1.510481
     8  H    1.508286
     9  H    1.503243
    10  H    1.546328
    11  H    1.497682
    12  H    1.533280
    13  P    1.599146
    14  H   -0.440411
    15  H   -0.470592
    16  H   -0.633125
 Sum of Mulliken charges =   0.00000

 Dipole moment (field-independent basis, Debye):
    X=             -2.9153    Y=             -1.6022    Z=             -3.8479  Tot=              5.0865

 Test job not archived.
 1\1\GINC-SE080\SP\RHF\Aug-CC-pVDZ\C6H9P1\OHZDE\09-Apr-2025\0\\#t hf au
 g-cc-pvdz iop(5/13=1,5/36=2,99/5=2) pseudo=read geom=check guess=(read
 ,tcheck) scf=(maxcycle=1)\\title\\0,1\C,0,1.3915,0.,1.\C,0,0.69575,1.2
 0507435,1.\C,0,-0.69575,1.20507435,1.\C,0,-1.3915,0.,1.\C,0,-0.69575,-
 1.20507435,1.\C,0,0.69575,-1.20507435,1.\H,0,2.4715,0.,1.\H,0,1.23575,
 2.14038179,1.\H,0,-1.23575,2.14038179,1.\H,0,-2.4715,0.,1.\H,0,-1.2357
 5,-2.14038179,1.\H,0,1.23575,-2.14038179,1.\P,0,0.,0.,6.25\H,0,0.,0.,4
 .83895\H,0,-1.19800816,0.59336739,6.70139084\H,0,-0.64201064,-1.186734

 Normal termination of Gaussian 16 at Wed Apr  9 02:16:38 2025.
