 Gaussian 16, Revision C.01,

 ----------------------------------------------------------------------
 #t hf aug-cc-pvdz symm=none int=(grid=ultrafine) guess=(read,tcheck) s
 table=(opt,rrhf)
 ----------------------------------------------------------------------
 -----
 title
 -----
 Symbolic Z-matrix:
 Charge =  0 Multiplicity = 1

 SCF Done:  E(RHF) =  -629.427734161     A.U. after   13 cycles
 Normal termination of Gaussian 16 at Wed Apr  9 02:16:00 2025.
 Gaussian 16:  ES64L-G16RevC.01  3-Jul-2019

 ----------------------------------------------------------------------
 #t hf aug-cc-pvdz iop(5/13=1,5/36=2,99/5=2) pseudo=read geom=check gue
 ss=(read,tcheck) scf=(maxcycle=1)
 ----------------------------------------------------------------------
 -----
 title
 -----
 Structure from the checkpoint file:  "BzDC215_121_mol1.chk"
 Charge =  0 Multiplicity = 1

                         Standard orientation:
 ---------------------------------------------------------------------
 Center     Atomic      Atomic             Coordinates (Angstroms)
 Number     Number       Type             X           Y           Z
 ---------------------------------------------------------------------
      1          6           0       -1.203246    1.406946    0.000000
      2          6           0       -1.203246    0.711196    1.205074
      3          6           0       -1.203246   -0.680304    1.205074
      4          6           0       -1.203246   -1.376054    0.000000
      5          6           0       -1.203246   -0.680304   -1.205074
      6          6           0       -1.203246    0.711196   -1.205074
      7          1           0       -1.203246    2.486946    0.000000
      8          1           0       -1.203246    1.251196    2.140382
      9          1           0       -1.203246   -1.220304    2.140382
     10          1           0       -1.203246   -2.456054    0.000000
     11          1           0       -1.203246   -1.220304   -2.140382
     12          1           0       -1.203246    1.251196   -2.140382
     13         16           0        2.896754    0.015446    0.000000
     14          1           0        2.575000   -1.280818    0.000000
     15          1           0        1.613279    0.384932    0.000000
 ---------------------------------------------------------------------

 SCF Done:  E(RHF) =  -630.788875964     A.U. after    2 cycles

 The electronic state is 1-A'.
 Alpha  occ. eigenvalues --  -75.69007 -13.14696 -13.08522 -13.00744 -11.52222
 Alpha  occ. eigenvalues --  -11.42904 -11.42865 -11.40528 -11.40450 -11.36487
 Alpha  occ. eigenvalues --   -8.02780  -1.34447  -1.10393  -1.09500  -1.09474
 Alpha  occ. eigenvalues --   -0.86306  -0.86296  -0.72810  -0.66091  -0.58737
 Alpha  occ. eigenvalues --   -0.58700  -0.56408  -0.54057  -0.50667  -0.45195
 Alpha  occ. eigenvalues --   -0.45174  -0.42348  -0.33543  -0.33517  -0.24729
 Alpha virt. eigenvalues --    0.02664   0.04905   0.04942   0.05059   0.05674
 Alpha virt. eigenvalues --    0.05945   0.06970   0.07215   0.10731   0.10964
 Alpha virt. eigenvalues --    0.12387   0.12762   0.13102   0.13896   0.14395

 Mulliken charges:
               1
     1  C   -1.380413
     2  C   -1.661422
     3  C   -1.182316
     4  C   -2.097247
     5  C   -1.182316
     6  C   -1.661422
     7  H    1.501186
     8  H    1.504155
     9  H    1.530826
    10  H    1.551757
    11  H    1.530826
    12  H    1.504155
    13  S   -2.299997
    14  H    1.013363
    15  H    1.328862
 Sum of Mulliken charges =   0.00000

 Dipole moment (field-independent basis, Debye):
    X=              0.5909    Y=              0.5766    Z=             -0.0000  Tot=              0.8256

 Test job not archived.
 1\1\GINC-SE398\SP\RHF\Aug-CC-pVDZ\C6H8S1\OHZDE\09-Apr-2025\0\\#t hf au
 g-cc-pvdz iop(5/13=1,5/36=2,99/5=2) pseudo=read geom=check guess=(read
 ,tcheck) scf=(maxcycle=1)\\title\\0,1\C,0,1.3915,0.,1.\C,0,0.69575,1.2
 0507435,1.\C,0,-0.69575,1.20507435,1.\C,0,-1.3915,0.,1.\C,0,-0.69575,-
 1.20507435,1.\C,0,0.69575,-1.20507435,1.\H,0,2.4715,0.,1.\H,0,1.23575,
 2.14038179,1.\H,0,-1.23575,2.14038179,1.\H,0,-2.4715,0.,1.\H,0,-1.2357
 5,-2.14038179,1.\H,0,1.23575,-2.14038179,1.\S,0,0.,0.,5.1\H,0,-1.29626
 462,0.,4.77824638\H,0,0.36948551,0.,3.8165251\\Version=ES64L-G16RevC.0

 Normal termination of Gaussian 16 at Wed Apr  9 02:16:04 2025.
