 Gaussian 16, Revision C.01,

 ----------------------------------------------------------------------
 #t hf aug-cc-pvdz symm=none int=(grid=ultrafine) guess=(read,tcheck) s
 table=(opt,rrhf)
 ----------------------------------------------------------------------
 -----
 title
 -----
 Symbolic Z-matrix:
 Charge =  0 Multiplicity = 1

 SCF Done:  E(RHF) =  -573.178691742     A.U. after   13 cycles
 Normal termination of Gaussian 16 at Wed Apr  9 02:16:29 2025.
 Gaussian 16:  ES64L-G16RevC.01  3-Jul-2019

 ----------------------------------------------------------------------
 #t hf aug-cc-pvdz iop(5/13=1,5/36=2,99/5=2) pseudo=read geom=check gue
 ss=(read,tcheck) scf=(maxcycle=1)
 ----------------------------------------------------------------------
 -----
 title
 -----
 Structure from the checkpoint file:  "BzDC215_140_mol1.chk"
 Charge =  0 Multiplicity = 1

                         Standard orientation:
 ---------------------------------------------------------------------
 Center     Atomic      Atomic             Coordinates (Angstroms)
 Number     Number       Type             X           Y           Z
 ---------------------------------------------------------------------
      1          6           0        1.258856    0.019696   -1.376479
      2          6           0        1.240791   -1.196286   -0.700215
      3          6           0        1.189405   -1.218448    0.690159
      4          6           0        1.156084   -0.024627    1.404269
      5          6           0        1.174150    1.191355    0.728006
      6          6           0        1.225536    1.213517   -0.662369
      7          1           0        1.298739    0.036896   -2.455605
      8          1           0        1.266652   -2.122860   -1.254466
      9          1           0        1.175383   -2.162222    1.215035
     10          1           0        1.116202   -0.041827    2.483396
     11          1           0        1.148289    2.117928    1.282256
     12          1           0        1.239558    2.157290   -1.187245
     13         15           0       -2.889651   -0.026017   -0.137903
     14          1           0       -1.479592   -0.017912   -0.085661
     15          1           0       -3.381210   -0.640972    1.033106
     16          1           0       -2.508190    1.152695    0.537513
 ---------------------------------------------------------------------

 SCF Done:  E(RHF) =  -574.512542894     A.U. after    2 cycles

 The electronic state is 1-A.
 Alpha  occ. eigenvalues -- -105.17131 -11.51890 -11.42586 -11.42549 -11.40218
 Alpha  occ. eigenvalues --  -11.40201 -11.36151  -2.73674  -1.45703  -1.41742
 Alpha  occ. eigenvalues --   -1.38644  -1.33925  -1.09278  -1.09269  -0.86014
 Alpha  occ. eigenvalues --   -0.86010  -0.74417  -0.72311  -0.65794  -0.58435
 Alpha  occ. eigenvalues --   -0.58427  -0.56072  -0.50348  -0.44882  -0.44877
 Alpha  occ. eigenvalues --   -0.33318  -0.33269  -0.25688  -0.20275  -0.03762
 Alpha virt. eigenvalues --    0.03562   0.04778   0.04787   0.06160   0.06265
 Alpha virt. eigenvalues --    0.06521   0.07149   0.08808   0.09633   0.10306
 Alpha virt. eigenvalues --    0.10948   0.11442   0.12752   0.13542   0.14079

 Mulliken charges:
               1
     1  C   -1.850264
     2  C   -1.311113
     3  C   -1.917870
     4  C   -0.600728
     5  C   -2.816698
     6  C   -0.825928
     7  H    1.513394
     8  H    1.514510
     9  H    1.508380
    10  H    1.599580
    11  H    1.488150
    12  H    1.552265
    13  P    1.983646
    14  H   -0.728745
    15  H   -0.412011
    16  H   -0.696568
 Sum of Mulliken charges =  -0.00000

 Dipole moment (field-independent basis, Debye):
    X=             -2.9673    Y=             -1.6889    Z=             -3.5771  Tot=              4.9450

 Test job not archived.
 1\1\GINC-SE366\SP\RHF\Aug-CC-pVDZ\C6H9P1\OHZDE\09-Apr-2025\0\\#t hf au
 g-cc-pvdz iop(5/13=1,5/36=2,99/5=2) pseudo=read geom=check guess=(read
 ,tcheck) scf=(maxcycle=1)\\title\\0,1\C,0,1.3915,0.,1.\C,0,0.69575,1.2
 0507435,1.\C,0,-0.69575,1.20507435,1.\C,0,-1.3915,0.,1.\C,0,-0.69575,-
 1.20507435,1.\C,0,0.69575,-1.20507435,1.\H,0,2.4715,0.,1.\H,0,1.23575,
 2.14038179,1.\H,0,-1.23575,2.14038179,1.\H,0,-2.4715,0.,1.\H,0,-1.2357
 5,-2.14038179,1.\H,0,1.23575,-2.14038179,1.\P,0,0.,0.,5.1\H,0,0.,0.,3.
 68895\H,0,-1.19800816,0.59336739,5.55139084\H,0,-0.64201064,-1.1867347

 Normal termination of Gaussian 16 at Wed Apr  9 02:16:34 2025.
