 Gaussian 16, Revision C.01,

 ----------------------------------------------------------------------
 #t hf aug-cc-pvdz symm=none int=(grid=ultrafine) guess=(read,tcheck) s
 table=(opt,rrhf)
 ----------------------------------------------------------------------
 -----
 title
 -----
 Symbolic Z-matrix:
 Charge =  0 Multiplicity = 1

 SCF Done:  E(RHF) =  -690.819814554     A.U. after   11 cycles

 1\1\GINC-SE116\Stability\RHF\Aug-CC-pVDZ\C6H7Cl1\OHZDE\09-Apr-2025\0\\
 #t hf aug-cc-pvdz symm=none int=(grid=ultrafine) guess=(read,tcheck) s
 table=(opt,rrhf)\\title\\0,1\C,0,1.3915,0.,1.\C,0,0.69575,1.20507435,1
 .\C,0,-0.69575,1.20507435,1.\C,0,-1.3915,0.,1.\C,0,-0.69575,-1.2050743
 5,1.\C,0,0.69575,-1.20507435,1.\H,0,2.4715,0.,1.\H,0,1.23575,2.1403817
 9,1.\H,0,-1.23575,2.14038179,1.\H,0,-2.4715,0.,1.\H,0,-1.23575,-2.1403
 8179,1.\H,0,1.23575,-2.14038179,1.\Cl,0,0.,0.,4.4\H,0,0.,0.,3.1253\\Ve
 rsion=ES64L-G16RevC.01\HF=-690.8198146\RMSD=7.444e-09\Dipole=0.,0.,-0.

 Normal termination of Gaussian 16 at Wed Apr  9 02:17:33 2025.
 Gaussian 16:  ES64L-G16RevC.01  3-Jul-2019

 ----------------------------------------------------------------------
 #t hf aug-cc-pvdz iop(5/13=1,5/36=2,99/5=2) pseudo=read geom=check gue
 ss=(read,tcheck) scf=(maxcycle=1)
 ----------------------------------------------------------------------
 -----
 title
 -----
 Structure from the checkpoint file:  "BzDC215_92_mol1.chk"
 Charge =  0 Multiplicity = 1

                         Standard orientation:
 ---------------------------------------------------------------------
 Center     Atomic      Atomic             Coordinates (Angstroms)
 Number     Number       Type             X           Y           Z
 ---------------------------------------------------------------------
      1          6           0        0.000000    1.391500   -0.998755
      2          6           0       -1.205074    0.695750   -0.998755
      3          6           0       -1.205074   -0.695750   -0.998755
      4          6           0       -0.000000   -1.391500   -0.998755
      5          6           0        1.205074   -0.695750   -0.998755
      6          6           0        1.205074    0.695750   -0.998755
      7          1           0        0.000000    2.471500   -0.998755
      8          1           0       -2.140382    1.235750   -0.998755
      9          1           0       -2.140382   -1.235750   -0.998755
     10          1           0       -0.000000   -2.471500   -0.998755
     11          1           0        2.140382   -1.235750   -0.998755
     12          1           0        2.140382    1.235750   -0.998755
     13         17           0        0.000000    0.000000    2.401245
     14          1           0        0.000000    0.000000    1.126545
 ---------------------------------------------------------------------

 SCF Done:  E(RHF) =  -692.211262555     A.U. after    2 cycles

 The electronic state is 1-A1.
 Alpha  occ. eigenvalues --  -99.88258 -11.52759 -11.43446 -11.43446 -11.41162
 Alpha  occ. eigenvalues --  -11.41162 -11.37099 -10.45505  -9.65684  -9.64747
 Alpha  occ. eigenvalues --   -9.64747  -1.35294  -1.28275  -1.10362  -1.10362
 Alpha  occ. eigenvalues --   -0.86980  -0.86980  -0.73585  -0.68095  -0.66583
 Alpha  occ. eigenvalues --   -0.59333  -0.59333  -0.56968  -0.51284  -0.50737
 Alpha  occ. eigenvalues --   -0.50737  -0.45727  -0.45727  -0.34399  -0.34399
 Alpha virt. eigenvalues --    0.03041   0.04930   0.04930   0.06036   0.06036
 Alpha virt. eigenvalues --    0.06932   0.07187   0.10642   0.10642   0.11412
 Alpha virt. eigenvalues --    0.12718   0.12718   0.12896   0.14048   0.14475

 Mulliken charges:
               1
     1  C   -1.498572
     2  C   -1.498572
     3  C   -1.498572
     4  C   -1.498572
     5  C   -1.498572
     6  C   -1.498572
     7  H    1.471705
     8  H    1.471705
     9  H    1.471705
    10  H    1.471705
    11  H    1.471705
    12  H    1.471705
    13  Cl  -0.696489
    14  H    0.857694
 Sum of Mulliken charges =  -0.00000

 Dipole moment (field-independent basis, Debye):
    X=             -0.0000    Y=              0.0000    Z=             -1.5479  Tot=              1.5479

 Test job not archived.
 1\1\GINC-SE116\SP\RHF\Aug-CC-pVDZ\C6H7Cl1\OHZDE\09-Apr-2025\0\\#t hf a
 ug-cc-pvdz iop(5/13=1,5/36=2,99/5=2) pseudo=read geom=check guess=(rea
 d,tcheck) scf=(maxcycle=1)\\title\\0,1\C,0,1.3915,0.,1.\C,0,0.69575,1.
 20507435,1.\C,0,-0.69575,1.20507435,1.\C,0,-1.3915,0.,1.\C,0,-0.69575,
 -1.20507435,1.\C,0,0.69575,-1.20507435,1.\H,0,2.4715,0.,1.\H,0,1.23575
 ,2.14038179,1.\H,0,-1.23575,2.14038179,1.\H,0,-2.4715,0.,1.\H,0,-1.235
 75,-2.14038179,1.\H,0,1.23575,-2.14038179,1.\Cl,0,0.,0.,4.4\H,0,0.,0.,
 3.1253\\Version=ES64L-G16RevC.01\State=1-A1\HF=-692.2112626\RMSD=1.710

 Normal termination of Gaussian 16 at Wed Apr  9 02:17:38 2025.
