 Gaussian 16, Revision C.01,

 ----------------------------------------------------------------------
 #t hf aug-cc-pvdz symm=none int=(grid=ultrafine) guess=(read,tcheck) s
 table=(opt,rrhf)
 ----------------------------------------------------------------------
 -----
 title
 -----
 Symbolic Z-matrix:
 Charge =  0 Multiplicity = 1

 SCF Done:  E(RHF) =  -690.821999243     A.U. after   11 cycles

 1\1\GINC-SE070\Stability\RHF\Aug-CC-pVDZ\C6H7Cl1\OHZDE\09-Apr-2025\0\\
 #t hf aug-cc-pvdz symm=none int=(grid=ultrafine) guess=(read,tcheck) s
 table=(opt,rrhf)\\title\\0,1\C,0,1.3915,0.,1.\C,0,0.69575,1.20507435,1
 .\C,0,-0.69575,1.20507435,1.\C,0,-1.3915,0.,1.\C,0,-0.69575,-1.2050743
 5,1.\C,0,0.69575,-1.20507435,1.\H,0,2.4715,0.,1.\H,0,1.23575,2.1403817
 9,1.\H,0,-1.23575,2.14038179,1.\H,0,-2.4715,0.,1.\H,0,-1.23575,-2.1403
 8179,1.\H,0,1.23575,-2.14038179,1.\Cl,0,0.,0.,7.\H,0,0.,0.,5.7253\\Ver
 sion=ES64L-G16RevC.01\HF=-690.8219992\RMSD=8.793e-09\Dipole=0.,0.,-0.5

 Normal termination of Gaussian 16 at Wed Apr  9 02:14:51 2025.
 Gaussian 16:  ES64L-G16RevC.01  3-Jul-2019

 ----------------------------------------------------------------------
 #t hf aug-cc-pvdz iop(5/13=1,5/36=2,99/5=2) pseudo=read geom=check gue
 ss=(read,tcheck) scf=(maxcycle=1)
 ----------------------------------------------------------------------
 -----
 title
 -----
 Structure from the checkpoint file:  "BzDC215_106_mol1.chk"
 Charge =  0 Multiplicity = 1

                         Standard orientation:
 ---------------------------------------------------------------------
 Center     Atomic      Atomic             Coordinates (Angstroms)
 Number     Number       Type             X           Y           Z
 ---------------------------------------------------------------------
      1          6           0        0.000000    1.391500   -1.778755
      2          6           0       -1.205074    0.695750   -1.778755
      3          6           0       -1.205074   -0.695750   -1.778755
      4          6           0       -0.000000   -1.391500   -1.778755
      5          6           0        1.205074   -0.695750   -1.778755
      6          6           0        1.205074    0.695750   -1.778755
      7          1           0        0.000000    2.471500   -1.778755
      8          1           0       -2.140382    1.235750   -1.778755
      9          1           0       -2.140382   -1.235750   -1.778755
     10          1           0       -0.000000   -2.471500   -1.778755
     11          1           0        2.140382   -1.235750   -1.778755
     12          1           0        2.140382    1.235750   -1.778755
     13         17           0        0.000000    0.000000    4.221245
     14          1           0        0.000000    0.000000    2.946545
 ---------------------------------------------------------------------

 SCF Done:  E(RHF) =  -692.202667556     A.U. after    2 cycles

 The electronic state is 1-A1.
 Alpha  occ. eigenvalues --  -99.90553 -11.51961 -11.42639 -11.42639 -11.40148
 Alpha  occ. eigenvalues --  -11.40148 -11.36242 -10.47736  -9.67858  -9.66867
 Alpha  occ. eigenvalues --   -9.66867  -1.34131  -1.30202  -1.09299  -1.09299
 Alpha  occ. eigenvalues --   -0.86105  -0.86105  -0.72513  -0.69261  -0.65919
 Alpha  occ. eigenvalues --   -0.58545  -0.58545  -0.56209  -0.52399  -0.52399
 Alpha  occ. eigenvalues --   -0.50367  -0.45005  -0.45005  -0.33232  -0.33232
 Alpha virt. eigenvalues --    0.02759   0.04702   0.04702   0.04915   0.06060
 Alpha virt. eigenvalues --    0.06060   0.07152   0.10845   0.11107   0.11107
 Alpha virt. eigenvalues --    0.11621   0.11793   0.11793   0.14125   0.14125

 Mulliken charges:
               1
     1  C   -1.505067
     2  C   -1.505067
     3  C   -1.505067
     4  C   -1.505067
     5  C   -1.505067
     6  C   -1.505067
     7  H    1.506840
     8  H    1.506840
     9  H    1.506840
    10  H    1.506840
    11  H    1.506840
    12  H    1.506840
    13  Cl  -0.494410
    14  H    0.483770
 Sum of Mulliken charges =   0.00000

 Dipole moment (field-independent basis, Debye):
    X=              0.0000    Y=              0.0000    Z=             -0.9790  Tot=              0.9790

 Test job not archived.
 1\1\GINC-SE070\SP\RHF\Aug-CC-pVDZ\C6H7Cl1\OHZDE\09-Apr-2025\0\\#t hf a
 ug-cc-pvdz iop(5/13=1,5/36=2,99/5=2) pseudo=read geom=check guess=(rea
 d,tcheck) scf=(maxcycle=1)\\title\\0,1\C,0,1.3915,0.,1.\C,0,0.69575,1.
 20507435,1.\C,0,-0.69575,1.20507435,1.\C,0,-1.3915,0.,1.\C,0,-0.69575,
 -1.20507435,1.\C,0,0.69575,-1.20507435,1.\H,0,2.4715,0.,1.\H,0,1.23575
 ,2.14038179,1.\H,0,-1.23575,2.14038179,1.\H,0,-2.4715,0.,1.\H,0,-1.235
 75,-2.14038179,1.\H,0,1.23575,-2.14038179,1.\Cl,0,0.,0.,7.\H,0,0.,0.,5
 .7253\\Version=ES64L-G16RevC.01\State=1-A1\HF=-692.2026676\RMSD=1.662e

 Normal termination of Gaussian 16 at Wed Apr  9 02:14:55 2025.
