 Gaussian 16, Revision C.01,

 ----------------------------------------------------------------------
 #t hf aug-cc-pvdz symm=none int=(grid=ultrafine) guess=(read,tcheck) s
 table=(opt,rrhf)
 ----------------------------------------------------------------------
 -----
 title
 -----
 Symbolic Z-matrix:
 Charge =  0 Multiplicity = 1

 SCF Done:  E(RHF) =  -629.423880678     A.U. after   13 cycles
 Normal termination of Gaussian 16 at Wed Apr  9 02:15:29 2025.
 Gaussian 16:  ES64L-G16RevC.01  3-Jul-2019

 ----------------------------------------------------------------------
 #t hf aug-cc-pvdz iop(5/13=1,5/36=2,99/5=2) pseudo=read geom=check gue
 ss=(read,tcheck) scf=(maxcycle=1)
 ----------------------------------------------------------------------
 -----
 title
 -----
 Structure from the checkpoint file:  "BzDC215_113_mol1.chk"
 Charge =  0 Multiplicity = 1

                         Standard orientation:
 ---------------------------------------------------------------------
 Center     Atomic      Atomic             Coordinates (Angstroms)
 Number     Number       Type             X           Y           Z
 ---------------------------------------------------------------------
      1          6           0       -1.053246    1.406946    0.000000
      2          6           0       -1.053246    0.711196    1.205074
      3          6           0       -1.053246   -0.680304    1.205074
      4          6           0       -1.053246   -1.376054    0.000000
      5          6           0       -1.053246   -0.680304   -1.205074
      6          6           0       -1.053246    0.711196   -1.205074
      7          1           0       -1.053246    2.486946    0.000000
      8          1           0       -1.053246    1.251196    2.140382
      9          1           0       -1.053246   -1.220304    2.140382
     10          1           0       -1.053246   -2.456054    0.000000
     11          1           0       -1.053246   -1.220304   -2.140382
     12          1           0       -1.053246    1.251196   -2.140382
     13         16           0        2.546754    0.015446   -0.000000
     14          1           0        2.225000   -1.280818   -0.000000
     15          1           0        1.263279    0.384932   -0.000000
 ---------------------------------------------------------------------

 SCF Done:  E(RHF) =  -630.790939645     A.U. after    2 cycles

 The electronic state is 1-A'.
 Alpha  occ. eigenvalues --  -75.68340 -13.14216 -13.08280 -13.00380 -11.52441
 Alpha  occ. eigenvalues --  -11.43091 -11.43030 -11.40742 -11.40679 -11.36655
 Alpha  occ. eigenvalues --   -8.02134  -1.34817  -1.10060  -1.09685  -1.09600
 Alpha  occ. eigenvalues --   -0.86496  -0.86478  -0.73104  -0.66242  -0.58928
 Alpha  occ. eigenvalues --   -0.58862  -0.56568  -0.54846  -0.50469  -0.45352
 Alpha  occ. eigenvalues --   -0.45322  -0.41459  -0.33989  -0.33793  -0.24155
 Alpha virt. eigenvalues --    0.02806   0.04948   0.04976   0.05369   0.05723
 Alpha virt. eigenvalues --    0.05856   0.06973   0.07199   0.10459   0.10758
 Alpha virt. eigenvalues --    0.12597   0.12977   0.13021   0.13811   0.14318

 Mulliken charges:
               1
     1  C   -1.424541
     2  C   -1.658182
     3  C   -1.114328
     4  C   -2.277195
     5  C   -1.114328
     6  C   -1.658182
     7  H    1.497491
     8  H    1.484709
     9  H    1.526583
    10  H    1.539789
    11  H    1.526583
    12  H    1.484709
    13  S   -2.571780
    14  H    0.977702
    15  H    1.780969
 Sum of Mulliken charges =  -0.00000

 Dipole moment (field-independent basis, Debye):
    X=              0.5054    Y=              0.5790    Z=              0.0000  Tot=              0.7685

 Test job not archived.
 1\1\GINC-SE403\SP\RHF\Aug-CC-pVDZ\C6H8S1\OHZDE\09-Apr-2025\0\\#t hf au
 g-cc-pvdz iop(5/13=1,5/36=2,99/5=2) pseudo=read geom=check guess=(read
 ,tcheck) scf=(maxcycle=1)\\title\\0,1\C,0,1.3915,0.,1.\C,0,0.69575,1.2
 0507435,1.\C,0,-0.69575,1.20507435,1.\C,0,-1.3915,0.,1.\C,0,-0.69575,-
 1.20507435,1.\C,0,0.69575,-1.20507435,1.\H,0,2.4715,0.,1.\H,0,1.23575,
 2.14038179,1.\H,0,-1.23575,2.14038179,1.\H,0,-2.4715,0.,1.\H,0,-1.2357
 5,-2.14038179,1.\H,0,1.23575,-2.14038179,1.\S,0,0.,0.,4.6\H,0,-1.29626
 462,0.,4.27824638\H,0,0.36948551,0.,3.3165251\\Version=ES64L-G16RevC.0

 Normal termination of Gaussian 16 at Wed Apr  9 02:15:34 2025.
