 Gaussian 16, Revision C.01,

 ----------------------------------------------------------------------
 #t hf aug-cc-pvdz symm=none int=(grid=ultrafine) guess=(read,tcheck) s
 table=(opt,rrhf)
 ----------------------------------------------------------------------
 -----
 title
 -----
 Symbolic Z-matrix:
 Charge =  0 Multiplicity = 1

 SCF Done:  E(RHF) =  -521.945630938     A.U. after   13 cycles
 Normal termination of Gaussian 16 at Wed Apr  9 02:17:06 2025.
 Gaussian 16:  ES64L-G16RevC.01  3-Jul-2019

 ----------------------------------------------------------------------
 #t hf aug-cc-pvdz iop(5/13=1,5/36=2,99/5=2) pseudo=read geom=check gue
 ss=(read,tcheck) scf=(maxcycle=1)
 ----------------------------------------------------------------------
 -----
 title
 -----
 Structure from the checkpoint file:  "BzDC215_156_mol1.chk"
 Charge =  0 Multiplicity = 1

                         Standard orientation:
 ---------------------------------------------------------------------
 Center     Atomic      Atomic             Coordinates (Angstroms)
 Number     Number       Type             X           Y           Z
 ---------------------------------------------------------------------
      1          6           0       -1.184254   -1.396390    0.021642
      2          6           0       -1.205640   -0.715279   -1.191578
      3          6           0       -1.221424    0.676032   -1.208195
      4          6           0       -1.215823    1.386232   -0.011593
      5          6           0       -1.194438    0.705121    1.201627
      6          6           0       -1.178653   -0.686190    1.218244
      7          1           0       -1.172003   -2.476244    0.034539
      8          1           0       -1.209987   -1.266494   -2.120310
      9          1           0       -1.238022    1.204671   -2.149825
     10          1           0       -1.228074    2.466086   -0.024491
     11          1           0       -1.190091    1.256336    2.130359
     12          1           0       -1.162055   -1.214829    2.159874
     13         14           0        2.799453    0.039754   -0.040305
     14          1           0        1.326240    0.023240   -0.023608
     15          1           0        3.296394   -1.165987   -0.725977
     16          1           0        3.274767    1.434205   -0.062460
     17          1           0        3.311873   -0.634695    1.165287
 ---------------------------------------------------------------------

 SCF Done:  E(RHF) =  -523.254657124     A.U. after    2 cycles

 The electronic state is 1-A.
 Alpha  occ. eigenvalues --  -76.20633 -11.51660 -11.42350 -11.42339 -11.40038
 Alpha  occ. eigenvalues --  -11.40005 -11.35909  -5.54020  -2.17295  -2.16696
 Alpha  occ. eigenvalues --   -2.15169  -1.33732  -1.09020  -1.09015  -0.85782
 Alpha  occ. eigenvalues --   -0.85781  -0.78084  -0.72196  -0.65587  -0.58206
 Alpha  occ. eigenvalues --   -0.58202  -0.55833  -0.51274  -0.49339  -0.44845
 Alpha  occ. eigenvalues --   -0.44658  -0.44656  -0.41396  -0.33004  -0.32988
 Alpha virt. eigenvalues --    0.03494   0.04727   0.04826   0.04873   0.06082
 Alpha virt. eigenvalues --    0.06138   0.06760   0.07039   0.07229   0.08454
 Alpha virt. eigenvalues --    0.09917   0.10319   0.11856   0.12085   0.12333

 Mulliken charges:
               1
     1  C   -1.694504
     2  C   -1.553240
     3  C   -1.641181
     4  C   -1.481646
     5  C   -1.740820
     6  C   -1.495204
     7  H    1.569532
     8  H    1.579685
     9  H    1.555768
    10  H    1.572062
    11  H    1.568442
    12  H    1.581793
    13  Si   6.036407
    14  H   -1.378163
    15  H   -1.398948
    16  H   -1.531546
    17  H   -1.548438
 Sum of Mulliken charges =  -0.00000

 Dipole moment (field-independent basis, Debye):
    X=             -0.2762    Y=              0.8587    Z=             -0.8015  Tot=              1.2066

 Test job not archived.
 1\1\GINC-SE412\SP\RHF\Aug-CC-pVDZ\C6H10Si1\OHZDE\09-Apr-2025\0\\#t hf
 aug-cc-pvdz iop(5/13=1,5/36=2,99/5=2) pseudo=read geom=check guess=(re
 ad,tcheck) scf=(maxcycle=1)\\title\\0,1\C,0,1.3915,0.,1.\C,0,0.69575,1
 .20507435,1.\C,0,-0.69575,1.20507435,1.\C,0,-1.3915,0.,1.\C,0,-0.69575
 ,-1.20507435,1.\C,0,0.69575,-1.20507435,1.\H,0,2.4715,0.,1.\H,0,1.2357
 5,2.14038179,1.\H,0,-1.23575,2.14038179,1.\H,0,-2.4715,0.,1.\H,0,-1.23
 575,-2.14038179,1.\H,0,1.23575,-2.14038179,1.\Si,0,0.,0.,5.\H,0,0.,0.,
 3.5266\H,0,1.20302606,0.69456742,5.49113333\H,0,-1.38913484,0.,5.49113

 Normal termination of Gaussian 16 at Wed Apr  9 02:17:13 2025.
