 Gaussian 16, Revision C.01,

 ----------------------------------------------------------------------
 #t hf aug-cc-pvdz symm=none int=(grid=ultrafine) guess=(read,tcheck) s
 table=(opt,rrhf)
 ----------------------------------------------------------------------
 -----
 title
 -----
 Symbolic Z-matrix:
 Charge =  0 Multiplicity = 1

 SCF Done:  E(RHF) =  -629.421901830     A.U. after   13 cycles
 Normal termination of Gaussian 16 at Wed Apr  9 02:15:31 2025.
 Gaussian 16:  ES64L-G16RevC.01  3-Jul-2019

 ----------------------------------------------------------------------
 #t hf aug-cc-pvdz iop(5/13=1,5/36=2,99/5=2) pseudo=read geom=check gue
 ss=(read,tcheck) scf=(maxcycle=1)
 ----------------------------------------------------------------------
 -----
 title
 -----
 Structure from the checkpoint file:  "BzDC215_112_mol1.chk"
 Charge =  0 Multiplicity = 1

                         Standard orientation:
 ---------------------------------------------------------------------
 Center     Atomic      Atomic             Coordinates (Angstroms)
 Number     Number       Type             X           Y           Z
 ---------------------------------------------------------------------
      1          6           0       -1.023246    1.406946    0.000000
      2          6           0       -1.023246    0.711196    1.205074
      3          6           0       -1.023246   -0.680304    1.205074
      4          6           0       -1.023246   -1.376054   -0.000000
      5          6           0       -1.023246   -0.680304   -1.205074
      6          6           0       -1.023246    0.711196   -1.205074
      7          1           0       -1.023246    2.486946    0.000000
      8          1           0       -1.023246    1.251196    2.140382
      9          1           0       -1.023246   -1.220304    2.140382
     10          1           0       -1.023246   -2.456054   -0.000000
     11          1           0       -1.023246   -1.220304   -2.140382
     12          1           0       -1.023246    1.251196   -2.140382
     13         16           0        2.476754    0.015446    0.000000
     14          1           0        2.155000   -1.280818   -0.000000
     15          1           0        1.193279    0.384932    0.000000
 ---------------------------------------------------------------------

 SCF Done:  E(RHF) =  -630.790788391     A.U. after    2 cycles

 The electronic state is 1-A'.
 Alpha  occ. eigenvalues --  -75.68133 -13.14092 -13.08207 -13.00255 -11.52492
 Alpha  occ. eigenvalues --  -11.43135 -11.43068 -11.40791 -11.40725 -11.36706
 Alpha  occ. eigenvalues --   -8.01939  -1.34946  -1.10052  -1.09744  -1.09555
 Alpha  occ. eigenvalues --   -0.86548  -0.86528  -0.73189  -0.66281  -0.58984
 Alpha  occ. eigenvalues --   -0.58906  -0.56608  -0.55226  -0.50355  -0.45391
 Alpha  occ. eigenvalues --   -0.45360  -0.41143  -0.34144  -0.33833  -0.23979
 Alpha virt. eigenvalues --    0.02844   0.04954   0.04982   0.05407   0.05764
 Alpha virt. eigenvalues --    0.05834   0.06982   0.07194   0.10389   0.10704
 Alpha virt. eigenvalues --    0.12607   0.12950   0.13086   0.13813   0.14296

 Mulliken charges:
               1
     1  C   -1.446071
     2  C   -1.645763
     3  C   -1.124735
     4  C   -2.296105
     5  C   -1.124735
     6  C   -1.645763
     7  H    1.498213
     8  H    1.480316
     9  H    1.522181
    10  H    1.537949
    11  H    1.522181
    12  H    1.480316
    13  S   -2.642004
    14  H    0.971818
    15  H    1.912202
 Sum of Mulliken charges =  -0.00000

 Dipole moment (field-independent basis, Debye):
    X=              0.4904    Y=              0.5797    Z=             -0.0000  Tot=              0.7593

 Test job not archived.
 1\1\GINC-SE364\SP\RHF\Aug-CC-pVDZ\C6H8S1\OHZDE\09-Apr-2025\0\\#t hf au
 g-cc-pvdz iop(5/13=1,5/36=2,99/5=2) pseudo=read geom=check guess=(read
 ,tcheck) scf=(maxcycle=1)\\title\\0,1\C,0,1.3915,0.,1.\C,0,0.69575,1.2
 0507435,1.\C,0,-0.69575,1.20507435,1.\C,0,-1.3915,0.,1.\C,0,-0.69575,-
 1.20507435,1.\C,0,0.69575,-1.20507435,1.\H,0,2.4715,0.,1.\H,0,1.23575,
 2.14038179,1.\H,0,-1.23575,2.14038179,1.\H,0,-2.4715,0.,1.\H,0,-1.2357
 5,-2.14038179,1.\H,0,1.23575,-2.14038179,1.\S,0,0.,0.,4.5\H,0,-1.29626
 462,0.,4.17824638\H,0,0.36948551,0.,3.2165251\\Version=ES64L-G16RevC.0

 Normal termination of Gaussian 16 at Wed Apr  9 02:15:35 2025.
