 Gaussian 16, Revision C.01,

 ----------------------------------------------------------------------
 #t hf aug-cc-pvdz symm=none int=(grid=ultrafine) guess=(read,tcheck) s
 table=(opt,rrhf)
 ----------------------------------------------------------------------
 -----
 title
 -----
 Symbolic Z-matrix:
 Charge =  0 Multiplicity = 1

 SCF Done:  E(RHF) =  -521.937636306     A.U. after   13 cycles
 Normal termination of Gaussian 16 at Wed Apr  9 02:16:47 2025.
 Gaussian 16:  ES64L-G16RevC.01  3-Jul-2019

 ----------------------------------------------------------------------
 #t hf aug-cc-pvdz iop(5/13=1,5/36=2,99/5=2) pseudo=read geom=check gue
 ss=(read,tcheck) scf=(maxcycle=1)
 ----------------------------------------------------------------------
 -----
 title
 -----
 Structure from the checkpoint file:  "BzDC215_152_mol1.chk"
 Charge =  0 Multiplicity = 1

                         Standard orientation:
 ---------------------------------------------------------------------
 Center     Atomic      Atomic             Coordinates (Angstroms)
 Number     Number       Type             X           Y           Z
 ---------------------------------------------------------------------
      1          6           0       -1.060522   -1.397823    0.024804
      2          6           0       -1.086873   -0.718295   -1.189205
      3          6           0       -1.106378    0.672948   -1.207519
      4          6           0       -1.099532    1.384662   -0.011823
      5          6           0       -1.073181    0.705134    1.202187
      6          6           0       -1.053676   -0.686109    1.220500
      7          1           0       -1.045383   -2.477624    0.039018
      8          1           0       -1.092186   -1.270685   -2.117233
      9          1           0       -1.126830    1.200358   -2.149761
     10          1           0       -1.114670    2.464463   -0.026037
     11          1           0       -1.067868    1.257524    2.130215
     12          1           0       -1.033224   -1.213519    2.162743
     13         14           0        2.519278    0.043220   -0.043760
     14          1           0        1.046162    0.022838   -0.023193
     15          1           0        3.017613   -1.162065   -0.729221
     16          1           0        2.990845    1.438892   -0.068898
     17          1           0        3.036622   -0.628360    1.161331
 ---------------------------------------------------------------------

 SCF Done:  E(RHF) =  -523.252605018     A.U. after    2 cycles

 The electronic state is 1-A.
 Alpha  occ. eigenvalues --  -76.20003 -11.51841 -11.42482 -11.42462 -11.40192
 Alpha  occ. eigenvalues --  -11.40182 -11.36066  -5.53412  -2.16796  -2.16287
 Alpha  occ. eigenvalues --   -2.14620  -1.34061  -1.09216  -1.09212  -0.85954
 Alpha  occ. eigenvalues --   -0.85952  -0.77839  -0.72380  -0.65715  -0.58356
 Alpha  occ. eigenvalues --   -0.58351  -0.55952  -0.53180  -0.49036  -0.44784
 Alpha  occ. eigenvalues --   -0.44783  -0.42882  -0.41098  -0.33306  -0.33268
 Alpha virt. eigenvalues --    0.03561   0.04739   0.04814   0.04991   0.06090
 Alpha virt. eigenvalues --    0.06127   0.06815   0.07039   0.07183   0.08746
 Alpha virt. eigenvalues --    0.09871   0.10245   0.11384   0.12270   0.12479

 Mulliken charges:
               1
     1  C   -1.764494
     2  C   -1.600831
     3  C   -1.752727
     4  C   -1.447216
     5  C   -1.887426
     6  C   -1.522846
     7  H    1.566651
     8  H    1.576596
     9  H    1.555659
    10  H    1.577132
    11  H    1.561795
    12  H    1.585986
    13  Si   6.142840
    14  H   -0.965886
    15  H   -1.433408
    16  H   -1.585164
    17  H   -1.606663
 Sum of Mulliken charges =   0.00000

 Dipole moment (field-independent basis, Debye):
    X=             -0.3743    Y=              0.8437    Z=             -0.7876  Tot=              1.2134

 Test job not archived.
 1\1\GINC-SE029\SP\RHF\Aug-CC-pVDZ\C6H10Si1\OHZDE\09-Apr-2025\0\\#t hf
 aug-cc-pvdz iop(5/13=1,5/36=2,99/5=2) pseudo=read geom=check guess=(re
 ad,tcheck) scf=(maxcycle=1)\\title\\0,1\C,0,1.3915,0.,1.\C,0,0.69575,1
 .20507435,1.\C,0,-0.69575,1.20507435,1.\C,0,-1.3915,0.,1.\C,0,-0.69575
 ,-1.20507435,1.\C,0,0.69575,-1.20507435,1.\H,0,2.4715,0.,1.\H,0,1.2357
 5,2.14038179,1.\H,0,-1.23575,2.14038179,1.\H,0,-2.4715,0.,1.\H,0,-1.23
 575,-2.14038179,1.\H,0,1.23575,-2.14038179,1.\Si,0,0.,0.,4.6\H,0,0.,0.
 ,3.1266\H,0,1.20302606,0.69456742,5.09113333\H,0,-1.38913484,0.,5.0911

 Normal termination of Gaussian 16 at Wed Apr  9 02:16:53 2025.
