 Gaussian 16, Revision C.01,

 ----------------------------------------------------------------------
 #t hf aug-cc-pvdz symm=none int=(grid=ultrafine) guess=(read,tcheck) s
 table=(opt,rrhf)
 ----------------------------------------------------------------------
 -----
 title
 -----
 Symbolic Z-matrix:
 Charge =  0 Multiplicity = 1

 SCF Done:  E(RHF) =  -573.164664369     A.U. after   14 cycles
 Normal termination of Gaussian 16 at Wed Apr  9 02:16:06 2025.
 Gaussian 16:  ES64L-G16RevC.01  3-Jul-2019

 ----------------------------------------------------------------------
 #t hf aug-cc-pvdz iop(5/13=1,5/36=2,99/5=2) pseudo=read geom=check gue
 ss=(read,tcheck) scf=(maxcycle=1)
 ----------------------------------------------------------------------
 -----
 title
 -----
 Structure from the checkpoint file:  "BzDC215_132_mol1.chk"
 Charge =  0 Multiplicity = 1

                         Standard orientation:
 ---------------------------------------------------------------------
 Center     Atomic      Atomic             Coordinates (Angstroms)
 Number     Number       Type             X           Y           Z
 ---------------------------------------------------------------------
      1          6           0        1.072604    0.019675   -1.366032
      2          6           0        1.044271   -1.196339   -0.690176
      3          6           0        0.969036   -1.218581    0.699110
      4          6           0        0.922134   -0.024811    1.412541
      5          6           0        0.950466    1.191203    0.736686
      6          6           0        1.025702    1.213445   -0.652601
      7          1           0        1.130998    0.036938   -2.444314
      8          1           0        1.080674   -2.122873   -1.243899
      9          1           0        0.947046   -2.162379    1.223669
     10          1           0        0.863740   -0.042074    2.490823
     11          1           0        0.914064    2.117737    1.290408
     12          1           0        1.047692    2.157243   -1.177160
     13         15           0       -2.397557   -0.025856   -0.160967
     14          1           0       -0.988613   -0.016191   -0.084512
     15          1           0       -2.908476   -0.641375    1.001427
     16          1           0       -2.029058    1.153265    0.520900
 ---------------------------------------------------------------------

 SCF Done:  E(RHF) =  -574.511449450     A.U. after    2 cycles

 The electronic state is 1-A.
 Alpha  occ. eigenvalues -- -105.16122 -11.52194 -11.42842 -11.42792 -11.40537
 Alpha  occ. eigenvalues --  -11.40522 -11.36503  -2.72609  -1.45161  -1.41017
 Alpha  occ. eigenvalues --   -1.38180  -1.34563  -1.09708  -1.09686  -0.86369
 Alpha  occ. eigenvalues --   -0.86358  -0.74385  -0.72356  -0.66042  -0.58734
 Alpha  occ. eigenvalues --   -0.58716  -0.56307  -0.51592  -0.45132  -0.45122
 Alpha  occ. eigenvalues --   -0.34220  -0.33946  -0.24637  -0.19054  -0.02964
 Alpha virt. eigenvalues --    0.03699   0.04773   0.04784   0.06158   0.06258
 Alpha virt. eigenvalues --    0.06923   0.07055   0.08637   0.09601   0.10189
 Alpha virt. eigenvalues --    0.10572   0.11682   0.12891   0.13728   0.13920

 Mulliken charges:
               1
     1  C   -1.843574
     2  C   -1.321721
     3  C   -1.901894
     4  C   -0.674534
     5  C   -2.845618
     6  C   -1.081227
     7  H    1.524330
     8  H    1.524405
     9  H    1.505264
    10  H    1.591812
    11  H    1.469250
    12  H    1.538387
    13  P    1.808949
    14  H   -0.109089
    15  H   -0.360175
    16  H   -0.824567
 Sum of Mulliken charges =   0.00000

 Dipole moment (field-independent basis, Debye):
    X=             -2.9885    Y=             -1.7300    Z=             -3.3275  Tot=              4.7954

 Test job not archived.
 1\1\GINC-SE292\SP\RHF\Aug-CC-pVDZ\C6H9P1\OHZDE\09-Apr-2025\0\\#t hf au
 g-cc-pvdz iop(5/13=1,5/36=2,99/5=2) pseudo=read geom=check guess=(read
 ,tcheck) scf=(maxcycle=1)\\title\\0,1\C,0,1.3915,0.,1.\C,0,0.69575,1.2
 0507435,1.\C,0,-0.69575,1.20507435,1.\C,0,-1.3915,0.,1.\C,0,-0.69575,-
 1.20507435,1.\C,0,0.69575,-1.20507435,1.\H,0,2.4715,0.,1.\H,0,1.23575,
 2.14038179,1.\H,0,-1.23575,2.14038179,1.\H,0,-2.4715,0.,1.\H,0,-1.2357
 5,-2.14038179,1.\H,0,1.23575,-2.14038179,1.\P,0,0.,0.,4.4\H,0,0.,0.,2.
 98895\H,0,-1.19800816,0.59336739,4.85139084\H,0,-0.64201064,-1.1867347

 Normal termination of Gaussian 16 at Wed Apr  9 02:16:11 2025.
