 Gaussian 16, Revision C.01,

 ----------------------------------------------------------------------
 #t hf aug-cc-pvdz symm=none int=(grid=ultrafine) guess=(read,tcheck) s
 table=(opt,rrhf)
 ----------------------------------------------------------------------
 -----
 title
 -----
 Symbolic Z-matrix:
 Charge =  0 Multiplicity = 1

 SCF Done:  E(RHF) =  -342.450977231     A.U. after   11 cycles
 Normal termination of Gaussian 16 at Wed Apr  9 02:15:59 2025.
 Gaussian 16:  ES64L-G16RevC.01  3-Jul-2019

 ----------------------------------------------------------------------
 #t hf aug-cc-pvdz iop(5/13=1,5/36=2,99/5=2) pseudo=read geom=check gue
 ss=(read,tcheck) scf=(maxcycle=1)
 ----------------------------------------------------------------------
 -----
 title
 -----
 Structure from the checkpoint file:  "BzDC215_132_mol3.chk"
 Charge =  0 Multiplicity = 1

                         Standard orientation:
 ---------------------------------------------------------------------
 Center     Atomic      Atomic             Coordinates (Angstroms)
 Number     Number       Type             X           Y           Z
 ---------------------------------------------------------------------
      1         15           0       -0.049647   -0.101153   -0.068225
      2          1           0        1.090677   -0.156388    0.761035
      3          1           0       -1.060538    0.620091    0.601827
      4          1           0        0.714570    1.053597   -0.339492
 ---------------------------------------------------------------------

 SCF Done:  E(RHF) =  -342.654832948     A.U. after    2 cycles

 The electronic state is 1-A.
 Alpha  occ. eigenvalues -- -105.18219  -2.74939  -1.46637  -1.42562  -1.39353
 Alpha  occ. eigenvalues --   -0.75417  -0.26841  -0.21650  -0.04623
 Alpha virt. eigenvalues --    0.04302   0.07817   0.08493   0.10001   0.10756
 Alpha virt. eigenvalues --    0.14330   0.18060   0.23883   0.24955   0.25960
 Alpha virt. eigenvalues --    0.29189   0.29849   0.41011   0.42518   0.42694

 Mulliken charges:
               1
     1  P    1.475123
     2  H   -0.488365
     3  H   -0.406561
     4  H   -0.580197
 Sum of Mulliken charges =  -0.00000

 Dipole moment (field-independent basis, Debye):
    X=             -2.4489    Y=             -4.1898    Z=             -2.6944  Tot=              5.5508

 Test job not archived.
 1\1\GINC-SE029\SP\RHF\Aug-CC-pVDZ\H3P1\OHZDE\09-Apr-2025\0\\#t hf aug-
 cc-pvdz iop(5/13=1,5/36=2,99/5=2) pseudo=read geom=check guess=(read,t
 check) scf=(maxcycle=1)\\title\\0,1\P,0,0.,0.,5.05\H,0,0.,0.,3.63895\H
 ,0,-1.19800816,0.59336739,5.50139084\H,0,-0.64201064,-1.18673478,4.637
 02904\\Version=ES64L-G16RevC.01\State=1-A\HF=-342.6548329\RMSD=4.544e-
 01\Dipole=1.5989282,0.6517931,1.3370675\Quadrupole=-2.249538,2.5953326
 ,-0.3457946,-0.5147789,-2.4230288,-1.4016531\PG=C01 [X(H3P1)]\\@

 Normal termination of Gaussian 16 at Wed Apr  9 02:16:00 2025.
