 Gaussian 16, Revision C.01,

 ----------------------------------------------------------------------
 #t hf aug-cc-pvdz symm=none int=(grid=ultrafine) guess=(read,tcheck) s
 table=(opt,rrhf)
 ----------------------------------------------------------------------
 -----
 title
 -----
 Symbolic Z-matrix:
 Charge =  0 Multiplicity = 1

 SCF Done:  E(RHF) =  -573.171813069     A.U. after   14 cycles
 Normal termination of Gaussian 16 at Wed Apr  9 02:16:39 2025.
 Gaussian 16:  ES64L-G16RevC.01  3-Jul-2019

 ----------------------------------------------------------------------
 #t hf aug-cc-pvdz iop(5/13=1,5/36=2,99/5=2) pseudo=read geom=check gue
 ss=(read,tcheck) scf=(maxcycle=1)
 ----------------------------------------------------------------------
 -----
 title
 -----
 Structure from the checkpoint file:  "BzDC215_134_mol1.chk"
 Charge =  0 Multiplicity = 1

                         Standard orientation:
 ---------------------------------------------------------------------
 Center     Atomic      Atomic             Coordinates (Angstroms)
 Number     Number       Type             X           Y           Z
 ---------------------------------------------------------------------
      1          6           0        1.123656    0.018947   -1.370111
      2          6           0        1.099249   -1.196705   -0.693452
      3          6           0        1.033022   -1.218198    0.696305
      4          6           0        0.991201   -0.024039    1.409403
      5          6           0        1.015607    1.191612    0.732744
      6          6           0        1.081834    1.213106   -0.657013
      7          1           0        1.175058    0.035629   -2.448758
      8          1           0        1.131709   -2.123540   -1.246917
      9          1           0        1.014079   -2.161715    1.221487
     10          1           0        0.939799   -0.040721    2.488050
     11          1           0        0.983148    2.118448    1.286208
     12          1           0        1.100777    2.156623   -1.182196
     13         15           0       -2.538398   -0.025936   -0.152071
     14          1           0       -1.128984   -0.016768   -0.084765
     15          1           0       -3.041996   -0.640657    1.013934
     16          1           0       -2.165037    1.153399    0.526776
 ---------------------------------------------------------------------

 SCF Done:  E(RHF) =  -574.513793843     A.U. after    2 cycles

 The electronic state is 1-A.
 Alpha  occ. eigenvalues -- -105.16525 -11.52089 -11.42756 -11.42705 -11.40438
 Alpha  occ. eigenvalues --  -11.40434 -11.36322  -2.73008  -1.45353  -1.41320
 Alpha  occ. eigenvalues --   -1.38396  -1.34245  -1.09543  -1.09526  -0.86228
 Alpha  occ. eigenvalues --   -0.86220  -0.74335  -0.72346  -0.65947  -0.58614
 Alpha  occ. eigenvalues --   -0.58600  -0.56218  -0.51072  -0.45036  -0.45028
 Alpha  occ. eigenvalues --   -0.33841  -0.33673  -0.25071  -0.19591  -0.03307
 Alpha virt. eigenvalues --    0.03662   0.04776   0.04786   0.06166   0.06264
 Alpha virt. eigenvalues --    0.06799   0.07086   0.08704   0.09572   0.10235
 Alpha virt. eigenvalues --    0.10699   0.11615   0.12947   0.13602   0.13962

 Mulliken charges:
               1
     1  C   -1.869497
     2  C   -1.282799
     3  C   -1.922116
     4  C   -0.553982
     5  C   -2.903429
     6  C   -0.971052
     7  H    1.520209
     8  H    1.520340
     9  H    1.505073
    10  H    1.598732
    11  H    1.465482
    12  H    1.545763
    13  P    1.879055
    14  H   -0.375606
    15  H   -0.379843
    16  H   -0.776332
 Sum of Mulliken charges =  -0.00000

 Dipole moment (field-independent basis, Debye):
    X=             -3.0536    Y=             -1.7241    Z=             -3.4220  Tot=              4.8997

 Test job not archived.
 1\1\GINC-SE159\SP\RHF\Aug-CC-pVDZ\C6H9P1\OHZDE\09-Apr-2025\0\\#t hf au
 g-cc-pvdz iop(5/13=1,5/36=2,99/5=2) pseudo=read geom=check guess=(read
 ,tcheck) scf=(maxcycle=1)\\title\\0,1\C,0,1.3915,0.,1.\C,0,0.69575,1.2
 0507435,1.\C,0,-0.69575,1.20507435,1.\C,0,-1.3915,0.,1.\C,0,-0.69575,-
 1.20507435,1.\C,0,0.69575,-1.20507435,1.\H,0,2.4715,0.,1.\H,0,1.23575,
 2.14038179,1.\H,0,-1.23575,2.14038179,1.\H,0,-2.4715,0.,1.\H,0,-1.2357
 5,-2.14038179,1.\H,0,1.23575,-2.14038179,1.\P,0,0.,0.,4.6\H,0,0.,0.,3.
 18895\H,0,-1.19800816,0.59336739,5.05139084\H,0,-0.64201064,-1.1867347

 Normal termination of Gaussian 16 at Wed Apr  9 02:16:47 2025.
