 Gaussian 16, Revision C.01,

 ----------------------------------------------------------------------
 #t hf aug-cc-pvdz symm=none int=(grid=ultrafine) guess=(read,tcheck) s
 table=(opt,rrhf)
 ----------------------------------------------------------------------
 -----
 title
 -----
 Symbolic Z-matrix:
 Charge =  0 Multiplicity = 1

 SCF Done:  E(RHF) =  -690.824325076     A.U. after   11 cycles

 1\1\GINC-SE253\Stability\RHF\Aug-CC-pVDZ\C6H7Cl1\OHZDE\09-Apr-2025\0\\
 #t hf aug-cc-pvdz symm=none int=(grid=ultrafine) guess=(read,tcheck) s
 table=(opt,rrhf)\\title\\0,1\C,0,1.3915,0.,1.\C,0,0.69575,1.20507435,1
 .\C,0,-0.69575,1.20507435,1.\C,0,-1.3915,0.,1.\C,0,-0.69575,-1.2050743
 5,1.\C,0,0.69575,-1.20507435,1.\H,0,2.4715,0.,1.\H,0,1.23575,2.1403817
 9,1.\H,0,-1.23575,2.14038179,1.\H,0,-2.4715,0.,1.\H,0,-1.23575,-2.1403
 8179,1.\H,0,1.23575,-2.14038179,1.\Cl,0,0.,0.,5.\H,0,0.,0.,3.7253\\Ver
 sion=ES64L-G16RevC.01\HF=-690.8243251\RMSD=8.972e-09\Dipole=0.,0.,-0.7

 Normal termination of Gaussian 16 at Wed Apr  9 02:14:54 2025.
 Gaussian 16:  ES64L-G16RevC.01  3-Jul-2019

 ----------------------------------------------------------------------
 #t hf aug-cc-pvdz iop(5/13=1,5/36=2,99/5=2) pseudo=read geom=check gue
 ss=(read,tcheck) scf=(maxcycle=1)
 ----------------------------------------------------------------------
 -----
 title
 -----
 Structure from the checkpoint file:  "BzDC215_100_mol1.chk"
 Charge =  0 Multiplicity = 1

                         Standard orientation:
 ---------------------------------------------------------------------
 Center     Atomic      Atomic             Coordinates (Angstroms)
 Number     Number       Type             X           Y           Z
 ---------------------------------------------------------------------
      1          6           0        0.000000    1.391500   -1.178755
      2          6           0       -1.205074    0.695750   -1.178755
      3          6           0       -1.205074   -0.695750   -1.178755
      4          6           0       -0.000000   -1.391500   -1.178755
      5          6           0        1.205074   -0.695750   -1.178755
      6          6           0        1.205074    0.695750   -1.178755
      7          1           0        0.000000    2.471500   -1.178755
      8          1           0       -2.140382    1.235750   -1.178755
      9          1           0       -2.140382   -1.235750   -1.178755
     10          1           0       -0.000000   -2.471500   -1.178755
     11          1           0        2.140382   -1.235750   -1.178755
     12          1           0        2.140382    1.235750   -1.178755
     13         17           0        0.000000    0.000000    2.821245
     14          1           0        0.000000    0.000000    1.546545
 ---------------------------------------------------------------------

 SCF Done:  E(RHF) =  -692.209518215     A.U. after    2 cycles

 The electronic state is 1-A1.
 Alpha  occ. eigenvalues --  -99.89423 -11.52520 -11.43209 -11.43209 -11.40830
 Alpha  occ. eigenvalues --  -11.40830 -11.36831 -10.46612  -9.66782  -9.65803
 Alpha  occ. eigenvalues --   -9.65803  -1.34710  -1.29125  -1.09976  -1.09976
 Alpha  occ. eigenvalues --   -0.86667  -0.86667  -0.73117  -0.68235  -0.66380
 Alpha  occ. eigenvalues --   -0.59070  -0.59070  -0.56744  -0.51423  -0.51423
 Alpha  occ. eigenvalues --   -0.51099  -0.45504  -0.45504  -0.34008  -0.34008
 Alpha virt. eigenvalues --    0.02856   0.04838   0.04838   0.06085   0.06085
 Alpha virt. eigenvalues --    0.06578   0.07006   0.10721   0.10721   0.10864
 Alpha virt. eigenvalues --    0.12478   0.12687   0.12687   0.14198   0.14290

 Mulliken charges:
               1
     1  C   -1.492504
     2  C   -1.492504
     3  C   -1.492504
     4  C   -1.492504
     5  C   -1.492504
     6  C   -1.492504
     7  H    1.498530
     8  H    1.498530
     9  H    1.498530
    10  H    1.498530
    11  H    1.498530
    12  H    1.498530
    13  Cl  -0.551196
    14  H    0.515038
 Sum of Mulliken charges =  -0.00000

 Dipole moment (field-independent basis, Debye):
    X=             -0.0000    Y=              0.0000    Z=             -1.3443  Tot=              1.3443

 Test job not archived.
 1\1\GINC-SE253\SP\RHF\Aug-CC-pVDZ\C6H7Cl1\OHZDE\09-Apr-2025\0\\#t hf a
 ug-cc-pvdz iop(5/13=1,5/36=2,99/5=2) pseudo=read geom=check guess=(rea
 d,tcheck) scf=(maxcycle=1)\\title\\0,1\C,0,1.3915,0.,1.\C,0,0.69575,1.
 20507435,1.\C,0,-0.69575,1.20507435,1.\C,0,-1.3915,0.,1.\C,0,-0.69575,
 -1.20507435,1.\C,0,0.69575,-1.20507435,1.\H,0,2.4715,0.,1.\H,0,1.23575
 ,2.14038179,1.\H,0,-1.23575,2.14038179,1.\H,0,-2.4715,0.,1.\H,0,-1.235
 75,-2.14038179,1.\H,0,1.23575,-2.14038179,1.\Cl,0,0.,0.,5.\H,0,0.,0.,3
 .7253\\Version=ES64L-G16RevC.01\State=1-A1\HF=-692.2095182\RMSD=1.691e

 Normal termination of Gaussian 16 at Wed Apr  9 02:14:58 2025.
