 Gaussian 16, Revision C.01,

 ----------------------------------------------------------------------
 #t hf aug-cc-pvdz symm=none int=(grid=ultrafine) guess=(read,tcheck) s
 table=(opt,rrhf)
 ----------------------------------------------------------------------
 -----
 title
 -----
 Symbolic Z-matrix:
 Charge =  0 Multiplicity = 1

 SCF Done:  E(RHF) =  -629.425850795     A.U. after   13 cycles
 Normal termination of Gaussian 16 at Wed Apr  9 02:15:36 2025.
 Gaussian 16:  ES64L-G16RevC.01  3-Jul-2019

 ----------------------------------------------------------------------
 #t hf aug-cc-pvdz iop(5/13=1,5/36=2,99/5=2) pseudo=read geom=check gue
 ss=(read,tcheck) scf=(maxcycle=1)
 ----------------------------------------------------------------------
 -----
 title
 -----
 Structure from the checkpoint file:  "BzDC215_116_mol1.chk"
 Charge =  0 Multiplicity = 1

                         Standard orientation:
 ---------------------------------------------------------------------
 Center     Atomic      Atomic             Coordinates (Angstroms)
 Number     Number       Type             X           Y           Z
 ---------------------------------------------------------------------
      1          6           0       -1.098246    1.406946    0.000000
      2          6           0       -1.098246    0.711196    1.205074
      3          6           0       -1.098246   -0.680304    1.205074
      4          6           0       -1.098246   -1.376054   -0.000000
      5          6           0       -1.098246   -0.680304   -1.205074
      6          6           0       -1.098246    0.711196   -1.205074
      7          1           0       -1.098246    2.486946    0.000000
      8          1           0       -1.098246    1.251196    2.140382
      9          1           0       -1.098246   -1.220304    2.140382
     10          1           0       -1.098246   -2.456054   -0.000000
     11          1           0       -1.098246   -1.220304   -2.140382
     12          1           0       -1.098246    1.251196   -2.140382
     13         16           0        2.651754    0.015446    0.000000
     14          1           0        2.330000   -1.280818   -0.000000
     15          1           0        1.368279    0.384932    0.000000
 ---------------------------------------------------------------------

 SCF Done:  E(RHF) =  -630.790592249     A.U. after    2 cycles

 The electronic state is 1-A'.
 Alpha  occ. eigenvalues --  -75.68596 -13.14388 -13.08372 -13.00524 -11.52369
 Alpha  occ. eigenvalues --  -11.43031 -11.42978 -11.40673 -11.40609 -11.36596
 Alpha  occ. eigenvalues --   -8.02378  -1.34668  -1.10136  -1.09608  -1.09598
 Alpha  occ. eigenvalues --   -0.86428  -0.86414  -0.72997  -0.66190  -0.58858
 Alpha  occ. eigenvalues --   -0.58804  -0.56515  -0.54438  -0.50595  -0.45299
 Alpha  occ. eigenvalues --   -0.45272  -0.41825  -0.33804  -0.33721  -0.24372
 Alpha virt. eigenvalues --    0.02754   0.04938   0.04966   0.05289   0.05688
 Alpha virt. eigenvalues --    0.05886   0.06966   0.07205   0.10554   0.10830
 Alpha virt. eigenvalues --    0.12548   0.12942   0.13016   0.13823   0.14347

 Mulliken charges:
               1
     1  C   -1.400861
     2  C   -1.668922
     3  C   -1.115936
     4  C   -2.237411
     5  C   -1.115936
     6  C   -1.668922
     7  H    1.497577
     8  H    1.491058
     9  H    1.530617
    10  H    1.543789
    11  H    1.530617
    12  H    1.491058
    13  S   -2.474382
    14  H    0.989198
    15  H    1.608457
 Sum of Mulliken charges =  -0.00000

 Dipole moment (field-independent basis, Debye):
    X=              0.5294    Y=              0.5784    Z=             -0.0000  Tot=              0.7840

 Test job not archived.
 1\1\GINC-SE459\SP\RHF\Aug-CC-pVDZ\C6H8S1\OHZDE\09-Apr-2025\0\\#t hf au
 g-cc-pvdz iop(5/13=1,5/36=2,99/5=2) pseudo=read geom=check guess=(read
 ,tcheck) scf=(maxcycle=1)\\title\\0,1\C,0,1.3915,0.,1.\C,0,0.69575,1.2
 0507435,1.\C,0,-0.69575,1.20507435,1.\C,0,-1.3915,0.,1.\C,0,-0.69575,-
 1.20507435,1.\C,0,0.69575,-1.20507435,1.\H,0,2.4715,0.,1.\H,0,1.23575,
 2.14038179,1.\H,0,-1.23575,2.14038179,1.\H,0,-2.4715,0.,1.\H,0,-1.2357
 5,-2.14038179,1.\H,0,1.23575,-2.14038179,1.\S,0,0.,0.,4.75\H,0,-1.2962
 6462,0.,4.42824638\H,0,0.36948551,0.,3.4665251\\Version=ES64L-G16RevC.

 Normal termination of Gaussian 16 at Wed Apr  9 02:15:40 2025.
