 Gaussian 16, Revision C.01,

 ----------------------------------------------------------------------
 #t hf aug-cc-pvdz symm=none int=(grid=ultrafine) guess=(read,tcheck) s
 table=(opt,rrhf)
 ----------------------------------------------------------------------
 -----
 title
 -----
 Symbolic Z-matrix:
 Charge =  0 Multiplicity = 1

 SCF Done:  E(RHF) =  -521.944404106     A.U. after   13 cycles
 Normal termination of Gaussian 16 at Wed Apr  9 02:17:12 2025.
 Gaussian 16:  ES64L-G16RevC.01  3-Jul-2019

 ----------------------------------------------------------------------
 #t hf aug-cc-pvdz iop(5/13=1,5/36=2,99/5=2) pseudo=read geom=check gue
 ss=(read,tcheck) scf=(maxcycle=1)
 ----------------------------------------------------------------------
 -----
 title
 -----
 Structure from the checkpoint file:  "BzDC215_155_mol1.chk"
 Charge =  0 Multiplicity = 1

                         Standard orientation:
 ---------------------------------------------------------------------
 Center     Atomic      Atomic             Coordinates (Angstroms)
 Number     Number       Type             X           Y           Z
 ---------------------------------------------------------------------
      1          6           0       -1.153471   -1.396689    0.022302
      2          6           0       -1.175902   -0.715907   -1.191084
      3          6           0       -1.192468    0.675391   -1.208056
      4          6           0       -1.186603    1.385907   -0.011642
      5          6           0       -1.164172    0.705125    1.201743
      6          6           0       -1.147605   -0.686173    1.218716
      7          1           0       -1.140613   -2.476532    0.035475
      8          1           0       -1.180454   -1.267367   -2.119669
      9          1           0       -1.209878    1.203774   -2.149814
     10          1           0       -1.199461    2.465750   -0.024815
     11          1           0       -1.159619    1.256585    2.130329
     12          1           0       -1.130195   -1.214556    2.160474
     13         14           0        2.729418    0.040474   -0.041025
     14          1           0        1.256224    0.023147   -0.023512
     15          1           0        3.226650   -1.165170   -0.726655
     16          1           0        3.203945    1.435183   -0.063806
     17          1           0        3.242876   -0.633375    1.164461
 ---------------------------------------------------------------------

 SCF Done:  E(RHF) =  -523.254617357     A.U. after    2 cycles

 The electronic state is 1-A.
 Alpha  occ. eigenvalues --  -76.20508 -11.51697 -11.42376 -11.42364 -11.40074
 Alpha  occ. eigenvalues --  -11.40046 -11.35932  -5.53897  -2.17194  -2.16621
 Alpha  occ. eigenvalues --   -2.15059  -1.33779  -1.09057  -1.09053  -0.85814
 Alpha  occ. eigenvalues --   -0.85813  -0.78026  -0.72229  -0.65611  -0.58233
 Alpha  occ. eigenvalues --   -0.58229  -0.55855  -0.51644  -0.49273  -0.44681
 Alpha  occ. eigenvalues --   -0.44680  -0.44464  -0.41334  -0.33062  -0.33042
 Alpha virt. eigenvalues --    0.03510   0.04732   0.04823   0.04896   0.06086
 Alpha virt. eigenvalues --    0.06137   0.06775   0.07040   0.07219   0.08526
 Alpha virt. eigenvalues --    0.09908   0.10307   0.11744   0.12128   0.12370

 Mulliken charges:
               1
     1  C   -1.709817
     2  C   -1.563625
     3  C   -1.663073
     4  C   -1.474517
     5  C   -1.772115
     6  C   -1.501132
     7  H    1.570070
     8  H    1.580125
     9  H    1.556553
    10  H    1.573892
    11  H    1.568882
    12  H    1.583972
    13  Si   6.068322
    14  H   -1.304683
    15  H   -1.406168
    16  H   -1.545112
    17  H   -1.561575
 Sum of Mulliken charges =  -0.00000

 Dipole moment (field-independent basis, Debye):
    X=             -0.2952    Y=              0.8554    Z=             -0.7987  Tot=              1.2070

 Test job not archived.
 1\1\GINC-SE273\SP\RHF\Aug-CC-pVDZ\C6H10Si1\OHZDE\09-Apr-2025\0\\#t hf
 aug-cc-pvdz iop(5/13=1,5/36=2,99/5=2) pseudo=read geom=check guess=(re
 ad,tcheck) scf=(maxcycle=1)\\title\\0,1\C,0,1.3915,0.,1.\C,0,0.69575,1
 .20507435,1.\C,0,-0.69575,1.20507435,1.\C,0,-1.3915,0.,1.\C,0,-0.69575
 ,-1.20507435,1.\C,0,0.69575,-1.20507435,1.\H,0,2.4715,0.,1.\H,0,1.2357
 5,2.14038179,1.\H,0,-1.23575,2.14038179,1.\H,0,-2.4715,0.,1.\H,0,-1.23
 575,-2.14038179,1.\H,0,1.23575,-2.14038179,1.\Si,0,0.,0.,4.9\H,0,0.,0.
 ,3.4266\H,0,1.20302606,0.69456742,5.39113333\H,0,-1.38913484,0.,5.3911

 Normal termination of Gaussian 16 at Wed Apr  9 02:17:19 2025.
