 Gaussian 16, Revision C.01,

 ----------------------------------------------------------------------
 #t hf aug-cc-pvdz symm=none int=(grid=ultrafine) guess=(read,tcheck) s
 table=(opt,rrhf)
 ----------------------------------------------------------------------
 -----
 title
 -----
 Symbolic Z-matrix:
 Charge =  0 Multiplicity = 1

 SCF Done:  E(RHF) =  -690.821522277     A.U. after   11 cycles

 1\1\GINC-SE051\Stability\RHF\Aug-CC-pVDZ\C6H7Cl1\OHZDE\09-Apr-2025\0\\
 #t hf aug-cc-pvdz symm=none int=(grid=ultrafine) guess=(read,tcheck) s
 table=(opt,rrhf)\\title\\0,1\C,0,1.3915,0.,1.\C,0,0.69575,1.20507435,1
 .\C,0,-0.69575,1.20507435,1.\C,0,-1.3915,0.,1.\C,0,-0.69575,-1.2050743
 5,1.\C,0,0.69575,-1.20507435,1.\H,0,2.4715,0.,1.\H,0,1.23575,2.1403817
 9,1.\H,0,-1.23575,2.14038179,1.\H,0,-2.4715,0.,1.\H,0,-1.23575,-2.1403
 8179,1.\H,0,1.23575,-2.14038179,1.\Cl,0,0.,0.,4.5\H,0,0.,0.,3.2253\\Ve
 rsion=ES64L-G16RevC.01\HF=-690.8215223\RMSD=7.739e-09\Dipole=0.,0.,-0.

 Normal termination of Gaussian 16 at Wed Apr  9 02:17:56 2025.
 Gaussian 16:  ES64L-G16RevC.01  3-Jul-2019

 ----------------------------------------------------------------------
 #t hf aug-cc-pvdz iop(5/13=1,5/36=2,99/5=2) pseudo=read geom=check gue
 ss=(read,tcheck) scf=(maxcycle=1)
 ----------------------------------------------------------------------
 -----
 title
 -----
 Structure from the checkpoint file:  "BzDC215_93_mol1.chk"
 Charge =  0 Multiplicity = 1

                         Standard orientation:
 ---------------------------------------------------------------------
 Center     Atomic      Atomic             Coordinates (Angstroms)
 Number     Number       Type             X           Y           Z
 ---------------------------------------------------------------------
      1          6           0        0.000000    1.391500   -1.028755
      2          6           0       -1.205074    0.695750   -1.028755
      3          6           0       -1.205074   -0.695750   -1.028755
      4          6           0       -0.000000   -1.391500   -1.028755
      5          6           0        1.205074   -0.695750   -1.028755
      6          6           0        1.205074    0.695750   -1.028755
      7          1           0        0.000000    2.471500   -1.028755
      8          1           0       -2.140382    1.235750   -1.028755
      9          1           0       -2.140382   -1.235750   -1.028755
     10          1           0       -0.000000   -2.471500   -1.028755
     11          1           0        2.140382   -1.235750   -1.028755
     12          1           0        2.140382    1.235750   -1.028755
     13         17           0        0.000000    0.000000    2.471245
     14          1           0        0.000000    0.000000    1.196545
 ---------------------------------------------------------------------

 SCF Done:  E(RHF) =  -692.211621860     A.U. after    2 cycles

 The electronic state is 1-A1.
 Alpha  occ. eigenvalues --  -99.88521 -11.52722 -11.43409 -11.43409 -11.41115
 Alpha  occ. eigenvalues --  -11.41115 -11.37037 -10.45751  -9.65929  -9.64984
 Alpha  occ. eigenvalues --   -9.64984  -1.35132  -1.28461  -1.10288  -1.10288
 Alpha  occ. eigenvalues --   -0.86918  -0.86918  -0.73480  -0.68052  -0.66547
 Alpha  occ. eigenvalues --   -0.59282  -0.59282  -0.56930  -0.51312  -0.50865
 Alpha  occ. eigenvalues --   -0.50865  -0.45688  -0.45688  -0.34339  -0.34339
 Alpha virt. eigenvalues --    0.03000   0.04914   0.04914   0.06046   0.06046
 Alpha virt. eigenvalues --    0.06946   0.07083   0.10655   0.10655   0.11279
 Alpha virt. eigenvalues --    0.12721   0.12721   0.12860   0.14078   0.14489

 Mulliken charges:
               1
     1  C   -1.495458
     2  C   -1.495458
     3  C   -1.495458
     4  C   -1.495458
     5  C   -1.495458
     6  C   -1.495458
     7  H    1.477783
     8  H    1.477783
     9  H    1.477783
    10  H    1.477783
    11  H    1.477783
    12  H    1.477783
    13  Cl  -0.665168
    14  H    0.771218
 Sum of Mulliken charges =  -0.00000

 Dipole moment (field-independent basis, Debye):
    X=             -0.0000    Y=              0.0000    Z=             -1.5112  Tot=              1.5112

 Test job not archived.
 1\1\GINC-SE051\SP\RHF\Aug-CC-pVDZ\C6H7Cl1\OHZDE\09-Apr-2025\0\\#t hf a
 ug-cc-pvdz iop(5/13=1,5/36=2,99/5=2) pseudo=read geom=check guess=(rea
 d,tcheck) scf=(maxcycle=1)\\title\\0,1\C,0,1.3915,0.,1.\C,0,0.69575,1.
 20507435,1.\C,0,-0.69575,1.20507435,1.\C,0,-1.3915,0.,1.\C,0,-0.69575,
 -1.20507435,1.\C,0,0.69575,-1.20507435,1.\H,0,2.4715,0.,1.\H,0,1.23575
 ,2.14038179,1.\H,0,-1.23575,2.14038179,1.\H,0,-2.4715,0.,1.\H,0,-1.235
 75,-2.14038179,1.\H,0,1.23575,-2.14038179,1.\Cl,0,0.,0.,4.5\H,0,0.,0.,
 3.2253\\Version=ES64L-G16RevC.01\State=1-A1\HF=-692.2116219\RMSD=1.708

 Normal termination of Gaussian 16 at Wed Apr  9 02:18:00 2025.
