 Gaussian 16, Revision C.01,

 ----------------------------------------------------------------------
 #t hf aug-cc-pvdz symm=none int=(grid=ultrafine) guess=(read,tcheck) s
 table=(opt,rrhf)
 ----------------------------------------------------------------------
 -----
 title
 -----
 Symbolic Z-matrix:
 Charge =  0 Multiplicity = 1

 SCF Done:  E(RHF) =  -521.947422690     A.U. after   13 cycles
 Normal termination of Gaussian 16 at Wed Apr  9 02:17:40 2025.
 Gaussian 16:  ES64L-G16RevC.01  3-Jul-2019

 ----------------------------------------------------------------------
 #t hf aug-cc-pvdz iop(5/13=1,5/36=2,99/5=2) pseudo=read geom=check gue
 ss=(read,tcheck) scf=(maxcycle=1)
 ----------------------------------------------------------------------
 -----
 title
 -----
 Structure from the checkpoint file:  "BzDC215_160_mol1.chk"
 Charge =  0 Multiplicity = 1

                         Standard orientation:
 ---------------------------------------------------------------------
 Center     Atomic      Atomic             Coordinates (Angstroms)
 Number     Number       Type             X           Y           Z
 ---------------------------------------------------------------------
      1          6           0       -1.260907   -1.395765    0.020259
      2          6           0       -1.280080   -0.713965   -1.192612
      3          6           0       -1.294214    0.677372   -1.208484
      4          6           0       -1.289175    1.386910   -0.011487
      5          6           0       -1.270002    0.705111    1.201383
      6          6           0       -1.255868   -0.686227    1.217256
      7          1           0       -1.249937   -2.475639    0.032578
      8          1           0       -1.283991   -1.264667   -2.121650
      9          1           0       -1.309095    1.206545   -2.149842
     10          1           0       -1.300145    2.466784   -0.023806
     11          1           0       -1.266092    1.255812    2.130422
     12          1           0       -1.240987   -1.215400    2.158614
     13         14           0        2.974525    0.038250   -0.038800
     14          1           0        1.501276    0.023454   -0.023828
     15          1           0        3.470851   -1.167698   -0.724554
     16          1           0        3.451498    1.432154   -0.059637
     17          1           0        3.484749   -0.637459    1.167018
 ---------------------------------------------------------------------

 SCF Done:  E(RHF) =  -523.254189195     A.U. after    2 cycles

 The electronic state is 1-A.
 Alpha  occ. eigenvalues --  -76.20879 -11.51589 -11.42298 -11.42291 -11.39954
 Alpha  occ. eigenvalues --  -11.39913 -11.35865  -5.54265  -2.17497  -2.16828
 Alpha  occ. eigenvalues --   -2.15384  -1.33670  -1.08950  -1.08945  -0.85726
 Alpha  occ. eigenvalues --   -0.85725  -0.78215  -0.72139  -0.65543  -0.58159
 Alpha  occ. eigenvalues --   -0.58156  -0.55793  -0.50615  -0.49479  -0.45538
 Alpha  occ. eigenvalues --   -0.44616  -0.44614  -0.41526  -0.32897  -0.32885
 Alpha virt. eigenvalues --    0.03459   0.04705   0.04826   0.04838   0.06068
 Alpha virt. eigenvalues --    0.06137   0.06725   0.07032   0.07250   0.08280
 Alpha virt. eigenvalues --    0.09930   0.10333   0.11983   0.12071   0.12246

 Mulliken charges:
               1
     1  C   -1.658087
     2  C   -1.533041
     3  C   -1.600890
     4  C   -1.496172
     5  C   -1.675228
     6  C   -1.486039
     7  H    1.564029
     8  H    1.574405
     9  H    1.551673
    10  H    1.565539
    11  H    1.561942
    12  H    1.573313
    13  Si   5.958637
    14  H   -1.497861
    15  H   -1.383902
    16  H   -1.498838
    17  H   -1.519482
 Sum of Mulliken charges =   0.00000

 Dipole moment (field-independent basis, Debye):
    X=             -0.2380    Y=              0.8660    Z=             -0.8073  Tot=              1.2077

 Test job not archived.
 1\1\GINC-SE054\SP\RHF\Aug-CC-pVDZ\C6H10Si1\OHZDE\09-Apr-2025\0\\#t hf
 aug-cc-pvdz iop(5/13=1,5/36=2,99/5=2) pseudo=read geom=check guess=(re
 ad,tcheck) scf=(maxcycle=1)\\title\\0,1\C,0,1.3915,0.,1.\C,0,0.69575,1
 .20507435,1.\C,0,-0.69575,1.20507435,1.\C,0,-1.3915,0.,1.\C,0,-0.69575
 ,-1.20507435,1.\C,0,0.69575,-1.20507435,1.\H,0,2.4715,0.,1.\H,0,1.2357
 5,2.14038179,1.\H,0,-1.23575,2.14038179,1.\H,0,-2.4715,0.,1.\H,0,-1.23
 575,-2.14038179,1.\H,0,1.23575,-2.14038179,1.\Si,0,0.,0.,5.25\H,0,0.,0
 .,3.7766\H,0,1.20302606,0.69456742,5.74113333\H,0,-1.38913484,0.,5.741

 Normal termination of Gaussian 16 at Wed Apr  9 02:17:47 2025.
