 Gaussian 16, Revision C.01,

 ----------------------------------------------------------------------
 #t hf aug-cc-pvdz symm=none int=(grid=ultrafine) guess=(read,tcheck) s
 table=(opt,rrhf)
 ----------------------------------------------------------------------
 -----
 title
 -----
 Symbolic Z-matrix:
 Charge =  0 Multiplicity = 1

 SCF Done:  E(RHF) =  -629.426996180     A.U. after   13 cycles
 Normal termination of Gaussian 16 at Wed Apr  9 02:16:03 2025.
 Gaussian 16:  ES64L-G16RevC.01  3-Jul-2019

 ----------------------------------------------------------------------
 #t hf aug-cc-pvdz iop(5/13=1,5/36=2,99/5=2) pseudo=read geom=check gue
 ss=(read,tcheck) scf=(maxcycle=1)
 ----------------------------------------------------------------------
 -----
 title
 -----
 Structure from the checkpoint file:  "BzDC215_119_mol1.chk"
 Charge =  0 Multiplicity = 1

                         Standard orientation:
 ---------------------------------------------------------------------
 Center     Atomic      Atomic             Coordinates (Angstroms)
 Number     Number       Type             X           Y           Z
 ---------------------------------------------------------------------
      1          6           0       -1.143246    1.406946    0.000000
      2          6           0       -1.143246    0.711196    1.205074
      3          6           0       -1.143246   -0.680304    1.205074
      4          6           0       -1.143246   -1.376054   -0.000000
      5          6           0       -1.143246   -0.680304   -1.205074
      6          6           0       -1.143246    0.711196   -1.205074
      7          1           0       -1.143246    2.486946    0.000000
      8          1           0       -1.143246    1.251196    2.140382
      9          1           0       -1.143246   -1.220304    2.140382
     10          1           0       -1.143246   -2.456054   -0.000000
     11          1           0       -1.143246   -1.220304   -2.140382
     12          1           0       -1.143246    1.251196   -2.140382
     13         16           0        2.756754    0.015446    0.000000
     14          1           0        2.435000   -1.280818   -0.000000
     15          1           0        1.473279    0.384932    0.000000
 ---------------------------------------------------------------------

 SCF Done:  E(RHF) =  -630.789906354     A.U. after    2 cycles

 The electronic state is 1-A'.
 Alpha  occ. eigenvalues --  -75.68799 -13.14541 -13.08445 -13.00632 -11.52303
 Alpha  occ. eigenvalues --  -11.42974 -11.42928 -11.40609 -11.40540 -11.36547
 Alpha  occ. eigenvalues --   -8.02575  -1.34557  -1.10244  -1.09561  -1.09544
 Alpha  occ. eigenvalues --   -0.86371  -0.86359  -0.72908  -0.66145  -0.58801
 Alpha  occ. eigenvalues --   -0.58756  -0.56466  -0.54195  -0.50660  -0.45251
 Alpha  occ. eigenvalues --   -0.45227  -0.42093  -0.33660  -0.33643  -0.24546
 Alpha virt. eigenvalues --    0.02711   0.04926   0.04956   0.05192   0.05675
 Alpha virt. eigenvalues --    0.05913   0.06965   0.07210   0.10637   0.10892
 Alpha virt. eigenvalues --    0.12481   0.12868   0.13053   0.13849   0.14370

 Mulliken charges:
               1
     1  C   -1.386879
     2  C   -1.670639
     3  C   -1.135397
     4  C   -2.184652
     5  C   -1.135397
     6  C   -1.670639
     7  H    1.498632
     8  H    1.496978
     9  H    1.531971
    10  H    1.548045
    11  H    1.531971
    12  H    1.496978
    13  S   -2.390337
    14  H    1.001084
    15  H    1.468281
 Sum of Mulliken charges =  -0.00000

 Dipole moment (field-independent basis, Debye):
    X=              0.5550    Y=              0.5778    Z=             -0.0000  Tot=              0.8012

 Test job not archived.
 1\1\GINC-SE273\SP\RHF\Aug-CC-pVDZ\C6H8S1\OHZDE\09-Apr-2025\0\\#t hf au
 g-cc-pvdz iop(5/13=1,5/36=2,99/5=2) pseudo=read geom=check guess=(read
 ,tcheck) scf=(maxcycle=1)\\title\\0,1\C,0,1.3915,0.,1.\C,0,0.69575,1.2
 0507435,1.\C,0,-0.69575,1.20507435,1.\C,0,-1.3915,0.,1.\C,0,-0.69575,-
 1.20507435,1.\C,0,0.69575,-1.20507435,1.\H,0,2.4715,0.,1.\H,0,1.23575,
 2.14038179,1.\H,0,-1.23575,2.14038179,1.\H,0,-2.4715,0.,1.\H,0,-1.2357
 5,-2.14038179,1.\H,0,1.23575,-2.14038179,1.\S,0,0.,0.,4.9\H,0,-1.29626
 462,0.,4.57824638\H,0,0.36948551,0.,3.6165251\\Version=ES64L-G16RevC.0

 Normal termination of Gaussian 16 at Wed Apr  9 02:16:08 2025.
