 Gaussian 16, Revision C.01,

 ----------------------------------------------------------------------
 #t hf aug-cc-pvdz symm=none int=(grid=ultrafine) guess=(read,tcheck) s
 table=(opt,rrhf)
 ----------------------------------------------------------------------
 -----
 title
 -----
 Symbolic Z-matrix:
 Charge =  0 Multiplicity = 1

 SCF Done:  E(RHF) =  -629.419192391     A.U. after   13 cycles
 Normal termination of Gaussian 16 at Wed Apr  9 02:15:30 2025.
 Gaussian 16:  ES64L-G16RevC.01  3-Jul-2019

 ----------------------------------------------------------------------
 #t hf aug-cc-pvdz iop(5/13=1,5/36=2,99/5=2) pseudo=read geom=check gue
 ss=(read,tcheck) scf=(maxcycle=1)
 ----------------------------------------------------------------------
 -----
 title
 -----
 Structure from the checkpoint file:  "BzDC215_111_mol1.chk"
 Charge =  0 Multiplicity = 1

                         Standard orientation:
 ---------------------------------------------------------------------
 Center     Atomic      Atomic             Coordinates (Angstroms)
 Number     Number       Type             X           Y           Z
 ---------------------------------------------------------------------
      1          6           0       -0.993246    1.406946   -0.000000
      2          6           0       -0.993246    0.711196    1.205074
      3          6           0       -0.993246   -0.680304    1.205074
      4          6           0       -0.993246   -1.376054    0.000000
      5          6           0       -0.993246   -0.680304   -1.205074
      6          6           0       -0.993246    0.711196   -1.205074
      7          1           0       -0.993246    2.486946   -0.000000
      8          1           0       -0.993246    1.251196    2.140382
      9          1           0       -0.993246   -1.220304    2.140382
     10          1           0       -0.993246   -2.456054    0.000000
     11          1           0       -0.993246   -1.220304   -2.140382
     12          1           0       -0.993246    1.251196   -2.140382
     13         16           0        2.406754    0.015446   -0.000000
     14          1           0        2.085000   -1.280818    0.000000
     15          1           0        1.123279    0.384932   -0.000000
 ---------------------------------------------------------------------

 SCF Done:  E(RHF) =  -630.790136395     A.U. after    2 cycles

 The electronic state is 1-A'.
 Alpha  occ. eigenvalues --  -75.67891 -13.13962 -13.08128 -13.00099 -11.52547
 Alpha  occ. eigenvalues --  -11.43182 -11.43108 -11.40841 -11.40771 -11.36772
 Alpha  occ. eigenvalues --   -8.01713  -1.35109  -1.10088  -1.09812  -1.09465
 Alpha  occ. eigenvalues --   -0.86607  -0.86585  -0.73289  -0.66324  -0.59052
 Alpha  occ. eigenvalues --   -0.58956  -0.56650  -0.55698  -0.50226  -0.45435
 Alpha  occ. eigenvalues --   -0.45402  -0.40755  -0.34330  -0.33861  -0.23771
 Alpha virt. eigenvalues --    0.02886   0.04960   0.04988   0.05430   0.05811
 Alpha virt. eigenvalues --    0.05821   0.06996   0.07189   0.10311   0.10645
 Alpha virt. eigenvalues --    0.12595   0.12921   0.13164   0.13824   0.14271

 Mulliken charges:
               1
     1  C   -1.471977
     2  C   -1.629342
     3  C   -1.145028
     4  C   -2.309120
     5  C   -1.145028
     6  C   -1.629342
     7  H    1.499708
     8  H    1.475892
     9  H    1.516385
    10  H    1.537191
    11  H    1.516385
    12  H    1.475892
    13  S   -2.713712
    14  H    0.968597
    15  H    2.053499
 Sum of Mulliken charges =  -0.00000

 Dipole moment (field-independent basis, Debye):
    X=              0.4758    Y=              0.5809    Z=              0.0000  Tot=              0.7509

 Test job not archived.
 1\1\GINC-SE252\SP\RHF\Aug-CC-pVDZ\C6H8S1\OHZDE\09-Apr-2025\0\\#t hf au
 g-cc-pvdz iop(5/13=1,5/36=2,99/5=2) pseudo=read geom=check guess=(read
 ,tcheck) scf=(maxcycle=1)\\title\\0,1\C,0,1.3915,0.,1.\C,0,0.69575,1.2
 0507435,1.\C,0,-0.69575,1.20507435,1.\C,0,-1.3915,0.,1.\C,0,-0.69575,-
 1.20507435,1.\C,0,0.69575,-1.20507435,1.\H,0,2.4715,0.,1.\H,0,1.23575,
 2.14038179,1.\H,0,-1.23575,2.14038179,1.\H,0,-2.4715,0.,1.\H,0,-1.2357
 5,-2.14038179,1.\H,0,1.23575,-2.14038179,1.\S,0,0.,0.,4.4\H,0,-1.29626
 462,0.,4.07824638\H,0,0.36948551,0.,3.1165251\\Version=ES64L-G16RevC.0

 Normal termination of Gaussian 16 at Wed Apr  9 02:15:34 2025.
