 Gaussian 16, Revision C.01,

 ----------------------------------------------------------------------
 #t hf aug-cc-pvdz symm=none int=(grid=ultrafine) guess=(read,tcheck) s
 table=(opt,rrhf)
 ----------------------------------------------------------------------
 -----
 title
 -----
 Symbolic Z-matrix:
 Charge =  0 Multiplicity = 1

 SCF Done:  E(RHF) =  -690.814071630     A.U. after   11 cycles

 1\1\GINC-SE365\Stability\RHF\Aug-CC-pVDZ\C6H7Cl1\OHZDE\09-Apr-2025\0\\
 #t hf aug-cc-pvdz symm=none int=(grid=ultrafine) guess=(read,tcheck) s
 table=(opt,rrhf)\\title\\0,1\C,0,1.3915,0.,1.\C,0,0.69575,1.20507435,1
 .\C,0,-0.69575,1.20507435,1.\C,0,-1.3915,0.,1.\C,0,-0.69575,-1.2050743
 5,1.\C,0,0.69575,-1.20507435,1.\H,0,2.4715,0.,1.\H,0,1.23575,2.1403817
 9,1.\H,0,-1.23575,2.14038179,1.\H,0,-2.4715,0.,1.\H,0,-1.23575,-2.1403
 8179,1.\H,0,1.23575,-2.14038179,1.\Cl,0,0.,0.,4.2\H,0,0.,0.,2.9253\\Ve
 rsion=ES64L-G16RevC.01\HF=-690.8140716\RMSD=6.670e-09\Dipole=0.,0.,-0.

 Normal termination of Gaussian 16 at Wed Apr  9 02:17:21 2025.
 Gaussian 16:  ES64L-G16RevC.01  3-Jul-2019

 ----------------------------------------------------------------------
 #t hf aug-cc-pvdz iop(5/13=1,5/36=2,99/5=2) pseudo=read geom=check gue
 ss=(read,tcheck) scf=(maxcycle=1)
 ----------------------------------------------------------------------
 -----
 title
 -----
 Structure from the checkpoint file:  "BzDC215_90_mol1.chk"
 Charge =  0 Multiplicity = 1

                         Standard orientation:
 ---------------------------------------------------------------------
 Center     Atomic      Atomic             Coordinates (Angstroms)
 Number     Number       Type             X           Y           Z
 ---------------------------------------------------------------------
      1          6           0        0.000000    1.391500   -0.938755
      2          6           0       -1.205074    0.695750   -0.938755
      3          6           0       -1.205074   -0.695750   -0.938755
      4          6           0       -0.000000   -1.391500   -0.938755
      5          6           0        1.205074   -0.695750   -0.938755
      6          6           0        1.205074    0.695750   -0.938755
      7          1           0        0.000000    2.471500   -0.938755
      8          1           0       -2.140382    1.235750   -0.938755
      9          1           0       -2.140382   -1.235750   -0.938755
     10          1           0       -0.000000   -2.471500   -0.938755
     11          1           0        2.140382   -1.235750   -0.938755
     12          1           0        2.140382    1.235750   -0.938755
     13         17           0        0.000000    0.000000    2.261245
     14          1           0        0.000000    0.000000    0.986545
 ---------------------------------------------------------------------

 SCF Done:  E(RHF) =  -692.208612677     A.U. after    2 cycles

 The electronic state is 1-A1.
 Alpha  occ. eigenvalues --  -99.87615 -11.52824 -11.43510 -11.43510 -11.41239
 Alpha  occ. eigenvalues --  -11.41239 -11.37284 -10.44908  -9.65088  -9.64169
 Alpha  occ. eigenvalues --   -9.64169  -1.35780  -1.27813  -1.10524  -1.10524
 Alpha  occ. eigenvalues --   -0.87118  -0.87118  -0.73869  -0.68332  -0.66659
 Alpha  occ. eigenvalues --   -0.59452  -0.59452  -0.57043  -0.51041  -0.50487
 Alpha  occ. eigenvalues --   -0.50487  -0.45810  -0.45810  -0.34493  -0.34493
 Alpha virt. eigenvalues --    0.03131   0.04962   0.04962   0.06015   0.06015
 Alpha virt. eigenvalues --    0.06903   0.07398   0.10612   0.10612   0.11723
 Alpha virt. eigenvalues --    0.12700   0.12700   0.12884   0.13983   0.14536

 Mulliken charges:
               1
     1  C   -1.508919
     2  C   -1.508919
     3  C   -1.508919
     4  C   -1.508919
     5  C   -1.508919
     6  C   -1.508919
     7  H    1.456831
     8  H    1.456831
     9  H    1.456831
    10  H    1.456831
    11  H    1.456831
    12  H    1.456831
    13  Cl  -0.758454
    14  H    1.070982
 Sum of Mulliken charges =  -0.00000

 Dipole moment (field-independent basis, Debye):
    X=              0.0000    Y=              0.0000    Z=             -1.6197  Tot=              1.6197

 Test job not archived.
 1\1\GINC-SE365\SP\RHF\Aug-CC-pVDZ\C6H7Cl1\OHZDE\09-Apr-2025\0\\#t hf a
 ug-cc-pvdz iop(5/13=1,5/36=2,99/5=2) pseudo=read geom=check guess=(rea
 d,tcheck) scf=(maxcycle=1)\\title\\0,1\C,0,1.3915,0.,1.\C,0,0.69575,1.
 20507435,1.\C,0,-0.69575,1.20507435,1.\C,0,-1.3915,0.,1.\C,0,-0.69575,
 -1.20507435,1.\C,0,0.69575,-1.20507435,1.\H,0,2.4715,0.,1.\H,0,1.23575
 ,2.14038179,1.\H,0,-1.23575,2.14038179,1.\H,0,-2.4715,0.,1.\H,0,-1.235
 75,-2.14038179,1.\H,0,1.23575,-2.14038179,1.\Cl,0,0.,0.,4.2\H,0,0.,0.,
 2.9253\\Version=ES64L-G16RevC.01\State=1-A1\HF=-692.2086127\RMSD=1.715

 Normal termination of Gaussian 16 at Wed Apr  9 02:17:25 2025.
