 Gaussian 16, Revision C.01,

 ----------------------------------------------------------------------
 #t hf aug-cc-pvdz symm=none int=(grid=ultrafine) guess=(read,tcheck) s
 table=(opt,rrhf)
 ----------------------------------------------------------------------
 -----
 title
 -----
 Symbolic Z-matrix:
 Charge =  0 Multiplicity = 1

 SCF Done:  E(RHF) =  -521.948606608     A.U. after   11 cycles
 Normal termination of Gaussian 16 at Wed Apr  9 02:17:32 2025.
 Gaussian 16:  ES64L-G16RevC.01  3-Jul-2019

 ----------------------------------------------------------------------
 #t hf aug-cc-pvdz iop(5/13=1,5/36=2,99/5=2) pseudo=read geom=check gue
 ss=(read,tcheck) scf=(maxcycle=1)
 ----------------------------------------------------------------------
 -----
 title
 -----
 Structure from the checkpoint file:  "BzDC215_168_mol1.chk"
 Charge =  0 Multiplicity = 1

                         Standard orientation:
 ---------------------------------------------------------------------
 Center     Atomic      Atomic             Coordinates (Angstroms)
 Number     Number       Type             X           Y           Z
 ---------------------------------------------------------------------
      1          6           0       -1.791729   -1.393663    0.015569
      2          6           0       -1.803043   -0.709540   -1.196092
      3          6           0       -1.811351    0.681871   -1.209417
      4          6           0       -1.808345    1.389160   -0.011083
      5          6           0       -1.797031    0.705037    1.200577
      6          6           0       -1.788723   -0.686374    1.213903
      7          1           0       -1.785281   -2.473594    0.025911
      8          1           0       -1.805377   -1.258496   -2.126168
      9          1           0       -1.820133    1.212847   -2.149836
     10          1           0       -1.814793    2.469091   -0.021425
     11          1           0       -1.794697    1.253993    2.130654
     12          1           0       -1.779941   -1.217349    2.154322
     13         14           0        4.199750    0.033228   -0.033750
     14          1           0        2.726402    0.024515   -0.024911
     15          1           0        4.693922   -1.173494   -0.719698
     16          1           0        4.682572    1.425178   -0.049999
     17          1           0        4.702161   -0.646828    1.172905
 ---------------------------------------------------------------------

 SCF Done:  E(RHF) =  -523.253149019     A.U. after    2 cycles

 The electronic state is 1-A.
 Alpha  occ. eigenvalues --  -76.21575 -11.51464 -11.42159 -11.42155 -11.39675
 Alpha  occ. eigenvalues --  -11.39663 -11.35749  -5.54969  -2.18118  -2.17239
 Alpha  occ. eigenvalues --   -2.16012  -1.33615  -1.08790  -1.08789  -0.85615
 Alpha  occ. eigenvalues --   -0.85615  -0.78783  -0.72035  -0.65451  -0.58060
 Alpha  occ. eigenvalues --   -0.58059  -0.55711  -0.49992  -0.49830  -0.46883
 Alpha  occ. eigenvalues --   -0.44527  -0.44526  -0.41961  -0.32691  -0.32689
 Alpha virt. eigenvalues --    0.03327   0.04535   0.04838   0.04877   0.05871
 Alpha virt. eigenvalues --    0.06025   0.06572   0.06878   0.07275   0.07340
 Alpha virt. eigenvalues --    0.09831   0.10107   0.11455   0.11667   0.11816

 Mulliken charges:
               1
     1  C   -1.508444
     2  C   -1.503592
     3  C   -1.509029
     4  C   -1.514240
     5  C   -1.504041
     6  C   -1.503343
     7  H    1.511862
     8  H    1.509208
     9  H    1.512979
    10  H    1.510523
    11  H    1.510270
    12  H    1.509494
    13  Si   5.750281
    14  H   -1.582876
    15  H   -1.336904
    16  H   -1.408734
    17  H   -1.443415
 Sum of Mulliken charges =   0.00000

 Dipole moment (field-independent basis, Debye):
    X=             -0.1010    Y=              0.8942    Z=             -0.8294  Tot=              1.2238

 Test job not archived.
 1\1\GINC-SE131\SP\RHF\Aug-CC-pVDZ\C6H10Si1\OHZDE\09-Apr-2025\0\\#t hf
 aug-cc-pvdz iop(5/13=1,5/36=2,99/5=2) pseudo=read geom=check guess=(re
 ad,tcheck) scf=(maxcycle=1)\\title\\0,1\C,0,1.3915,0.,1.\C,0,0.69575,1
 .20507435,1.\C,0,-0.69575,1.20507435,1.\C,0,-1.3915,0.,1.\C,0,-0.69575
 ,-1.20507435,1.\C,0,0.69575,-1.20507435,1.\H,0,2.4715,0.,1.\H,0,1.2357
 5,2.14038179,1.\H,0,-1.23575,2.14038179,1.\H,0,-2.4715,0.,1.\H,0,-1.23
 575,-2.14038179,1.\H,0,1.23575,-2.14038179,1.\Si,0,0.,0.,7.\H,0,0.,0.,
 5.5266\H,0,1.20302606,0.69456742,7.49113333\H,0,-1.38913484,0.,7.49113

 Normal termination of Gaussian 16 at Wed Apr  9 02:17:38 2025.
