 Gaussian 16, Revision C.01,

 ----------------------------------------------------------------------
 #t hf aug-cc-pvdz symm=none int=(grid=ultrafine) guess=(read,tcheck) s
 table=(opt,rrhf)
 ----------------------------------------------------------------------
 -----
 title
 -----
 Symbolic Z-matrix:
 Charge =  0 Multiplicity = 1

 SCF Done:  E(RHF) =  -690.817403102     A.U. after   11 cycles

 1\1\GINC-SE459\Stability\RHF\Aug-CC-pVDZ\C6H7Cl1\OHZDE\09-Apr-2025\0\\
 #t hf aug-cc-pvdz symm=none int=(grid=ultrafine) guess=(read,tcheck) s
 table=(opt,rrhf)\\title\\0,1\C,0,1.3915,0.,1.\C,0,0.69575,1.20507435,1
 .\C,0,-0.69575,1.20507435,1.\C,0,-1.3915,0.,1.\C,0,-0.69575,-1.2050743
 5,1.\C,0,0.69575,-1.20507435,1.\H,0,2.4715,0.,1.\H,0,1.23575,2.1403817
 9,1.\H,0,-1.23575,2.14038179,1.\H,0,-2.4715,0.,1.\H,0,-1.23575,-2.1403
 8179,1.\H,0,1.23575,-2.14038179,1.\Cl,0,0.,0.,4.3\H,0,0.,0.,3.0253\\Ve
 rsion=ES64L-G16RevC.01\HF=-690.8174031\RMSD=6.894e-09\Dipole=0.,0.,-0.

 Normal termination of Gaussian 16 at Wed Apr  9 02:17:25 2025.
 Gaussian 16:  ES64L-G16RevC.01  3-Jul-2019

 ----------------------------------------------------------------------
 #t hf aug-cc-pvdz iop(5/13=1,5/36=2,99/5=2) pseudo=read geom=check gue
 ss=(read,tcheck) scf=(maxcycle=1)
 ----------------------------------------------------------------------
 -----
 title
 -----
 Structure from the checkpoint file:  "BzDC215_91_mol1.chk"
 Charge =  0 Multiplicity = 1

                         Standard orientation:
 ---------------------------------------------------------------------
 Center     Atomic      Atomic             Coordinates (Angstroms)
 Number     Number       Type             X           Y           Z
 ---------------------------------------------------------------------
      1          6           0        0.000000    1.391500   -0.968755
      2          6           0       -1.205074    0.695750   -0.968755
      3          6           0       -1.205074   -0.695750   -0.968755
      4          6           0       -0.000000   -1.391500   -0.968755
      5          6           0        1.205074   -0.695750   -0.968755
      6          6           0        1.205074    0.695750   -0.968755
      7          1           0        0.000000    2.471500   -0.968755
      8          1           0       -2.140382    1.235750   -0.968755
      9          1           0       -2.140382   -1.235750   -0.968755
     10          1           0       -0.000000   -2.471500   -0.968755
     11          1           0        2.140382   -1.235750   -0.968755
     12          1           0        2.140382    1.235750   -0.968755
     13         17           0        0.000000    0.000000    2.331245
     14          1           0        0.000000    0.000000    1.056545
 ---------------------------------------------------------------------

 SCF Done:  E(RHF) =  -692.210325221     A.U. after    2 cycles

 The electronic state is 1-A1.
 Alpha  occ. eigenvalues --  -99.87958 -11.52794 -11.43480 -11.43480 -11.41204
 Alpha  occ. eigenvalues --  -11.41204 -11.37179 -10.45225  -9.65405  -9.64477
 Alpha  occ. eigenvalues --   -9.64477  -1.35505  -1.28061  -1.10440  -1.10440
 Alpha  occ. eigenvalues --   -0.87046  -0.87046  -0.73712  -0.68186  -0.66621
 Alpha  occ. eigenvalues --   -0.59390  -0.59390  -0.57005  -0.51201  -0.50610
 Alpha  occ. eigenvalues --   -0.50610  -0.45768  -0.45768  -0.34452  -0.34452
 Alpha virt. eigenvalues --    0.03084   0.04946   0.04946   0.06026   0.06026
 Alpha virt. eigenvalues --    0.06918   0.07293   0.10628   0.10628   0.11561
 Alpha virt. eigenvalues --    0.12711   0.12711   0.12903   0.14016   0.14490

 Mulliken charges:
               1
     1  C   -1.502923
     2  C   -1.502923
     3  C   -1.502923
     4  C   -1.502923
     5  C   -1.502923
     6  C   -1.502923
     7  H    1.464716
     8  H    1.464716
     9  H    1.464716
    10  H    1.464716
    11  H    1.464716
    12  H    1.464716
    13  Cl  -0.728202
    14  H    0.957444
 Sum of Mulliken charges =  -0.00000

 Dipole moment (field-independent basis, Debye):
    X=             -0.0000    Y=              0.0000    Z=             -1.5843  Tot=              1.5843

 Test job not archived.
 1\1\GINC-SE459\SP\RHF\Aug-CC-pVDZ\C6H7Cl1\OHZDE\09-Apr-2025\0\\#t hf a
 ug-cc-pvdz iop(5/13=1,5/36=2,99/5=2) pseudo=read geom=check guess=(rea
 d,tcheck) scf=(maxcycle=1)\\title\\0,1\C,0,1.3915,0.,1.\C,0,0.69575,1.
 20507435,1.\C,0,-0.69575,1.20507435,1.\C,0,-1.3915,0.,1.\C,0,-0.69575,
 -1.20507435,1.\C,0,0.69575,-1.20507435,1.\H,0,2.4715,0.,1.\H,0,1.23575
 ,2.14038179,1.\H,0,-1.23575,2.14038179,1.\H,0,-2.4715,0.,1.\H,0,-1.235
 75,-2.14038179,1.\H,0,1.23575,-2.14038179,1.\Cl,0,0.,0.,4.3\H,0,0.,0.,
 3.0253\\Version=ES64L-G16RevC.01\State=1-A1\HF=-692.2103252\RMSD=1.713

 Normal termination of Gaussian 16 at Wed Apr  9 02:17:28 2025.
