 Gaussian 16, Revision C.01,

 ----------------------------------------------------------------------
 #t hf aug-cc-pvdz symm=none int=(grid=ultrafine) guess=(read,tcheck) s
 table=(opt,rrhf)
 ----------------------------------------------------------------------
 -----
 title
 -----
 Symbolic Z-matrix:
 Charge =  0 Multiplicity = 1

 SCF Done:  E(RHF) =  -330.762382282     A.U. after   11 cycles
 Normal termination of Gaussian 16 at Wed Apr  9 02:17:21 2025.
 Gaussian 16:  ES64L-G16RevC.01  3-Jul-2019

 ----------------------------------------------------------------------
 #t hf aug-cc-pvdz iop(5/13=1,5/36=2,99/5=2) pseudo=read geom=check gue
 ss=(read,tcheck) scf=(maxcycle=1)
 ----------------------------------------------------------------------
 -----
 title
 -----
 Structure from the checkpoint file:  "BzDC215_2_mol1.chk"
 Charge =  0 Multiplicity = 1

                         Standard orientation:
 ---------------------------------------------------------------------
 Center     Atomic      Atomic             Coordinates (Angstroms)
 Number     Number       Type             X           Y           Z
 ---------------------------------------------------------------------
      1          6           0        0.000000    1.391500   -0.540059
      2          6           0       -1.205074    0.695750   -0.540059
      3          6           0       -1.205074   -0.695750   -0.540059
      4          6           0       -0.000000   -1.391500   -0.540059
      5          6           0        1.205074   -0.695750   -0.540059
      6          6           0        1.205074    0.695750   -0.540059
      7          1           0        0.000000    2.471500   -0.540059
      8          1           0       -2.140382    1.235750   -0.540059
      9          1           0       -2.140382   -1.235750   -0.540059
     10          1           0       -0.000000   -2.471500   -0.540059
     11          1           0        2.140382   -1.235750   -0.540059
     12          1           0        2.140382    1.235750   -0.540059
     13          9           0        0.000000    0.000000    2.359941
     14          1           0        0.000000    0.000000    1.442984
 ---------------------------------------------------------------------

 SCF Done:  E(RHF) =  -332.239542428     A.U. after    2 cycles

 The electronic state is 1-A1.
 Alpha  occ. eigenvalues --  -29.26517 -11.53057 -11.43739 -11.43739 -11.41463
 Alpha  occ. eigenvalues --  -11.41463 -11.37486  -1.35790  -1.10733  -1.10733
 Alpha  occ. eigenvalues --   -0.87222  -0.87222  -0.83097  -0.73760  -0.66815
 Alpha  occ. eigenvalues --   -0.59698  -0.59698  -0.57259  -0.51399  -0.45990
 Alpha  occ. eigenvalues --   -0.45990  -0.36527  -0.35833  -0.35833  -0.25716
 Alpha  occ. eigenvalues --   -0.25716
 Alpha virt. eigenvalues --    0.03416   0.04678   0.04678   0.05866   0.05866
 Alpha virt. eigenvalues --    0.07230   0.10448   0.10448   0.11417   0.12826
 Alpha virt. eigenvalues --    0.12826   0.13947   0.14295   0.14801   0.14801

 Mulliken charges:
               1
     1  C   -1.535792
     2  C   -1.535792
     3  C   -1.535792
     4  C   -1.535792
     5  C   -1.535792
     6  C   -1.535792
     7  H    1.452740
     8  H    1.452740
     9  H    1.452740
    10  H    1.452740
    11  H    1.452740
    12  H    1.452740
    13  F    1.202485
    14  H   -0.704175
 Sum of Mulliken charges =  -0.00000

 Dipole moment (field-independent basis, Debye):
    X=             -0.0000    Y=              0.0000    Z=             -0.4636  Tot=              0.4636

 Test job not archived.
 1\1\GINC-SE345\SP\RHF\Aug-CC-pVDZ\C6H7F1\OHZDE\09-Apr-2025\0\\#t hf au
 g-cc-pvdz iop(5/13=1,5/36=2,99/5=2) pseudo=read geom=check guess=(read
 ,tcheck) scf=(maxcycle=1)\\title\\0,1\C,0,1.3915,0.,1.\C,0,0.69575,1.2
 0507435,1.\C,0,-0.69575,1.20507435,1.\C,0,-1.3915,0.,1.\C,0,-0.69575,-
 1.20507435,1.\C,0,0.69575,-1.20507435,1.\H,0,2.4715,0.,1.\H,0,1.23575,
 2.14038179,1.\H,0,-1.23575,2.14038179,1.\H,0,-2.4715,0.,1.\H,0,-1.2357
 5,-2.14038179,1.\H,0,1.23575,-2.14038179,1.\F,0,0.,0.,3.9\H,0,0.,0.,2.
 983042\\Version=ES64L-G16RevC.01\State=1-A1\HF=-332.2395424\RMSD=1.735

 Normal termination of Gaussian 16 at Wed Apr  9 02:17:25 2025.
