 Gaussian 16, Revision C.01,

 ----------------------------------------------------------------------
 #t hf aug-cc-pvdz symm=none int=(grid=ultrafine) guess=(read,tcheck) s
 table=(opt,rrhf)
 ----------------------------------------------------------------------
 -----
 title
 -----
 Symbolic Z-matrix:
 Charge =  0 Multiplicity = 1

 SCF Done:  E(RHF) =  -521.940545315     A.U. after   13 cycles
 Normal termination of Gaussian 16 at Wed Apr  9 02:17:12 2025.
 Gaussian 16:  ES64L-G16RevC.01  3-Jul-2019

 ----------------------------------------------------------------------
 #t hf aug-cc-pvdz iop(5/13=1,5/36=2,99/5=2) pseudo=read geom=check gue
 ss=(read,tcheck) scf=(maxcycle=1)
 ----------------------------------------------------------------------
 -----
 title
 -----
 Structure from the checkpoint file:  "BzDC215_153_mol1.chk"
 Charge =  0 Multiplicity = 1

                         Standard orientation:
 ---------------------------------------------------------------------
 Center     Atomic      Atomic             Coordinates (Angstroms)
 Number     Number       Type             X           Y           Z
 ---------------------------------------------------------------------
      1          6           0       -1.091623   -1.397398    0.023868
      2          6           0       -1.116514   -0.717399   -1.189909
      3          6           0       -1.134922    0.673865   -1.207721
      4          6           0       -1.128440    1.385130   -0.011756
      5          6           0       -1.103549    0.705131    1.202020
      6          6           0       -1.085140   -0.686133    1.219833
      7          1           0       -1.077335   -2.477215    0.037692
      8          1           0       -1.121545   -1.269442   -2.118146
      9          1           0       -1.154241    1.201640   -2.149783
     10          1           0       -1.142727    2.464947   -0.025581
     11          1           0       -1.098518    1.257173    2.130258
     12          1           0       -1.065822   -1.213908    2.161894
     13         14           0        2.589331    0.042189   -0.042734
     14          1           0        1.116185    0.022946   -0.023305
     15          1           0        3.087254   -1.163229   -0.728261
     16          1           0        3.062003    1.437503   -0.066993
     17          1           0        3.105229   -0.630239    1.162503
 ---------------------------------------------------------------------

 SCF Done:  E(RHF) =  -523.253699535     A.U. after    2 cycles

 The electronic state is 1-A.
 Alpha  occ. eigenvalues --  -76.20197 -11.51787 -11.42441 -11.42424 -11.40150
 Alpha  occ. eigenvalues --  -11.40135 -11.36006  -5.53596  -2.16947  -2.16419
 Alpha  occ. eigenvalues --   -2.14787  -1.33937  -1.09154  -1.09150  -0.85898
 Alpha  occ. eigenvalues --   -0.85897  -0.77902  -0.72320  -0.65674  -0.58307
 Alpha  occ. eigenvalues --   -0.58302  -0.55913  -0.52594  -0.49122  -0.44744
 Alpha  occ. eigenvalues --   -0.44742  -0.43486  -0.41187  -0.33211  -0.33181
 Alpha virt. eigenvalues --    0.03543   0.04738   0.04818   0.04955   0.06090
 Alpha virt. eigenvalues --    0.06132   0.06803   0.07040   0.07196   0.08672
 Alpha virt. eigenvalues --    0.09885   0.10270   0.11504   0.12221   0.12443

 Mulliken charges:
               1
     1  C   -1.744645
     2  C   -1.587201
     3  C   -1.719105
     4  C   -1.456821
     5  C   -1.845648
     6  C   -1.514930
     7  H    1.568400
     8  H    1.578436
     9  H    1.556387
    10  H    1.576389
    11  H    1.565391
    12  H    1.586065
    13  Si   6.124410
    14  H   -1.100991
    15  H   -1.423353
    16  H   -1.572065
    17  H   -1.590716
 Sum of Mulliken charges =   0.00000

 Dipole moment (field-independent basis, Debye):
    X=             -0.3432    Y=              0.8481    Z=             -0.7919  Tot=              1.2100

 Test job not archived.
 1\1\GINC-SE229\SP\RHF\Aug-CC-pVDZ\C6H10Si1\OHZDE\09-Apr-2025\0\\#t hf
 aug-cc-pvdz iop(5/13=1,5/36=2,99/5=2) pseudo=read geom=check guess=(re
 ad,tcheck) scf=(maxcycle=1)\\title\\0,1\C,0,1.3915,0.,1.\C,0,0.69575,1
 .20507435,1.\C,0,-0.69575,1.20507435,1.\C,0,-1.3915,0.,1.\C,0,-0.69575
 ,-1.20507435,1.\C,0,0.69575,-1.20507435,1.\H,0,2.4715,0.,1.\H,0,1.2357
 5,2.14038179,1.\H,0,-1.23575,2.14038179,1.\H,0,-2.4715,0.,1.\H,0,-1.23
 575,-2.14038179,1.\H,0,1.23575,-2.14038179,1.\Si,0,0.,0.,4.7\H,0,0.,0.
 ,3.2266\H,0,1.20302606,0.69456742,5.19113333\H,0,-1.38913484,0.,5.1911

 Normal termination of Gaussian 16 at Wed Apr  9 02:17:19 2025.
