 Gaussian 16, Revision C.01,

 ----------------------------------------------------------------------
 #t hf aug-cc-pvdz symm=none int=(grid=ultrafine) guess=(read,tcheck) s
 table=(opt,rrhf)
 ----------------------------------------------------------------------
 -----
 title
 -----
 Symbolic Z-matrix:
 Charge =  0 Multiplicity = 1

 SCF Done:  E(RHF) =  -573.177118562     A.U. after   13 cycles
 Normal termination of Gaussian 16 at Wed Apr  9 02:16:34 2025.
 Gaussian 16:  ES64L-G16RevC.01  3-Jul-2019

 ----------------------------------------------------------------------
 #t hf aug-cc-pvdz iop(5/13=1,5/36=2,99/5=2) pseudo=read geom=check gue
 ss=(read,tcheck) scf=(maxcycle=1)
 ----------------------------------------------------------------------
 -----
 title
 -----
 Structure from the checkpoint file:  "BzDC215_137_mol1.chk"
 Charge =  0 Multiplicity = 1

                         Standard orientation:
 ---------------------------------------------------------------------
 Center     Atomic      Atomic             Coordinates (Angstroms)
 Number     Number       Type             X           Y           Z
 ---------------------------------------------------------------------
      1          6           0        1.203833    0.019045   -1.374398
      2          6           0        1.183661   -1.196636   -0.697652
      3          6           0        1.127291   -1.218182    0.692539
      4          6           0        1.091095   -0.024047    1.405983
      5          6           0        1.111267    1.191634    0.729237
      6          6           0        1.167636    1.213180   -0.660954
      7          1           0        1.247584    0.035767   -2.453382
      8          1           0        1.211754   -2.123453   -1.251386
      9          1           0        1.111635   -2.161722    1.217789
     10          1           0        1.047344   -0.040769    2.484967
     11          1           0        1.083173    2.118451    1.282971
     12          1           0        1.183293    2.156719   -1.186204
     13         15           0       -2.749249   -0.026001   -0.142575
     14          1           0       -1.339388   -0.017499   -0.085276
     15          1           0       -3.244845   -0.640556    1.026942
     16          1           0       -2.370524    1.153118    0.533671
 ---------------------------------------------------------------------

 SCF Done:  E(RHF) =  -574.513617802     A.U. after    2 cycles

 The electronic state is 1-A.
 Alpha  occ. eigenvalues -- -105.16939 -11.51960 -11.42646 -11.42603 -11.40304
 Alpha  occ. eigenvalues --  -11.40291 -11.36197  -2.73456  -1.45584  -1.41619
 Alpha  occ. eigenvalues --   -1.38584  -1.34000  -1.09364  -1.09353  -0.86082
 Alpha  occ. eigenvalues --   -0.86077  -0.74372  -0.72326  -0.65844  -0.58492
 Alpha  occ. eigenvalues --   -0.58482  -0.56121  -0.50550  -0.44933  -0.44926
 Alpha  occ. eigenvalues --   -0.33475  -0.33396  -0.25504  -0.20078  -0.03630
 Alpha virt. eigenvalues --    0.03601   0.04778   0.04787   0.06168   0.06267
 Alpha virt. eigenvalues --    0.06626   0.07126   0.08779   0.09584   0.10285
 Alpha virt. eigenvalues --    0.10858   0.11511   0.12874   0.13524   0.14029

 Mulliken charges:
               1
     1  C   -1.874818
     2  C   -1.281169
     3  C   -1.927917
     4  C   -0.530476
     5  C   -2.895101
     6  C   -0.856735
     7  H    1.515812
     8  H    1.516712
     9  H    1.507072
    10  H    1.601889
    11  H    1.477293
    12  H    1.551754
    13  P    1.978574
    14  H   -0.662424
    15  H   -0.396875
    16  H   -0.723592
 Sum of Mulliken charges =  -0.00000

 Dipole moment (field-independent basis, Debye):
    X=             -3.0209    Y=             -1.7049    Z=             -3.5221  Tot=              4.9435

 Test job not archived.
 1\1\GINC-SE341\SP\RHF\Aug-CC-pVDZ\C6H9P1\OHZDE\09-Apr-2025\0\\#t hf au
 g-cc-pvdz iop(5/13=1,5/36=2,99/5=2) pseudo=read geom=check guess=(read
 ,tcheck) scf=(maxcycle=1)\\title\\0,1\C,0,1.3915,0.,1.\C,0,0.69575,1.2
 0507435,1.\C,0,-0.69575,1.20507435,1.\C,0,-1.3915,0.,1.\C,0,-0.69575,-
 1.20507435,1.\C,0,0.69575,-1.20507435,1.\H,0,2.4715,0.,1.\H,0,1.23575,
 2.14038179,1.\H,0,-1.23575,2.14038179,1.\H,0,-2.4715,0.,1.\H,0,-1.2357
 5,-2.14038179,1.\H,0,1.23575,-2.14038179,1.\P,0,0.,0.,4.9\H,0,0.,0.,3.
 48895\H,0,-1.19800816,0.59336739,5.35139084\H,0,-0.64201064,-1.1867347

 Normal termination of Gaussian 16 at Wed Apr  9 02:16:40 2025.
