 Gaussian 16, Revision C.01,

 ----------------------------------------------------------------------
 #t hf aug-cc-pvdz symm=none int=(grid=ultrafine) guess=(read,tcheck) s
 table=(opt,rrhf)
 ----------------------------------------------------------------------
 -----
 title
 -----
 Symbolic Z-matrix:
 Charge =  0 Multiplicity = 1

 SCF Done:  E(RHF) =  -573.168731500     A.U. after   14 cycles
 Normal termination of Gaussian 16 at Wed Apr  9 02:16:38 2025.
 Gaussian 16:  ES64L-G16RevC.01  3-Jul-2019

 ----------------------------------------------------------------------
 #t hf aug-cc-pvdz iop(5/13=1,5/36=2,99/5=2) pseudo=read geom=check gue
 ss=(read,tcheck) scf=(maxcycle=1)
 ----------------------------------------------------------------------
 -----
 title
 -----
 Structure from the checkpoint file:  "BzDC215_133_mol1.chk"
 Charge =  0 Multiplicity = 1

                         Standard orientation:
 ---------------------------------------------------------------------
 Center     Atomic      Atomic             Coordinates (Angstroms)
 Number     Number       Type             X           Y           Z
 ---------------------------------------------------------------------
      1          6           0        1.097823    0.019217   -1.368230
      2          6           0        1.071595   -1.196570   -0.691884
      3          6           0        1.001176   -1.218346    0.697663
      4          6           0        0.956985   -0.024334    1.410863
      5          6           0        0.983213    1.191454    0.734516
      6          6           0        1.053631    1.213230   -0.655030
      7          1           0        1.152478    0.036118   -2.446714
      8          1           0        1.105894   -2.123292   -1.245428
      9          1           0        0.980820   -2.161968    1.222603
     10          1           0        0.902330   -0.041235    2.489346
     11          1           0        0.948914    2.118176    1.288060
     12          1           0        1.073987    2.156852   -1.179970
     13         15           0       -2.468014   -0.025900   -0.156189
     14          1           0       -1.058811   -0.016490   -0.084626
     15          1           0       -2.975018   -0.640940    1.008172
     16          1           0       -2.096919    1.153370    0.524011
 ---------------------------------------------------------------------

 SCF Done:  E(RHF) =  -574.512984119     A.U. after    2 cycles

 The electronic state is 1-A.
 Alpha  occ. eigenvalues -- -105.16339 -11.52140 -11.42797 -11.42746 -11.40487
 Alpha  occ. eigenvalues --  -11.40478 -11.36398  -2.72820  -1.45260  -1.41180
 Alpha  occ. eigenvalues --   -1.38297  -1.34385  -1.09620  -1.09601  -0.86293
 Alpha  occ. eigenvalues --   -0.86284  -0.74347  -0.72351  -0.65991  -0.58669
 Alpha  occ. eigenvalues --   -0.58653  -0.56260  -0.51316  -0.45081  -0.45072
 Alpha  occ. eigenvalues --   -0.34013  -0.33798  -0.24870  -0.19349  -0.03151
 Alpha virt. eigenvalues --    0.03681   0.04775   0.04785   0.06163   0.06262
 Alpha virt. eigenvalues --    0.06860   0.07071   0.08672   0.09583   0.10213
 Alpha virt. eigenvalues --    0.10638   0.11649   0.12928   0.13661   0.13941

 Mulliken charges:
               1
     1  C   -1.857884
     2  C   -1.298317
     3  C   -1.913775
     4  C   -0.602514
     5  C   -2.880961
     6  C   -1.023224
     7  H    1.522042
     8  H    1.522040
     9  H    1.504923
    10  H    1.595832
    11  H    1.465671
    12  H    1.542351
    13  P    1.839801
    14  H   -0.245429
    15  H   -0.371970
    16  H   -0.798586
 Sum of Mulliken charges =  -0.00000

 Dipole moment (field-independent basis, Debye):
    X=             -3.0332    Y=             -1.7281    Z=             -3.3789  Tot=              4.8583

 Test job not archived.
 1\1\GINC-SE051\SP\RHF\Aug-CC-pVDZ\C6H9P1\OHZDE\09-Apr-2025\0\\#t hf au
 g-cc-pvdz iop(5/13=1,5/36=2,99/5=2) pseudo=read geom=check guess=(read
 ,tcheck) scf=(maxcycle=1)\\title\\0,1\C,0,1.3915,0.,1.\C,0,0.69575,1.2
 0507435,1.\C,0,-0.69575,1.20507435,1.\C,0,-1.3915,0.,1.\C,0,-0.69575,-
 1.20507435,1.\C,0,0.69575,-1.20507435,1.\H,0,2.4715,0.,1.\H,0,1.23575,
 2.14038179,1.\H,0,-1.23575,2.14038179,1.\H,0,-2.4715,0.,1.\H,0,-1.2357
 5,-2.14038179,1.\H,0,1.23575,-2.14038179,1.\P,0,0.,0.,4.5\H,0,0.,0.,3.
 08895\H,0,-1.19800816,0.59336739,4.95139084\H,0,-0.64201064,-1.1867347

 Normal termination of Gaussian 16 at Wed Apr  9 02:16:44 2025.
