 Gaussian 16, Revision C.01,

 ----------------------------------------------------------------------
 #t hf aug-cc-pvdz symm=none int=(grid=ultrafine) guess=(read,tcheck) s
 table=(opt,rrhf)
 ----------------------------------------------------------------------
 -----
 title
 -----
 Symbolic Z-matrix:
 Charge =  0 Multiplicity = 1

 SCF Done:  E(RHF) =  -573.174127960     A.U. after   14 cycles
 Normal termination of Gaussian 16 at Wed Apr  9 02:16:39 2025.
 Gaussian 16:  ES64L-G16RevC.01  3-Jul-2019

 ----------------------------------------------------------------------
 #t hf aug-cc-pvdz iop(5/13=1,5/36=2,99/5=2) pseudo=read geom=check gue
 ss=(read,tcheck) scf=(maxcycle=1)
 ----------------------------------------------------------------------
 -----
 title
 -----
 Structure from the checkpoint file:  "BzDC215_135_mol1.chk"
 Charge =  0 Multiplicity = 1

                         Standard orientation:
 ---------------------------------------------------------------------
 Center     Atomic      Atomic             Coordinates (Angstroms)
 Number     Number       Type             X           Y           Z
 ---------------------------------------------------------------------
      1          6           0        1.149990    0.018841   -1.371736
      2          6           0        1.127174   -1.196754   -0.694920
      3          6           0        1.064629   -1.218127    0.695010
      4          6           0        1.024900   -0.023906    1.408122
      5          6           0        1.047716    1.191689    0.731306
      6          6           0        1.110261    1.213062   -0.658624
      7          1           0        1.198534    0.035430   -2.450517
      8          1           0        1.158010   -2.123638   -1.248395
      9          1           0        1.046921   -2.161600    1.220315
     10          1           0        0.976357   -0.040495    2.486903
     11          1           0        1.016881    2.118573    1.284781
     12          1           0        1.127969    2.156535   -1.183929
     13         15           0       -2.608724   -0.025964   -0.148490
     14          1           0       -1.199135   -0.017028   -0.084923
     15          1           0       -3.109332   -0.640509    1.018895
     16          1           0       -2.233366    1.153361    0.529272
 ---------------------------------------------------------------------

 SCF Done:  E(RHF) =  -574.514068501     A.U. after    2 cycles

 The electronic state is 1-A.
 Alpha  occ. eigenvalues -- -105.16684 -11.52043 -11.42717 -11.42668 -11.40392
 Alpha  occ. eigenvalues --  -11.40386 -11.36267  -2.73176  -1.45439  -1.41439
 Alpha  occ. eigenvalues --   -1.38476  -1.34139  -1.09475  -1.09461  -0.86172
 Alpha  occ. eigenvalues --   -0.86165  -0.74340  -0.72339  -0.65908  -0.58567
 Alpha  occ. eigenvalues --   -0.58554  -0.56182  -0.50864  -0.44997  -0.44990
 Alpha  occ. eigenvalues --   -0.33697  -0.33566  -0.25241  -0.19788  -0.03436
 Alpha virt. eigenvalues --    0.03641   0.04777   0.04787   0.06168   0.06266
 Alpha virt. eigenvalues --    0.06739   0.07100   0.08733   0.09568   0.10254
 Alpha virt. eigenvalues --    0.10756   0.11580   0.12943   0.13558   0.13984

 Mulliken charges:
               1
     1  C   -1.876785
     2  C   -1.275089
     3  C   -1.927047
     4  C   -0.526921
     5  C   -2.913615
     6  C   -0.925360
     7  H    1.518616
     8  H    1.519014
     9  H    1.505588
    10  H    1.600671
    11  H    1.467897
    12  H    1.548516
    13  P    1.919418
    14  H   -0.492424
    15  H   -0.385681
    16  H   -0.756798
 Sum of Mulliken charges =  -0.00000

 Dipole moment (field-independent basis, Debye):
    X=             -3.0549    Y=             -1.7186    Z=             -3.4591  Tot=              4.9246

 Test job not archived.
 1\1\GINC-SE115\SP\RHF\Aug-CC-pVDZ\C6H9P1\OHZDE\09-Apr-2025\0\\#t hf au
 g-cc-pvdz iop(5/13=1,5/36=2,99/5=2) pseudo=read geom=check guess=(read
 ,tcheck) scf=(maxcycle=1)\\title\\0,1\C,0,1.3915,0.,1.\C,0,0.69575,1.2
 0507435,1.\C,0,-0.69575,1.20507435,1.\C,0,-1.3915,0.,1.\C,0,-0.69575,-
 1.20507435,1.\C,0,0.69575,-1.20507435,1.\H,0,2.4715,0.,1.\H,0,1.23575,
 2.14038179,1.\H,0,-1.23575,2.14038179,1.\H,0,-2.4715,0.,1.\H,0,-1.2357
 5,-2.14038179,1.\H,0,1.23575,-2.14038179,1.\P,0,0.,0.,4.7\H,0,0.,0.,3.
 28895\H,0,-1.19800816,0.59336739,5.15139084\H,0,-0.64201064,-1.1867347

 Normal termination of Gaussian 16 at Wed Apr  9 02:16:45 2025.
