 Gaussian 16, Revision C.01,

 ----------------------------------------------------------------------
 #t hf aug-cc-pvdz symm=none int=(grid=ultrafine) guess=(read,tcheck) s
 table=(opt,rrhf)
 ----------------------------------------------------------------------
 -----
 title
 -----
 Symbolic Z-matrix:
 Charge =  0 Multiplicity = 1

 SCF Done:  E(RHF) =  -521.948162323     A.U. after   13 cycles
 Normal termination of Gaussian 16 at Wed Apr  9 02:17:42 2025.
 Gaussian 16:  ES64L-G16RevC.01  3-Jul-2019

 ----------------------------------------------------------------------
 #t hf aug-cc-pvdz iop(5/13=1,5/36=2,99/5=2) pseudo=read geom=check gue
 ss=(read,tcheck) scf=(maxcycle=1)
 ----------------------------------------------------------------------
 -----
 title
 -----
 Structure from the checkpoint file:  "BzDC215_163_mol1.chk"
 Charge =  0 Multiplicity = 1

                         Standard orientation:
 ---------------------------------------------------------------------
 Center     Atomic      Atomic             Coordinates (Angstroms)
 Number     Number       Type             X           Y           Z
 ---------------------------------------------------------------------
      1          6           0       -1.337229   -1.395271    0.019164
      2          6           0       -1.354626   -0.712928   -1.193428
      3          6           0       -1.367439    0.678429   -1.208709
      4          6           0       -1.362854    1.387443   -0.011400
      5          6           0       -1.345458    0.705100    1.201192
      6          6           0       -1.332645   -0.686257    1.216473
      7          1           0       -1.327285   -2.475160    0.031024
      8          1           0       -1.358184   -1.263223   -2.122709
      9          1           0       -1.380941    1.208023   -2.149851
     10          1           0       -1.372799    2.467332   -0.023260
     11          1           0       -1.341900    1.255394    2.130473
     12          1           0       -1.319143   -1.215852    2.157615
     13         14           0        3.149580    0.037065   -0.037613
     14          1           0        1.676304    0.023648   -0.024027
     15          1           0        3.645415   -1.169051   -0.723426
     16          1           0        3.627881    1.430530   -0.057397
     17          1           0        3.658039   -0.639645    1.168388
 ---------------------------------------------------------------------

 SCF Done:  E(RHF) =  -523.253567779     A.U. after    2 cycles

 The electronic state is 1-A.
 Alpha  occ. eigenvalues --  -76.21058 -11.51543 -11.42263 -11.42257 -11.39880
 Alpha  occ. eigenvalues --  -11.39839 -11.35830  -5.54445  -2.17649  -2.16913
 Alpha  occ. eigenvalues --   -2.15540  -1.33649  -1.08904  -1.08899  -0.85691
 Alpha  occ. eigenvalues --   -0.85690  -0.78328  -0.72105  -0.65515  -0.58130
 Alpha  occ. eigenvalues --   -0.58128  -0.55769  -0.50239  -0.49589  -0.45968
 Alpha  occ. eigenvalues --   -0.44589  -0.44588  -0.41627  -0.32828  -0.32819
 Alpha virt. eigenvalues --    0.03429   0.04672   0.04813   0.04838   0.06047
 Alpha virt. eigenvalues --    0.06131   0.06693   0.07018   0.07268   0.08110
 Alpha virt. eigenvalues --    0.09931   0.10328   0.11897   0.12139   0.12170

 Mulliken charges:
               1
     1  C   -1.620395
     2  C   -1.522515
     3  C   -1.574469
     4  C   -1.508770
     5  C   -1.622472
     6  C   -1.486906
     7  H    1.554505
     8  H    1.563967
     9  H    1.546124
    10  H    1.556412
    11  H    1.551179
    12  H    1.561570
    13  Si   5.890376
    14  H   -1.551734
    15  H   -1.371392
    16  H   -1.470179
    17  H   -1.495301
 Sum of Mulliken charges =   0.00000

 Dipole moment (field-independent basis, Debye):
    X=             -0.2083    Y=              0.8727    Z=             -0.8124  Tot=              1.2104

 Test job not archived.
 1\1\GINC-SE092\SP\RHF\Aug-CC-pVDZ\C6H10Si1\OHZDE\09-Apr-2025\0\\#t hf
 aug-cc-pvdz iop(5/13=1,5/36=2,99/5=2) pseudo=read geom=check guess=(re
 ad,tcheck) scf=(maxcycle=1)\\title\\0,1\C,0,1.3915,0.,1.\C,0,0.69575,1
 .20507435,1.\C,0,-0.69575,1.20507435,1.\C,0,-1.3915,0.,1.\C,0,-0.69575
 ,-1.20507435,1.\C,0,0.69575,-1.20507435,1.\H,0,2.4715,0.,1.\H,0,1.2357
 5,2.14038179,1.\H,0,-1.23575,2.14038179,1.\H,0,-2.4715,0.,1.\H,0,-1.23
 575,-2.14038179,1.\H,0,1.23575,-2.14038179,1.\Si,0,0.,0.,5.5\H,0,0.,0.
 ,4.0266\H,0,1.20302606,0.69456742,5.99113333\H,0,-1.38913484,0.,5.9911

 Normal termination of Gaussian 16 at Wed Apr  9 02:17:48 2025.
