 Gaussian 16, Revision C.01,

 ----------------------------------------------------------------------
 #t hf aug-cc-pvdz symm=none int=(grid=ultrafine) guess=(read,tcheck) s
 table=(opt,rrhf)
 ----------------------------------------------------------------------
 -----
 title
 -----
 Symbolic Z-matrix:
 Charge =  0 Multiplicity = 1

 SCF Done:  E(RHF) =  -330.764201306     A.U. after   11 cycles
 Normal termination of Gaussian 16 at Wed Apr  9 02:17:21 2025.
 Gaussian 16:  ES64L-G16RevC.01  3-Jul-2019

 ----------------------------------------------------------------------
 #t hf aug-cc-pvdz iop(5/13=1,5/36=2,99/5=2) pseudo=read geom=check gue
 ss=(read,tcheck) scf=(maxcycle=1)
 ----------------------------------------------------------------------
 -----
 title
 -----
 Structure from the checkpoint file:  "BzDC215_3_mol1.chk"
 Charge =  0 Multiplicity = 1

                         Standard orientation:
 ---------------------------------------------------------------------
 Center     Atomic      Atomic             Coordinates (Angstroms)
 Number     Number       Type             X           Y           Z
 ---------------------------------------------------------------------
      1          6           0        0.000000    1.391500   -0.559289
      2          6           0       -1.205074    0.695750   -0.559289
      3          6           0       -1.205074   -0.695750   -0.559289
      4          6           0       -0.000000   -1.391500   -0.559289
      5          6           0        1.205074   -0.695750   -0.559289
      6          6           0        1.205074    0.695750   -0.559289
      7          1           0        0.000000    2.471500   -0.559289
      8          1           0       -2.140382    1.235750   -0.559289
      9          1           0       -2.140382   -1.235750   -0.559289
     10          1           0       -0.000000   -2.471500   -0.559289
     11          1           0        2.140382   -1.235750   -0.559289
     12          1           0        2.140382    1.235750   -0.559289
     13          9           0        0.000000    0.000000    2.440711
     14          1           0        0.000000    0.000000    1.523753
 ---------------------------------------------------------------------

 SCF Done:  E(RHF) =  -332.241322830     A.U. after    2 cycles

 The electronic state is 1-A1.
 Alpha  occ. eigenvalues --  -29.26869 -11.53048 -11.43729 -11.43729 -11.41445
 Alpha  occ. eigenvalues --  -11.41445 -11.37414  -1.35640  -1.10646  -1.10646
 Alpha  occ. eigenvalues --   -0.87179  -0.87179  -0.83057  -0.73714  -0.66803
 Alpha  occ. eigenvalues --   -0.59645  -0.59645  -0.57246  -0.51504  -0.45972
 Alpha  occ. eigenvalues --   -0.45972  -0.36757  -0.35561  -0.35561  -0.26131
 Alpha  occ. eigenvalues --   -0.26131
 Alpha virt. eigenvalues --    0.03377   0.04678   0.04678   0.05861   0.05861
 Alpha virt. eigenvalues --    0.07224   0.10446   0.10446   0.11555   0.12877
 Alpha virt. eigenvalues --    0.12877   0.13780   0.14288   0.14799   0.14799

 Mulliken charges:
               1
     1  C   -1.521591
     2  C   -1.521591
     3  C   -1.521591
     4  C   -1.521591
     5  C   -1.521591
     6  C   -1.521591
     7  H    1.460027
     8  H    1.460027
     9  H    1.460027
    10  H    1.460027
    11  H    1.460027
    12  H    1.460027
    13  F    1.137273
    14  H   -0.767886
 Sum of Mulliken charges =  -0.00000

 Dipole moment (field-independent basis, Debye):
    X=              0.0000    Y=              0.0000    Z=             -0.5462  Tot=              0.5462

 Test job not archived.
 1\1\GINC-SE252\SP\RHF\Aug-CC-pVDZ\C6H7F1\OHZDE\09-Apr-2025\0\\#t hf au
 g-cc-pvdz iop(5/13=1,5/36=2,99/5=2) pseudo=read geom=check guess=(read
 ,tcheck) scf=(maxcycle=1)\\title\\0,1\C,0,1.3915,0.,1.\C,0,0.69575,1.2
 0507435,1.\C,0,-0.69575,1.20507435,1.\C,0,-1.3915,0.,1.\C,0,-0.69575,-
 1.20507435,1.\C,0,0.69575,-1.20507435,1.\H,0,2.4715,0.,1.\H,0,1.23575,
 2.14038179,1.\H,0,-1.23575,2.14038179,1.\H,0,-2.4715,0.,1.\H,0,-1.2357
 5,-2.14038179,1.\H,0,1.23575,-2.14038179,1.\F,0,0.,0.,4.\H,0,0.,0.,3.0
 83042\\Version=ES64L-G16RevC.01\State=1-A1\HF=-332.2413228\RMSD=1.734e

 Normal termination of Gaussian 16 at Wed Apr  9 02:17:25 2025.
