 Gaussian 16, Revision C.01,

 ----------------------------------------------------------------------
 #t hf aug-cc-pvdz symm=none int=(grid=ultrafine) guess=(read,tcheck) s
 table=(opt,rrhf)
 ----------------------------------------------------------------------
 -----
 title
 -----
 Symbolic Z-matrix:
 Charge =  0 Multiplicity = 1

 SCF Done:  E(RHF) =  -629.410632549     A.U. after   13 cycles
 Normal termination of Gaussian 16 at Wed Apr  9 02:15:32 2025.
 Gaussian 16:  ES64L-G16RevC.01  3-Jul-2019

 ----------------------------------------------------------------------
 #t hf aug-cc-pvdz iop(5/13=1,5/36=2,99/5=2) pseudo=read geom=check gue
 ss=(read,tcheck) scf=(maxcycle=1)
 ----------------------------------------------------------------------
 -----
 title
 -----
 Structure from the checkpoint file:  "BzDC215_109_mol1.chk"
 Charge =  0 Multiplicity = 1

                         Standard orientation:
 ---------------------------------------------------------------------
 Center     Atomic      Atomic             Coordinates (Angstroms)
 Number     Number       Type             X           Y           Z
 ---------------------------------------------------------------------
      1          6           0       -0.933246    1.406946   -0.000000
      2          6           0       -0.933246    0.711196    1.205074
      3          6           0       -0.933246   -0.680304    1.205074
      4          6           0       -0.933246   -1.376054    0.000000
      5          6           0       -0.933246   -0.680304   -1.205074
      6          6           0       -0.933246    0.711196   -1.205074
      7          1           0       -0.933246    2.486946   -0.000000
      8          1           0       -0.933246    1.251196    2.140382
      9          1           0       -0.933246   -1.220304    2.140382
     10          1           0       -0.933246   -2.456054    0.000000
     11          1           0       -0.933246   -1.220304   -2.140382
     12          1           0       -0.933246    1.251196   -2.140382
     13         16           0        2.266754    0.015446   -0.000000
     14          1           0        1.945000   -1.280818    0.000000
     15          1           0        0.983279    0.384932   -0.000000
 ---------------------------------------------------------------------

 SCF Done:  E(RHF) =  -630.786401242     A.U. after    2 cycles

 The electronic state is 1-A'.
 Alpha  occ. eigenvalues --  -75.67278 -13.13675 -13.07974 -12.99673 -11.52666
 Alpha  occ. eigenvalues --  -11.43294 -11.43202 -11.40946 -11.40861 -11.36967
 Alpha  occ. eigenvalues --   -8.01149  -1.35576  -1.10264  -1.09982  -1.09175
 Alpha  occ. eigenvalues --   -0.86754  -0.86725  -0.73548  -0.66426  -0.59257
 Alpha  occ. eigenvalues --   -0.59084  -0.56885  -0.56750  -0.49977  -0.45538
 Alpha  occ. eigenvalues --   -0.45501  -0.39714  -0.34821  -0.33847  -0.23237
 Alpha virt. eigenvalues --    0.02974   0.04970   0.04998   0.05444   0.05759
 Alpha virt. eigenvalues --    0.05973   0.07043   0.07177   0.10131   0.10508
 Alpha virt. eigenvalues --    0.12504   0.12857   0.13350   0.13889   0.14212

 Mulliken charges:
               1
     1  C   -1.536669
     2  C   -1.587079
     3  C   -1.213875
     4  C   -2.320492
     5  C   -1.213875
     6  C   -1.587079
     7  H    1.504702
     8  H    1.467376
     9  H    1.501190
    10  H    1.540129
    11  H    1.501190
    12  H    1.467376
    13  S   -2.847521
    14  H    0.974368
    15  H    2.350259
 Sum of Mulliken charges =  -0.00000

 Dipole moment (field-independent basis, Debye):
    X=              0.4427    Y=              0.5860    Z=              0.0000  Tot=              0.7345

 Test job not archived.
 1\1\GINC-SE051\SP\RHF\Aug-CC-pVDZ\C6H8S1\OHZDE\09-Apr-2025\0\\#t hf au
 g-cc-pvdz iop(5/13=1,5/36=2,99/5=2) pseudo=read geom=check guess=(read
 ,tcheck) scf=(maxcycle=1)\\title\\0,1\C,0,1.3915,0.,1.\C,0,0.69575,1.2
 0507435,1.\C,0,-0.69575,1.20507435,1.\C,0,-1.3915,0.,1.\C,0,-0.69575,-
 1.20507435,1.\C,0,0.69575,-1.20507435,1.\H,0,2.4715,0.,1.\H,0,1.23575,
 2.14038179,1.\H,0,-1.23575,2.14038179,1.\H,0,-2.4715,0.,1.\H,0,-1.2357
 5,-2.14038179,1.\H,0,1.23575,-2.14038179,1.\S,0,0.,0.,4.2\H,0,-1.29626
 462,0.,3.87824638\H,0,0.36948551,0.,2.9165251\\Version=ES64L-G16RevC.0

 Normal termination of Gaussian 16 at Wed Apr  9 02:15:37 2025.
