 Gaussian 16, Revision C.01,

 ----------------------------------------------------------------------
 #t hf aug-cc-pvdz symm=none int=(grid=ultrafine) guess=(read,tcheck) s
 table=(opt,rrhf)
 ----------------------------------------------------------------------
 -----
 title
 -----
 Symbolic Z-matrix:
 Charge =  0 Multiplicity = 1

 SCF Done:  E(RHF) =  -573.178037969     A.U. after   13 cycles
 Normal termination of Gaussian 16 at Wed Apr  9 02:16:34 2025.
 Gaussian 16:  ES64L-G16RevC.01  3-Jul-2019

 ----------------------------------------------------------------------
 #t hf aug-cc-pvdz iop(5/13=1,5/36=2,99/5=2) pseudo=read geom=check gue
 ss=(read,tcheck) scf=(maxcycle=1)
 ----------------------------------------------------------------------
 -----
 title
 -----
 Structure from the checkpoint file:  "BzDC215_138_mol1.chk"
 Charge =  0 Multiplicity = 1

                         Standard orientation:
 ---------------------------------------------------------------------
 Center     Atomic      Atomic             Coordinates (Angstroms)
 Number     Number       Type             X           Y           Z
 ---------------------------------------------------------------------
      1          6           0        1.231220    0.019321   -1.375499
      2          6           0        1.212157   -1.196487   -0.698950
      3          6           0        1.158406   -1.218292    0.691341
      4          6           0        1.123716   -0.024289    1.405081
      5          6           0        1.142779    1.191519    0.728532
      6          6           0        1.196531    1.213324   -0.661759
      7          1           0        1.272939    0.036245   -2.454561
      8          1           0        1.239081   -2.123201   -1.252913
      9          1           0        1.143610   -2.161930    1.216439
     10          1           0        1.081997   -0.041213    2.484143
     11          1           0        1.115855    2.118234    1.282495
     12          1           0        1.211326    2.156963   -1.186857
     13         15           0       -2.819462   -0.026011   -0.140109
     14          1           0       -1.409495   -0.017712   -0.085466
     15          1           0       -3.312937   -0.640724    1.030222
     16          1           0       -2.439302    1.152926    0.535649
 ---------------------------------------------------------------------

 SCF Done:  E(RHF) =  -574.513118495     A.U. after    2 cycles

 The electronic state is 1-A.
 Alpha  occ. eigenvalues -- -105.17042 -11.51923 -11.42615 -11.42575 -11.40260
 Alpha  occ. eigenvalues --  -11.40245 -11.36172  -2.73572  -1.45646  -1.41686
 Alpha  occ. eigenvalues --   -1.38618  -1.33957  -1.09318  -1.09309  -0.86045
 Alpha  occ. eigenvalues --   -0.86041  -0.74394  -0.72319  -0.65818  -0.58462
 Alpha  occ. eigenvalues --   -0.58452  -0.56095  -0.50437  -0.44906  -0.44900
 Alpha  occ. eigenvalues --   -0.33390  -0.33328  -0.25604  -0.20186  -0.03702
 Alpha virt. eigenvalues --    0.03581   0.04778   0.04787   0.06165   0.06266
 Alpha virt. eigenvalues --    0.06572   0.07137   0.08796   0.09604   0.10297
 Alpha virt. eigenvalues --    0.10904   0.11476   0.12817   0.13529   0.14053

 Mulliken charges:
               1
     1  C   -1.865165
     2  C   -1.293595
     3  C   -1.924266
     4  C   -0.558127
     5  C   -2.863853
     6  C   -0.836081
     7  H    1.514536
     8  H    1.515587
     9  H    1.507785
    10  H    1.601161
    11  H    1.482825
    12  H    1.552303
    13  P    1.988798
    14  H   -0.708700
    15  H   -0.403849
    16  H   -0.709360
 Sum of Mulliken charges =   0.00000

 Dipole moment (field-independent basis, Debye):
    X=             -2.9947    Y=             -1.6971    Z=             -3.5503  Tot=              4.9450

 Test job not archived.
 1\1\GINC-SE253\SP\RHF\Aug-CC-pVDZ\C6H9P1\OHZDE\09-Apr-2025\0\\#t hf au
 g-cc-pvdz iop(5/13=1,5/36=2,99/5=2) pseudo=read geom=check guess=(read
 ,tcheck) scf=(maxcycle=1)\\title\\0,1\C,0,1.3915,0.,1.\C,0,0.69575,1.2
 0507435,1.\C,0,-0.69575,1.20507435,1.\C,0,-1.3915,0.,1.\C,0,-0.69575,-
 1.20507435,1.\C,0,0.69575,-1.20507435,1.\H,0,2.4715,0.,1.\H,0,1.23575,
 2.14038179,1.\H,0,-1.23575,2.14038179,1.\H,0,-2.4715,0.,1.\H,0,-1.2357
 5,-2.14038179,1.\H,0,1.23575,-2.14038179,1.\P,0,0.,0.,5.\H,0,0.,0.,3.5
 8895\H,0,-1.19800816,0.59336739,5.45139084\H,0,-0.64201064,-1.18673478

 Normal termination of Gaussian 16 at Wed Apr  9 02:16:40 2025.
