 Gaussian 16, Revision C.01,

 ----------------------------------------------------------------------
 #t hf aug-cc-pvdz symm=none int=(grid=ultrafine) guess=(read,tcheck) s
 table=(opt,rrhf)
 ----------------------------------------------------------------------
 -----
 title
 -----
 Symbolic Z-matrix:
 Charge =  0 Multiplicity = 1

 SCF Done:  E(RHF) =  -291.220158913     A.U. after    9 cycles
 Normal termination of Gaussian 16 at Wed Apr  9 02:16:30 2025.
 Gaussian 16:  ES64L-G16RevC.01  3-Jul-2019

 ----------------------------------------------------------------------
 #t hf aug-cc-pvdz iop(5/13=1,5/36=2,99/5=2) pseudo=read geom=check gue
 ss=(read,tcheck) scf=(maxcycle=1)
 ----------------------------------------------------------------------
 -----
 title
 -----
 Structure from the checkpoint file:  "BzDC215_152_mol3.chk"
 Charge =  0 Multiplicity = 1

                         Standard orientation:
 ---------------------------------------------------------------------
 Center     Atomic      Atomic             Coordinates (Angstroms)
 Number     Number       Type             X           Y           Z
 ---------------------------------------------------------------------
      1         14           0        0.028050    0.000000   -0.028444
      2          1           0        0.388653    1.383627    0.327153
      3          1           0       -1.241790    0.000000   -0.775715
      4          1           0        1.254335   -0.798837   -0.198708
      5          1           0       -0.793892   -0.584790    1.045493
 ---------------------------------------------------------------------

 SCF Done:  E(RHF) =  -291.402661005     A.U. after    2 cycles

 The electronic state is 1-A.
 Alpha  occ. eigenvalues --  -76.21975  -5.55376  -2.18504  -2.17566  -2.16404
 Alpha  occ. eigenvalues --   -0.79201  -0.50324  -0.47438  -0.42287
 Alpha virt. eigenvalues --    0.03879   0.05801   0.06135   0.06361   0.09466
 Alpha virt. eigenvalues --    0.09717   0.09812   0.14757   0.15896   0.18188
 Alpha virt. eigenvalues --    0.18795   0.19294   0.19991   0.30570   0.33102

 Mulliken charges:
               1
     1  Si   5.650799
     2  H   -1.485869
     3  H   -1.336423
     4  H   -1.395688
     5  H   -1.432820
 Sum of Mulliken charges =   0.00000

 Dipole moment (field-independent basis, Debye):
    X=              0.9150    Y=             -0.0195    Z=             -0.8470  Tot=              1.2470

 Test job not archived.
 1\1\GINC-SE021\SP\RHF\Aug-CC-pVDZ\H4Si1\OHZDE\09-Apr-2025\0\\#t hf aug
 -cc-pvdz iop(5/13=1,5/36=2,99/5=2) pseudo=read geom=check guess=(read,
 tcheck) scf=(maxcycle=1)\\title\\0,1\Si,0,0.,0.,5.2\H,0,0.,0.,3.7266\H
 ,0,1.20302606,0.69456742,5.69113333\H,0,-1.38913484,0.,5.69113333\H,0,
 0.69456742,-1.20302606,5.69113333\\Version=ES64L-G16RevC.01\State=1-A\
 HF=-291.402661\RMSD=1.427e-01\Dipole=-0.3632049,0.3298236,-0.0004661\Q
 uadrupole=-0.2046708,0.1652847,0.0393861,-0.0512059,-0.202039,0.211005
 4\PG=C01 [X(H4Si1)]\\@

 Normal termination of Gaussian 16 at Wed Apr  9 02:16:31 2025.
