 Gaussian 16, Revision C.01,

 ----------------------------------------------------------------------
 #t hf aug-cc-pvdz symm=none int=(grid=ultrafine) guess=(read,tcheck) s
 table=(opt,rrhf)
 ----------------------------------------------------------------------
 -----
 title
 -----
 Symbolic Z-matrix:
 Charge =  0 Multiplicity = 1

 SCF Done:  E(RHF) =  -690.823052526     A.U. after   11 cycles

 1\1\GINC-SE364\Stability\RHF\Aug-CC-pVDZ\C6H7Cl1\OHZDE\09-Apr-2025\0\\
 #t hf aug-cc-pvdz symm=none int=(grid=ultrafine) guess=(read,tcheck) s
 table=(opt,rrhf)\\title\\0,1\C,0,1.3915,0.,1.\C,0,0.69575,1.20507435,1
 .\C,0,-0.69575,1.20507435,1.\C,0,-1.3915,0.,1.\C,0,-0.69575,-1.2050743
 5,1.\C,0,0.69575,-1.20507435,1.\H,0,2.4715,0.,1.\H,0,1.23575,2.1403817
 9,1.\H,0,-1.23575,2.14038179,1.\H,0,-2.4715,0.,1.\H,0,-1.23575,-2.1403
 8179,1.\H,0,1.23575,-2.14038179,1.\Cl,0,0.,0.,6.\H,0,0.,0.,4.7253\\Ver
 sion=ES64L-G16RevC.01\HF=-690.8230525\RMSD=8.785e-09\Dipole=0.,0.,-0.6

 Normal termination of Gaussian 16 at Wed Apr  9 02:14:52 2025.
 Gaussian 16:  ES64L-G16RevC.01  3-Jul-2019

 ----------------------------------------------------------------------
 #t hf aug-cc-pvdz iop(5/13=1,5/36=2,99/5=2) pseudo=read geom=check gue
 ss=(read,tcheck) scf=(maxcycle=1)
 ----------------------------------------------------------------------
 -----
 title
 -----
 Structure from the checkpoint file:  "BzDC215_104_mol1.chk"
 Charge =  0 Multiplicity = 1

                         Standard orientation:
 ---------------------------------------------------------------------
 Center     Atomic      Atomic             Coordinates (Angstroms)
 Number     Number       Type             X           Y           Z
 ---------------------------------------------------------------------
      1          6           0        0.000000    1.391500   -1.478755
      2          6           0       -1.205074    0.695750   -1.478755
      3          6           0       -1.205074   -0.695750   -1.478755
      4          6           0       -0.000000   -1.391500   -1.478755
      5          6           0        1.205074   -0.695750   -1.478755
      6          6           0        1.205074    0.695750   -1.478755
      7          1           0        0.000000    2.471500   -1.478755
      8          1           0       -2.140382    1.235750   -1.478755
      9          1           0       -2.140382   -1.235750   -1.478755
     10          1           0       -0.000000   -2.471500   -1.478755
     11          1           0        2.140382   -1.235750   -1.478755
     12          1           0        2.140382    1.235750   -1.478755
     13         17           0        0.000000    0.000000    3.521245
     14          1           0        0.000000    0.000000    2.246545
 ---------------------------------------------------------------------

 SCF Done:  E(RHF) =  -692.205225376     A.U. after    2 cycles

 The electronic state is 1-A1.
 Alpha  occ. eigenvalues --  -99.90208 -11.52181 -11.42862 -11.42862 -11.40386
 Alpha  occ. eigenvalues --  -11.40386 -11.36471 -10.47390  -9.67549  -9.66553
 Alpha  occ. eigenvalues --   -9.66553  -1.34363  -1.29846  -1.09554  -1.09554
 Alpha  occ. eigenvalues --   -0.86322  -0.86322  -0.72727  -0.68873  -0.66108
 Alpha  occ. eigenvalues --   -0.58756  -0.58756  -0.56425  -0.52079  -0.52079
 Alpha  occ. eigenvalues --   -0.50641  -0.45207  -0.45207  -0.33519  -0.33519
 Alpha virt. eigenvalues --    0.02769   0.04731   0.04731   0.05668   0.06102
 Alpha virt. eigenvalues --    0.06102   0.07094   0.10853   0.10912   0.10912
 Alpha virt. eigenvalues --    0.11754   0.12240   0.12240   0.14100   0.14100

 Mulliken charges:
               1
     1  C   -1.508410
     2  C   -1.508410
     3  C   -1.508410
     4  C   -1.508410
     5  C   -1.508410
     6  C   -1.508410
     7  H    1.515875
     8  H    1.515875
     9  H    1.515875
    10  H    1.515875
    11  H    1.515875
    12  H    1.515875
    13  Cl  -0.503665
    14  H    0.458879
 Sum of Mulliken charges =   0.00000

 Dipole moment (field-independent basis, Debye):
    X=             -0.0000    Y=              0.0000    Z=             -1.1197  Tot=              1.1197

 Test job not archived.
 1\1\GINC-SE364\SP\RHF\Aug-CC-pVDZ\C6H7Cl1\OHZDE\09-Apr-2025\0\\#t hf a
 ug-cc-pvdz iop(5/13=1,5/36=2,99/5=2) pseudo=read geom=check guess=(rea
 d,tcheck) scf=(maxcycle=1)\\title\\0,1\C,0,1.3915,0.,1.\C,0,0.69575,1.
 20507435,1.\C,0,-0.69575,1.20507435,1.\C,0,-1.3915,0.,1.\C,0,-0.69575,
 -1.20507435,1.\C,0,0.69575,-1.20507435,1.\H,0,2.4715,0.,1.\H,0,1.23575
 ,2.14038179,1.\H,0,-1.23575,2.14038179,1.\H,0,-2.4715,0.,1.\H,0,-1.235
 75,-2.14038179,1.\H,0,1.23575,-2.14038179,1.\Cl,0,0.,0.,6.\H,0,0.,0.,4
 .7253\\Version=ES64L-G16RevC.01\State=1-A1\HF=-692.2052254\RMSD=1.663e

 Normal termination of Gaussian 16 at Wed Apr  9 02:14:55 2025.
