 Gaussian 16, Revision C.01,

 ----------------------------------------------------------------------
 #t hf aug-cc-pvdz symm=none int=(grid=ultrafine) guess=(read,tcheck) s
 table=(opt,rrhf)
 ----------------------------------------------------------------------
 -----
 title
 -----
 Symbolic Z-matrix:
 Charge =  0 Multiplicity = 1

 SCF Done:  E(RHF) =  -629.425303801     A.U. after   13 cycles
 Normal termination of Gaussian 16 at Wed Apr  9 02:15:38 2025.
 Gaussian 16:  ES64L-G16RevC.01  3-Jul-2019

 ----------------------------------------------------------------------
 #t hf aug-cc-pvdz iop(5/13=1,5/36=2,99/5=2) pseudo=read geom=check gue
 ss=(read,tcheck) scf=(maxcycle=1)
 ----------------------------------------------------------------------
 -----
 title
 -----
 Structure from the checkpoint file:  "BzDC215_115_mol1.chk"
 Charge =  0 Multiplicity = 1

                         Standard orientation:
 ---------------------------------------------------------------------
 Center     Atomic      Atomic             Coordinates (Angstroms)
 Number     Number       Type             X           Y           Z
 ---------------------------------------------------------------------
      1          6           0       -1.083246    1.406946    0.000000
      2          6           0       -1.083246    0.711196    1.205074
      3          6           0       -1.083246   -0.680304    1.205074
      4          6           0       -1.083246   -1.376054    0.000000
      5          6           0       -1.083246   -0.680304   -1.205074
      6          6           0       -1.083246    0.711196   -1.205074
      7          1           0       -1.083246    2.486946    0.000000
      8          1           0       -1.083246    1.251196    2.140382
      9          1           0       -1.083246   -1.220304    2.140382
     10          1           0       -1.083246   -2.456054    0.000000
     11          1           0       -1.083246   -1.220304   -2.140382
     12          1           0       -1.083246    1.251196   -2.140382
     13         16           0        2.616754    0.015446    0.000000
     14          1           0        2.295000   -1.280818    0.000000
     15          1           0        1.333279    0.384932    0.000000
 ---------------------------------------------------------------------

 SCF Done:  E(RHF) =  -630.790762046     A.U. after    2 cycles

 The electronic state is 1-A'.
 Alpha  occ. eigenvalues --  -75.68517 -13.14332 -13.08344 -13.00481 -11.52392
 Alpha  occ. eigenvalues --  -11.43050 -11.42995 -11.40696 -11.40632 -11.36614
 Alpha  occ. eigenvalues --   -8.02303  -1.34712  -1.10105  -1.09632  -1.09605
 Alpha  occ. eigenvalues --   -0.86450  -0.86434  -0.73030  -0.66207  -0.58880
 Alpha  occ. eigenvalues --   -0.58822  -0.56532  -0.54554  -0.50560  -0.45316
 Alpha  occ. eigenvalues --   -0.45288  -0.41716  -0.33860  -0.33746  -0.24306
 Alpha virt. eigenvalues --    0.02771   0.04941   0.04970   0.05318   0.05696
 Alpha virt. eigenvalues --    0.05876   0.06967   0.07203   0.10524   0.10807
 Alpha virt. eigenvalues --    0.12567   0.12967   0.13003   0.13817   0.14338

 Mulliken charges:
               1
     1  C   -1.407608
     2  C   -1.666390
     3  C   -1.113251
     4  C   -2.252176
     5  C   -1.113251
     6  C   -1.666390
     7  H    1.497420
     8  H    1.488986
     9  H    1.529599
    10  H    1.542358
    11  H    1.529599
    12  H    1.488986
    13  S   -2.505508
    14  H    0.985175
    15  H    1.662449
 Sum of Mulliken charges =   0.00000

 Dipole moment (field-independent basis, Debye):
    X=              0.5212    Y=              0.5785    Z=              0.0000  Tot=              0.7787

 Test job not archived.
 1\1\GINC-SE029\SP\RHF\Aug-CC-pVDZ\C6H8S1\OHZDE\09-Apr-2025\0\\#t hf au
 g-cc-pvdz iop(5/13=1,5/36=2,99/5=2) pseudo=read geom=check guess=(read
 ,tcheck) scf=(maxcycle=1)\\title\\0,1\C,0,1.3915,0.,1.\C,0,0.69575,1.2
 0507435,1.\C,0,-0.69575,1.20507435,1.\C,0,-1.3915,0.,1.\C,0,-0.69575,-
 1.20507435,1.\C,0,0.69575,-1.20507435,1.\H,0,2.4715,0.,1.\H,0,1.23575,
 2.14038179,1.\H,0,-1.23575,2.14038179,1.\H,0,-2.4715,0.,1.\H,0,-1.2357
 5,-2.14038179,1.\H,0,1.23575,-2.14038179,1.\S,0,0.,0.,4.7\H,0,-1.29626
 462,0.,4.37824638\H,0,0.36948551,0.,3.4165251\\Version=ES64L-G16RevC.0

 Normal termination of Gaussian 16 at Wed Apr  9 02:15:42 2025.
