 Gaussian 16, Revision C.01,

 ----------------------------------------------------------------------
 #t hf aug-cc-pvdz symm=none int=(grid=ultrafine) guess=(read,tcheck) s
 table=(opt,rrhf)
 ----------------------------------------------------------------------
 -----
 title
 -----
 Symbolic Z-matrix:
 Charge =  0 Multiplicity = 1

 SCF Done:  E(RHF) =  -612.932047801     A.U. after   15 cycles
 Normal termination of Gaussian 16 at Wed Apr  9 02:18:04 2025.
 Gaussian 16:  ES64L-G16RevC.01  3-Jul-2019

 ----------------------------------------------------------------------
 #t hf aug-cc-pvdz iop(5/13=1,5/36=2,99/5=2) pseudo=read geom=check gue
 ss=(read,tcheck) scf=(maxcycle=1)
 ----------------------------------------------------------------------
 -----
 title
 -----
 Structure from the checkpoint file:  "CARBHB12_2_mol1.chk"
 Charge =  0 Multiplicity = 1

                         Standard orientation:
 ---------------------------------------------------------------------
 Center     Atomic      Atomic             Coordinates (Angstroms)
 Number     Number       Type             X           Y           Z
 ---------------------------------------------------------------------
      1          8           0       -2.914213   -0.346243    0.103595
      2          1           0       -1.952256   -0.229013    0.088802
      3          1           0       -3.127822   -0.678094   -0.768472
      4          6           0        0.064975    0.266890   -0.060715
      5         17           0        1.363075   -0.825936    0.008858
      6          6           0        0.523076    1.662658   -0.011220
      7          1           0        1.589759    1.875461   -0.106600
      8          1           0       -0.063841    2.244273   -0.727214
      9          1           0        0.167289    2.020954    0.965745
 ---------------------------------------------------------------------

 SCF Done:  E(RHF) =  -613.883023732     A.U. after    2 cycles

 The electronic state is 1-A.
 Alpha  occ. eigenvalues --  -99.92803 -21.05836 -11.48367 -11.40503 -10.50354
 Alpha  occ. eigenvalues --   -9.70186  -9.69314  -9.69222  -1.62642  -1.39215
 Alpha  occ. eigenvalues --   -1.13844  -0.84157  -0.65382  -0.61646  -0.61230
 Alpha  occ. eigenvalues --   -0.59909  -0.55015  -0.51816  -0.44826  -0.36884
 Alpha  occ. eigenvalues --   -0.32031
 Alpha virt. eigenvalues --    0.02318   0.03106   0.05722   0.06287   0.06523
 Alpha virt. eigenvalues --    0.06907   0.08043   0.10680   0.12508   0.13053
 Alpha virt. eigenvalues --    0.14238   0.15270   0.15467   0.17459   0.18919

 Mulliken charges:
               1
     1  O   -2.287143
     2  H    1.686290
     3  H    0.729481
     4  C   -1.390479
     5  Cl   0.023561
     6  C   -2.746593
     7  H    1.334506
     8  H    1.314888
     9  H    1.335489
 Sum of Mulliken charges =  -0.00000

 Dipole moment (field-independent basis, Debye):
    X=              2.1616    Y=              2.0516    Z=             -0.6410  Tot=              3.0484

 Test job not archived.
 1\1\GINC-SE132\SP\RHF\Aug-CC-pVDZ\C2H5Cl1O1\OHZDE\09-Apr-2025\0\\#t hf
  aug-cc-pvdz iop(5/13=1,5/36=2,99/5=2) pseudo=read geom=check guess=(r
 ead,tcheck) scf=(maxcycle=1)\\title\\0,1\O,0,-2.6230507,0.0983053,-0.2
 620611\H,0,-1.6716484,0.0200216,-0.4294782\H,0,-2.8369391,0.9964234,-0
 .5148255\C,0,0.4073302,-0.0340636,-0.5409216\Cl,0,1.3208633,-0.1895449
 ,-1.9641069\C,0,1.2421153,-0.1696644,0.6612515\H,0,2.3287649,-0.180474
 2,0.5550829\H,0,0.9214309,0.5791287,1.3905426\H,0,0.9111337,-1.1201319
 ,1.1045163\\Version=ES64L-G16RevC.01\State=1-A\HF=-613.8830237\RMSD=1.

 Normal termination of Gaussian 16 at Wed Apr  9 02:18:07 2025.
