 Gaussian 16, Revision C.01,

 ----------------------------------------------------------------------
 #t hf aug-cc-pvdz symm=none int=(grid=ultrafine) guess=(read,tcheck) s
 table=(opt,rrhf)
 ----------------------------------------------------------------------
 -----
 title
 -----
 Symbolic Z-matrix:
 Charge =  0 Multiplicity = 1

 SCF Done:  E(RHF) =  -290.018977596     A.U. after    9 cycles
 Normal termination of Gaussian 16 at Wed Apr  9 02:18:00 2025.
 Gaussian 16:  ES64L-G16RevC.01  3-Jul-2019

 ----------------------------------------------------------------------
 #t hf aug-cc-pvdz iop(5/13=1,5/36=2,99/5=2) pseudo=read geom=check gue
 ss=(read,tcheck) scf=(maxcycle=1)
 ----------------------------------------------------------------------
 -----
 title
 -----
 Structure from the checkpoint file:  "CARBHB12_11_mol3.chk"
 Charge =  0 Multiplicity = 1

                         Standard orientation:
 ---------------------------------------------------------------------
 Center     Atomic      Atomic             Coordinates (Angstroms)
 Number     Number       Type             X           Y           Z
 ---------------------------------------------------------------------
      1         14           0        0.000000    0.000000    0.128351
      2          1           0        0.000000    1.094704   -0.898455
      3          1           0       -0.000000   -1.094704   -0.898455
 ---------------------------------------------------------------------

 SCF Done:  E(RHF) =  -290.152459194     A.U. after    2 cycles

 The electronic state is 1-A1.
 Alpha  occ. eigenvalues --  -76.24869  -5.57402  -2.18395  -2.17747  -2.15101
 Alpha  occ. eigenvalues --   -0.71819  -0.45165  -0.30099
 Alpha virt. eigenvalues --    0.01492   0.04389   0.06267   0.07554   0.09703
 Alpha virt. eigenvalues --    0.10485   0.14039   0.18293   0.19857   0.20114
 Alpha virt. eigenvalues --    0.20347   0.20580   0.34326   0.34474   0.37661

 Mulliken charges:
               1
     1  Si   2.361297
     2  H   -1.180648
     3  H   -1.180648
 Sum of Mulliken charges =  -0.00000

 Dipole moment (field-independent basis, Debye):
    X=              0.0000    Y=             -0.0000    Z=              0.6156  Tot=              0.6156

 Test job not archived.
 1\1\GINC-SE128\SP\RHF\Aug-CC-pVDZ\H2Si1\OHZDE\09-Apr-2025\0\\#t hf aug
 -cc-pvdz iop(5/13=1,5/36=2,99/5=2) pseudo=read geom=check guess=(read,
 tcheck) scf=(maxcycle=1)\\title\\0,1\Si,0,0.,0.,-0.684537\H,0,1.094704
 2,0.,0.3422685\H,0,-1.0947042,0.,0.3422685\\Version=ES64L-G16RevC.01\S
 tate=1-A1\HF=-290.1524592\RMSD=1.607e-01\Dipole=0.,0.,-0.2422066\Quadr
 upole=-0.6010165,3.234742,-2.6337256,0.,0.,0.\PG=C02V [C2(Si1),SGV(H2)
 ]\\@

 Normal termination of Gaussian 16 at Wed Apr  9 02:18:01 2025.
