 Gaussian 16, Revision C.01,

 ----------------------------------------------------------------------
 #t hf aug-cc-pvdz symm=none int=(grid=ultrafine) guess=(read,tcheck) s
 table=(opt,rrhf)
 ----------------------------------------------------------------------
 -----
 title
 -----
 Symbolic Z-matrix:
 Charge =  0 Multiplicity = 1

 SCF Done:  E(RHF) =  -750.114002699     A.U. after   10 cycles
 Normal termination of Gaussian 16 at Wed Apr  9 02:18:00 2025.
 Gaussian 16:  ES64L-G16RevC.01  3-Jul-2019

 ----------------------------------------------------------------------
 #t hf aug-cc-pvdz iop(5/13=1,5/36=2,99/5=2) pseudo=read geom=check gue
 ss=(read,tcheck) scf=(maxcycle=1)
 ----------------------------------------------------------------------
 -----
 title
 -----
 Structure from the checkpoint file:  "CARBHB12_11_mol1.chk"
 Charge =  0 Multiplicity = 1

                         Standard orientation:
 ---------------------------------------------------------------------
 Center     Atomic      Atomic             Coordinates (Angstroms)
 Number     Number       Type             X           Y           Z
 ---------------------------------------------------------------------
      1         17           0        0.000000    0.000000    1.974710
      2          1           0        0.000000    0.000000    0.682190
      3         14           0       -0.000000    0.000000   -2.012416
      4          1           0       -0.000000    1.094704   -3.039219
      5          1           0       -0.000000   -1.094704   -3.039219
 ---------------------------------------------------------------------

 SCF Done:  E(RHF) =  -750.503649370     A.U. after    2 cycles

 The electronic state is 1-A1.
 Alpha  occ. eigenvalues --  -99.88844 -76.26633 -10.45996  -9.66127  -9.65202
 Alpha  occ. eigenvalues --   -9.65183  -5.59193  -2.20225  -2.19812  -2.16948
 Alpha  occ. eigenvalues --   -1.28445  -0.73620  -0.67561  -0.50967  -0.50961
 Alpha  occ. eigenvalues --   -0.46684  -0.32562
 Alpha virt. eigenvalues --    0.00324   0.03810   0.06228   0.06693   0.07609
 Alpha virt. eigenvalues --    0.09152   0.09666   0.11959   0.13300   0.14229
 Alpha virt. eigenvalues --    0.15201   0.15753   0.16725   0.18690   0.19535

 Mulliken charges:
               1
     1  Cl  -0.653772
     2  H    0.625215
     3  Si   2.519911
     4  H   -1.245677
     5  H   -1.245677
 Sum of Mulliken charges =   0.00000

 Dipole moment (field-independent basis, Debye):
    X=              0.0000    Y=              0.0000    Z=             -1.3671  Tot=              1.3671

 Test job not archived.
 1\1\GINC-SE029\SP\RHF\Aug-CC-pVDZ\Cl1H3Si1\OHZDE\09-Apr-2025\0\\#t hf
 aug-cc-pvdz iop(5/13=1,5/36=2,99/5=2) pseudo=read geom=check guess=(re
 ad,tcheck) scf=(maxcycle=1)\\title\\0,1\Cl,0,0.,0.,-3.0615009\H,0,0.,0
 .,-1.7689806\Si,0,0.,0.,0.9256255\H,0,1.0947042,0.,1.9524281\H,0,-1.09
 47042,0.,1.9524281\\Version=ES64L-G16RevC.01\State=1-A1\HF=-750.503649
 4\RMSD=8.732e-02\Dipole=0.,0.,0.5378684\Quadrupole=-0.4036271,3.395483
 5,-2.9918564,0.,0.,0.\PG=C02V [C2(Si1H1Cl1),SGV(H2)]\\@

 Normal termination of Gaussian 16 at Wed Apr  9 02:18:01 2025.
