 Gaussian 16, Revision C.01,

 ----------------------------------------------------------------------
 #t hf aug-cc-pvdz symm=none int=(grid=ultrafine) guess=(read,tcheck) s
 table=(opt,rrhf)
 ----------------------------------------------------------------------
 -----
 title
 -----
 Symbolic Z-matrix:
 Charge =  0 Multiplicity = 1

 SCF Done:  E(RHF) =  -460.090772818     A.U. after    9 cycles
 Normal termination of Gaussian 16 at Wed Apr  9 02:18:05 2025.
 Gaussian 16:  ES64L-G16RevC.01  3-Jul-2019

 ----------------------------------------------------------------------
 #t hf aug-cc-pvdz iop(5/13=1,5/36=2,99/5=2) pseudo=read geom=check gue
 ss=(read,tcheck) scf=(maxcycle=1)
 ----------------------------------------------------------------------
 -----
 title
 -----
 Structure from the checkpoint file:  "CARBHB12_9_mol2.chk"
 Charge =  0 Multiplicity = 1

                         Standard orientation:
 ---------------------------------------------------------------------
 Center     Atomic      Atomic             Coordinates (Angstroms)
 Number     Number       Type             X           Y           Z
 ---------------------------------------------------------------------
      1         17           0        0.000000    0.000000    0.074069
      2          1           0        0.000000    0.000000   -1.259180
 ---------------------------------------------------------------------

 SCF Done:  E(RHF) =  -460.344777706     A.U. after    2 cycles

 The electronic state is 1-SG.
 Alpha  occ. eigenvalues --  -99.91302 -10.48207  -9.68180  -9.67427  -9.67427
 Alpha  occ. eigenvalues --   -1.29705  -0.68464  -0.52699  -0.52699
 Alpha virt. eigenvalues --    0.02364   0.09917   0.12695   0.13082   0.13082
 Alpha virt. eigenvalues --    0.18738   0.25370   0.25370   0.33639   0.33639
 Alpha virt. eigenvalues --    0.40509   0.49916   0.49916   0.54262   0.83212

 Mulliken charges:
               1
     1  Cl  -0.458906
     2  H    0.458906
 Sum of Mulliken charges =  -0.00000

 Dipole moment (field-independent basis, Debye):
    X=              0.0000    Y=              0.0000    Z=             -0.8742  Tot=              0.8742

 Test job not archived.
 1\1\GINC-SE051\SP\RHF\Aug-CC-pVDZ\Cl1H1\OHZDE\09-Apr-2025\0\\#t hf aug
 -cc-pvdz iop(5/13=1,5/36=2,99/5=2) pseudo=read geom=check guess=(read,
 tcheck) scf=(maxcycle=1)\\title\\0,1\Cl,0,0.,0.,-0.6666246\H,0,0.,0.,0
 .6666246\\Version=ES64L-G16RevC.01\State=1-SG\HF=-460.3447777\RMSD=1.4
 39e-02\Dipole=0.,0.,0.3439554\Quadrupole=-1.0499635,-1.0499635,2.09992
 69,0.,0.,0.\PG=C*V [C*(H1Cl1)]\\@

 Normal termination of Gaussian 16 at Wed Apr  9 02:18:06 2025.
