 Gaussian 16, Revision C.01,

 ----------------------------------------------------------------------
 #t hf aug-cc-pvdz symm=none int=(grid=ultrafine) guess=(read,tcheck) s
 table=(opt,rrhf)
 ----------------------------------------------------------------------
 -----
 title
 -----
 Symbolic Z-matrix:
 Charge =  0 Multiplicity = 1

 SCF Done:  E(RHF) =  -996.982429430     A.U. after   15 cycles

 1\1\GINC-SE159\Stability\RHF\Aug-CC-pVDZ\C2H4Cl2\OHZDE\09-Apr-2025\0\\
 #t hf aug-cc-pvdz symm=none int=(grid=ultrafine) guess=(read,tcheck) s
 table=(opt,rrhf)\\title\\0,1\Cl,0,-3.0055463,0.0778996,-0.2213256\H,0,
 -1.6873101,0.2145761,-0.5134177\C,0,0.0445931,0.1443994,-0.634438\Cl,0
 ,0.9322718,-0.0402738,-2.0524845\C,0,0.8312174,-0.0460224,0.5861427\H,
 0,1.9142382,-0.1448977,0.4986257\H,0,0.5586967,0.746327,1.2901543\H,0,
 0.4118392,-0.9520083,1.046743\\Version=ES64L-G16RevC.01\HF=-996.982429
 4\RMSD=4.288e-09\Dipole=1.9463244,-0.077664,0.3635012\Quadrupole=-6.34

 Normal termination of Gaussian 16 at Wed Apr  9 02:17:35 2025.
 Gaussian 16:  ES64L-G16RevC.01  3-Jul-2019

 ----------------------------------------------------------------------
 #t hf aug-cc-pvdz iop(5/13=1,5/36=2,99/5=2) pseudo=read geom=check gue
 ss=(read,tcheck) scf=(maxcycle=1)
 ----------------------------------------------------------------------
 -----
 title
 -----
 Structure from the checkpoint file:  "CARBHB12_10_mol1.chk"
 Charge =  0 Multiplicity = 1

                         Standard orientation:
 ---------------------------------------------------------------------
 Center     Atomic      Atomic             Coordinates (Angstroms)
 Number     Number       Type             X           Y           Z
 ---------------------------------------------------------------------
      1         17           0       -2.474061   -0.215604    0.016286
      2          1           0       -1.132181   -0.114610   -0.159510
      3          6           0        0.561649    0.272264   -0.141458
      4         17           0        1.827274   -0.825546    0.019602
      5          6           0        0.965542    1.670453    0.022232
      6          1           0        2.029743    1.901655    0.088514
      7          1           0        0.478283    2.256506   -0.763158
      8          1           0        0.456391    1.999691    0.939406
 ---------------------------------------------------------------------

 SCF Done:  E(RHF) =  -997.870389606     A.U. after    2 cycles

 The electronic state is 1-A.
 Alpha  occ. eigenvalues --  -99.94586 -99.84744 -11.50041 -11.41848 -10.52164
 Alpha  occ. eigenvalues --  -10.41866  -9.72010  -9.71089  -9.70993  -9.61947
 Alpha  occ. eigenvalues --   -9.61218  -9.61187  -1.41275  -1.24564  -1.15377
 Alpha  occ. eigenvalues --   -0.86191  -0.69705  -0.63560  -0.62954  -0.62255
 Alpha  occ. eigenvalues --   -0.56481  -0.53398  -0.47841  -0.47807  -0.39605
 Alpha virt. eigenvalues --    0.00726   0.02523   0.05476   0.05998   0.06532
 Alpha virt. eigenvalues --    0.06683   0.09075   0.11565   0.12040   0.12842
 Alpha virt. eigenvalues --    0.13454   0.14564   0.14909   0.16624   0.17793

 Mulliken charges:
               1
     1  Cl  -0.888519
     2  H    1.177047
     3  C   -1.385186
     4  Cl  -0.109536
     5  C   -2.717999
     6  H    1.379066
     7  H    1.266351
     8  H    1.278775
 Sum of Mulliken charges =  -0.00000

 Dipole moment (field-independent basis, Debye):
    X=              4.1274    Y=              2.3752    Z=              0.0420  Tot=              4.7623

 Test job not archived.
 1\1\GINC-SE159\SP\RHF\Aug-CC-pVDZ\C2H4Cl2\OHZDE\09-Apr-2025\0\\#t hf a
 ug-cc-pvdz iop(5/13=1,5/36=2,99/5=2) pseudo=read geom=check guess=(rea
 d,tcheck) scf=(maxcycle=1)\\title\\0,1\Cl,0,-3.0055463,0.0778996,-0.22
 13256\H,0,-1.6873101,0.2145761,-0.5134177\C,0,0.0445931,0.1443994,-0.6
 34438\Cl,0,0.9322718,-0.0402738,-2.0524845\C,0,0.8312174,-0.0460224,0.
 5861427\H,0,1.9142382,-0.1448977,0.4986257\H,0,0.5586967,0.746327,1.29
 01543\H,0,0.4118392,-0.9520083,1.046743\\Version=ES64L-G16RevC.01\Stat
 e=1-A\HF=-997.8703896\RMSD=1.733e-01\Dipole=1.8237214,-0.0726963,0.423

 Normal termination of Gaussian 16 at Wed Apr  9 02:17:39 2025.
