 Gaussian 16, Revision C.01,

 ----------------------------------------------------------------------
 #t hf aug-cc-pvdz symm=none int=(grid=ultrafine) guess=(read,tcheck) s
 table=(opt,rrhf)
 ----------------------------------------------------------------------
 -----
 title
 -----
 Symbolic Z-matrix:
 Charge =  0 Multiplicity = 1

 SCF Done:  E(RHF) =  -536.884664983     A.U. after   15 cycles

 1\1\GINC-SE340\Stability\RHF\Aug-CC-pVDZ\C2H3Cl1\OHZDE\09-Apr-2025\0\\
 #t hf aug-cc-pvdz symm=none int=(grid=ultrafine) guess=(read,tcheck) s
 table=(opt,rrhf)\\title\\0,1\C,0,-0.7375496,0.1931454,-0.7568952\Cl,0,
 0.1501291,0.0084722,-2.1749417\C,0,0.0490747,0.0027236,0.4636855\H,0,1
 .1320954,-0.0961517,0.3761685\H,0,-0.223446,0.795073,1.1676971\H,0,-0.
 3703035,-0.9032624,0.9242858\\Version=ES64L-G16RevC.01\HF=-536.884665\
 RMSD=3.909e-09\Dipole=0.5496124,-0.1496347,0.6493553\Quadrupole=-1.832
 5228,1.4684245,0.3640982,0.7589781,-1.2964751,0.259254\PG=Unknown\\@

 Normal termination of Gaussian 16 at Wed Apr  9 02:17:31 2025.
 Gaussian 16:  ES64L-G16RevC.01  3-Jul-2019

 ----------------------------------------------------------------------
 #t hf aug-cc-pvdz iop(5/13=1,5/36=2,99/5=2) pseudo=read geom=check gue
 ss=(read,tcheck) scf=(maxcycle=1)
 ----------------------------------------------------------------------
 -----
 title
 -----
 Structure from the checkpoint file:  "CARBHB12_10_mol3.chk"
 Charge =  0 Multiplicity = 1

                         Standard orientation:
 ---------------------------------------------------------------------
 Center     Atomic      Atomic             Coordinates (Angstroms)
 Number     Number       Type             X           Y           Z
 ---------------------------------------------------------------------
      1          6           0       -0.433671   -0.689690   -0.008249
      2         17           0        1.053237    0.098955    0.000444
      3          6           0       -1.584732    0.215801   -0.007471
      4          1           0       -1.408202    1.283994   -0.142270
      5          1           0       -2.312225   -0.162750   -0.732157
      6          1           0       -2.074187    0.039852    0.961197
 ---------------------------------------------------------------------

 SCF Done:  E(RHF) =  -537.504552486     A.U. after    2 cycles

 The electronic state is 1-A.
 Alpha  occ. eigenvalues --  -99.91463 -11.45686 -11.39158 -10.49075  -9.68887
 Alpha  occ. eigenvalues --   -9.67982  -9.67919  -1.38092  -1.12512  -0.82598
 Alpha  occ. eigenvalues --   -0.63394  -0.60288  -0.59895  -0.53921  -0.50865
 Alpha  occ. eigenvalues --   -0.35913
 Alpha virt. eigenvalues --    0.03361   0.04151   0.06316   0.06519   0.07629
 Alpha virt. eigenvalues --    0.08365   0.12693   0.13063   0.13415   0.13992
 Alpha virt. eigenvalues --    0.15671   0.16246   0.18562   0.19577   0.20834

 Mulliken charges:
               1
     1  C   -1.497228
     2  Cl   0.098104
     3  C   -2.523705
     4  H    1.322472
     5  H    1.286746
     6  H    1.313611
 Sum of Mulliken charges =  -0.00000

 Dipole moment (field-independent basis, Debye):
    X=             -1.6471    Y=              1.3835    Z=              0.0286  Tot=              2.1512

 Test job not archived.
 1\1\GINC-SE340\SP\RHF\Aug-CC-pVDZ\C2H3Cl1\OHZDE\09-Apr-2025\0\\#t hf a
 ug-cc-pvdz iop(5/13=1,5/36=2,99/5=2) pseudo=read geom=check guess=(rea
 d,tcheck) scf=(maxcycle=1)\\title\\0,1\C,0,-0.7375496,0.1931454,-0.756
 8952\Cl,0,0.1501291,0.0084722,-2.1749417\C,0,0.0490747,0.0027236,0.463
 6855\H,0,1.1320954,-0.0961517,0.3761685\H,0,-0.223446,0.795073,1.16769
 71\H,0,-0.3703035,-0.9032624,0.9242858\\Version=ES64L-G16RevC.01\State
 =1-A\HF=-537.5045525\RMSD=1.756e-01\Dipole=0.4741301,-0.1251929,0.6898
 252\Quadrupole=-2.8817054,0.3980299,2.4836755,0.7135238,-0.4696758,-0.

 Normal termination of Gaussian 16 at Wed Apr  9 02:17:33 2025.
