 Gaussian 16, Revision C.01,

 ----------------------------------------------------------------------
 #t hf aug-cc-pvdz symm=none int=(grid=ultrafine) guess=(read,tcheck) s
 table=(opt,rrhf)
 ----------------------------------------------------------------------
 -----
 title
 -----
 Symbolic Z-matrix:
 Charge =  0 Multiplicity = 1

 SCF Done:  E(RHF) =  -536.885497831     A.U. after   15 cycles

 1\1\GINC-SE340\Stability\RHF\Aug-CC-pVDZ\C2H3Cl1\OHZDE\09-Apr-2025\0\\
 #t hf aug-cc-pvdz symm=none int=(grid=ultrafine) guess=(read,tcheck) s
 table=(opt,rrhf)\\title\\0,1\C,0,-0.7812762,0.1517281,-0.7419824\Cl,0,
 0.1322569,-0.0037532,-2.1651677\C,0,0.0535089,0.0161273,0.4601907\H,0,
 1.1401585,0.0053175,0.3540221\H,0,-0.2671755,0.7649204,1.1894818\H,0,-
 0.2774726,-0.9343402,0.9034555\\Version=ES64L-G16RevC.01\HF=-536.88549
 78\RMSD=4.484e-09\Dipole=0.5578732,-0.1127478,0.6680997\Quadrupole=-1.
 834272,1.5839882,0.2502838,0.5370869,-1.2621071,0.1570093\PG=Unknown\\

 Normal termination of Gaussian 16 at Wed Apr  9 02:18:00 2025.
 Gaussian 16:  ES64L-G16RevC.01  3-Jul-2019

 ----------------------------------------------------------------------
 #t hf aug-cc-pvdz iop(5/13=1,5/36=2,99/5=2) pseudo=read geom=check gue
 ss=(read,tcheck) scf=(maxcycle=1)
 ----------------------------------------------------------------------
 -----
 title
 -----
 Structure from the checkpoint file:  "CARBHB12_2_mol3.chk"
 Charge =  0 Multiplicity = 1

                         Standard orientation:
 ---------------------------------------------------------------------
 Center     Atomic      Atomic             Coordinates (Angstroms)
 Number     Number       Type             X           Y           Z
 ---------------------------------------------------------------------
      1          6           0       -0.440878   -0.712735   -0.010210
      2         17           0        1.049496    0.101419    0.000410
      3          6           0       -1.574278    0.223149   -0.009518
      4          1           0       -1.385408    1.286452   -0.170490
      5          1           0       -2.334215   -0.154399   -0.698972
      6          1           0       -2.030869    0.081337    0.980853
 ---------------------------------------------------------------------

 SCF Done:  E(RHF) =  -537.504316138     A.U. after    2 cycles

 The electronic state is 1-A.
 Alpha  occ. eigenvalues --  -99.91272 -11.46106 -11.39228 -10.48838  -9.68644
 Alpha  occ. eigenvalues --   -9.67783  -9.67711  -1.37681  -1.12475  -0.82511
 Alpha  occ. eigenvalues --   -0.63403  -0.60253  -0.59646  -0.53765  -0.50490
 Alpha  occ. eigenvalues --   -0.36447
 Alpha virt. eigenvalues --    0.03347   0.04121   0.06304   0.06480   0.07633
 Alpha virt. eigenvalues --    0.08346   0.12668   0.13058   0.13477   0.14082
 Alpha virt. eigenvalues --    0.15675   0.16298   0.18554   0.19387   0.20822

 Mulliken charges:
               1
     1  C   -1.481663
     2  Cl   0.106721
     3  C   -2.552199
     4  H    1.318813
     5  H    1.284870
     6  H    1.323458
 Sum of Mulliken charges =  -0.00000

 Dipole moment (field-independent basis, Debye):
    X=             -1.7039    Y=              1.3751    Z=              0.0295  Tot=              2.1897

 Test job not archived.
 1\1\GINC-SE340\SP\RHF\Aug-CC-pVDZ\C2H3Cl1\OHZDE\09-Apr-2025\0\\#t hf a
 ug-cc-pvdz iop(5/13=1,5/36=2,99/5=2) pseudo=read geom=check guess=(rea
 d,tcheck) scf=(maxcycle=1)\\title\\0,1\C,0,-0.7812762,0.1517281,-0.741
 9824\Cl,0,0.1322569,-0.0037532,-2.1651677\C,0,0.0535089,0.0161273,0.46
 01907\H,0,1.1401585,0.0053175,0.3540221\H,0,-0.2671755,0.7649204,1.189
 4818\H,0,-0.2774726,-0.9343402,0.9034555\\Version=ES64L-G16RevC.01\Sta
 te=1-A\HF=-537.5043161\RMSD=1.711e-01\Dipole=0.4796461,-0.0892862,0.71
 00517\Quadrupole=-2.8796355,0.4812425,2.398393,0.4929241,-0.4093382,-0

 Normal termination of Gaussian 16 at Wed Apr  9 02:18:02 2025.
