 Gaussian 16, Revision C.01,

 ----------------------------------------------------------------------
 #t hf aug-cc-pvdz symm=none int=(grid=ultrafine) guess=(read,tcheck) s
 table=(opt,rrhf)
 ----------------------------------------------------------------------
 -----
 title
 -----
 Symbolic Z-matrix:
 Charge =  0 Multiplicity = 1

 SCF Done:  E(RHF) =  -931.085717267     A.U. after   13 cycles
 Normal termination of Gaussian 16 at Wed Apr  9 02:23:24 2025.
 Gaussian 16:  ES64L-G16RevC.01  3-Jul-2019

 ----------------------------------------------------------------------
 #t hf aug-cc-pvdz iop(5/13=1,5/36=2,99/5=2) pseudo=read geom=check gue
 ss=(read,tcheck) scf=(maxcycle=1)
 ----------------------------------------------------------------------
 -----
 title
 -----
 Structure from the checkpoint file:  "CarbhydAroAA_42_mol3.chk"
 Charge =  0 Multiplicity = 1

                         Standard orientation:
 ---------------------------------------------------------------------
 Center     Atomic      Atomic             Coordinates (Angstroms)
 Number     Number       Type             X           Y           Z
 ---------------------------------------------------------------------
      1          6           0       -1.204582   -1.753413   -0.480968
      2          6           0       -1.823676   -0.610174    0.300427
      3          6           0       -1.120948    0.703125   -0.048523
      4          8           0       -1.657611    1.760491    0.775687
      5          1           0       -1.339931    1.699984    1.551042
      6          1           0       -1.279547    0.902632   -0.984540
      7          6           0        0.391989    0.592522    0.154781
      8         16           0        1.184582    2.063744   -0.487697
      9          1           0        1.413589    2.844848    0.398632
     10          1           0        0.599035    0.515055    1.098868
     11          6           0        0.905395   -0.657402   -0.570359
     12          1           0        0.778993   -0.488290   -1.517076
     13          6           0        2.385280   -0.926496   -0.267220
     14          1           0        2.914901   -0.142871   -0.481482
     15          8           0        2.546493   -1.262364    1.114389
     16          1           0        3.305991   -1.016611    1.375652
     17          1           0        2.711574   -1.650820   -0.824626
     18          8           0       -3.223464   -0.511316   -0.016051
     19          1           0       -3.326095   -0.004149   -0.678000
     20          1           0       -1.719886   -0.780757    1.249262
     21          1           0       -1.309330   -1.558106   -1.569633
     22          8           0        0.185315   -1.827079   -0.139740
     23          1           0       -1.709229   -2.707635   -0.218067
 ---------------------------------------------------------------------

 SCF Done:  E(RHF) =  -933.694967401     A.U. after    2 cycles

 The electronic state is 1-A.
 Alpha  occ. eigenvalues --  -75.68054 -21.09723 -21.09302 -21.09213 -21.05346
 Alpha  occ. eigenvalues --  -13.22521 -13.11602 -13.08327 -11.51267 -11.49529
 Alpha  occ. eigenvalues --  -11.47407 -11.46022 -11.43096 -11.40030  -8.03075
 Alpha  occ. eigenvalues --   -1.80597  -1.74796  -1.72542  -1.71604  -1.28380
 Alpha  occ. eigenvalues --   -1.16088  -1.10577  -1.02728  -0.94392  -0.90292
 Alpha  occ. eigenvalues --   -0.87096  -0.71223  -0.69643  -0.68157  -0.65862
 Alpha  occ. eigenvalues --   -0.63315  -0.59955  -0.59202  -0.57736  -0.55348
 Alpha  occ. eigenvalues --   -0.54325  -0.53050  -0.48619  -0.42867  -0.42417
 Alpha  occ. eigenvalues --   -0.40051  -0.39367  -0.36493  -0.33827  -0.32775
 Alpha  occ. eigenvalues --   -0.31241  -0.28254  -0.23889
 Alpha virt. eigenvalues --    0.03375   0.03935   0.04448   0.04967   0.05138
 Alpha virt. eigenvalues --    0.06035   0.06164   0.06514   0.07082   0.08285
 Alpha virt. eigenvalues --    0.08594   0.08869   0.10587   0.11242   0.12644

 Mulliken charges:
               1
     1  C   -2.045812
     2  C    1.196720
     3  C    1.892382
     4  O   -3.380334
     5  H    0.629397
     6  H    2.214818
     7  C   -2.971275
     8  S   -1.362685
     9  H    1.546146
    10  H    2.019115
    11  C    0.164412
    12  H    2.419443
    13  C   -1.937343
    14  H    1.708670
    15  O   -2.639142
    16  H    0.865386
    17  H    1.444800
    18  O   -3.282756
    19  H    0.672800
    20  H    1.789824
    21  H    1.451402
    22  O   -3.637849
    23  H    1.241880
 Sum of Mulliken charges =  -0.00000

 Dipole moment (field-independent basis, Debye):
    X=              1.2564    Y=              0.0002    Z=             -0.5684  Tot=              1.3790

 Test job not archived.
 1\1\GINC-SE455\SP\RHF\Aug-CC-pVDZ\C6H12O4S1\OHZDE\09-Apr-2025\0\\#t hf
  aug-cc-pvdz iop(5/13=1,5/36=2,99/5=2) pseudo=read geom=check guess=(r
 ead,tcheck) scf=(maxcycle=1)\\title\\0,1\C,0,16.648,9.354,77.806\C,0,1
 6.955,9.993,79.147\C,0,16.11,9.341,80.243\O,0,16.344,10.027,81.492\H,0
 ,15.93,10.758,81.492\H,0,16.37,8.41,80.325\C,0,14.621,9.38,79.891\S,0,
 13.706,8.403,81.08\H,0,13.22766,9.10707,81.93066\H,0,14.293,10.292,79.
 92\C,0,14.426,8.827,78.474\H,0,14.661,7.887,78.519\C,0,12.98,8.995,77.
 989\H,0,12.369,8.587,78.622\O,0,12.674,10.385,77.841\H,0,11.855,10.508

 Normal termination of Gaussian 16 at Wed Apr  9 02:23:40 2025.
