 Gaussian 16, Revision C.01,

 ----------------------------------------------------------------------
 #t hf aug-cc-pvdz symm=none int=(grid=ultrafine) guess=(read,tcheck) s
 table=(opt,rrhf)
 ----------------------------------------------------------------------
 -----
 title
 -----
 Symbolic Z-matrix:
 Charge =  0 Multiplicity = 1

 SCF Done:  E(RHF) =  -498.983597315     A.U. after   10 cycles

 1\1\GINC-SE029\Stability\RHF\Aug-CC-pVDZ\C1H3Cl1\OHZDE\09-Apr-2025\0\\
 #t hf aug-cc-pvdz symm=none int=(grid=ultrafine) guess=(read,tcheck) s
 table=(opt,rrhf)\\title\\0,1\Cl,0,0.,0.,-2.4361129\H,0,0.,0.,-1.102863
 8\C,0,0.,0.,0.7376197\H,0,0.8765006,0.,1.4006785\H,0,-0.8765006,0.,1.4
 006785\\Version=ES64L-G16RevC.01\HF=-498.9835973\RMSD=8.256e-09\Dipole
 =0.,0.,1.9499507\Quadrupole=1.2150186,1.5890282,-2.8040468,0.,0.,0.\PG
 =Unknown\\@
 The archive entry for this job was punched.

 Normal termination of Gaussian 16 at Wed Apr  9 02:18:05 2025.
 Gaussian 16:  ES64L-G16RevC.01  3-Jul-2019

 ----------------------------------------------------------------------
 #t hf aug-cc-pvdz iop(5/13=1,5/36=2,99/5=2) pseudo=read geom=check gue
 ss=(read,tcheck) scf=(maxcycle=1)
 ----------------------------------------------------------------------
 -----
 title
 -----
 Structure from the checkpoint file:  "CARBHB12_9_mol1.chk"
 Charge =  0 Multiplicity = 1

                         Standard orientation:
 ---------------------------------------------------------------------
 Center     Atomic      Atomic             Coordinates (Angstroms)
 Number     Number       Type             X           Y           Z
 ---------------------------------------------------------------------
      1         17           0       -0.000000   -0.000000    1.078816
      2          1           0        0.000000    0.000000   -0.254433
      3          6           0        0.000000    0.000000   -2.094916
      4          1           0        0.000000    0.876501   -2.757975
      5          1           0       -0.000000   -0.876501   -2.757975
 ---------------------------------------------------------------------

 SCF Done:  E(RHF) =  -499.409423206     A.U. after    2 cycles

 The electronic state is 1-A1.
 Alpha  occ. eigenvalues --  -99.85249 -11.46639 -10.42395  -9.62486  -9.61682
 Alpha  occ. eigenvalues --   -9.61661  -1.25135  -0.98612  -0.65936  -0.60275
 Alpha  occ. eigenvalues --   -0.48105  -0.48094  -0.41290
 Alpha virt. eigenvalues --    0.00874   0.01857   0.05380   0.07060   0.12515
 Alpha virt. eigenvalues --    0.13297   0.14466   0.14530   0.16642   0.17736
 Alpha virt. eigenvalues --    0.18495   0.23091   0.24796   0.25835   0.27847

 Mulliken charges:
               1
     1  Cl  -0.827625
     2  H    1.238869
     3  C   -2.888324
     4  H    1.238539
     5  H    1.238539
 Sum of Mulliken charges =  -0.00000

 Dipole moment (field-independent basis, Debye):
    X=             -0.0000    Y=              0.0000    Z=             -4.7405  Tot=              4.7405

 Test job not archived.
 1\1\GINC-SE029\SP\RHF\Aug-CC-pVDZ\C1H3Cl1\OHZDE\09-Apr-2025\0\\#t hf a
 ug-cc-pvdz iop(5/13=1,5/36=2,99/5=2) pseudo=read geom=check guess=(rea
 d,tcheck) scf=(maxcycle=1)\\title\\0,1\Cl,0,0.,0.,-2.4361129\H,0,0.,0.
 ,-1.1028638\C,0,0.,0.,0.7376197\H,0,0.8765006,0.,1.4006785\H,0,-0.8765
 006,0.,1.4006785\\Version=ES64L-G16RevC.01\State=1-A1\HF=-499.4094232\
 RMSD=4.650e-02\Dipole=0.,0.,1.8650568\Quadrupole=-2.4581147,-1.8986348
 ,4.3567495,0.,0.,0.\PG=C02V [C2(C1H1Cl1),SGV(H2)]\\@

 Normal termination of Gaussian 16 at Wed Apr  9 02:18:07 2025.
