 Gaussian 16, Revision C.01,

 ----------------------------------------------------------------------
 #t hf aug-cc-pvdz symm=none int=(grid=ultrafine) guess=(read,tcheck) s
 table=(opt,rrhf)
 ----------------------------------------------------------------------
 -----
 title
 -----
 Symbolic Z-matrix:
 Charge =  0 Multiplicity = 1

 SCF Done:  E(RHF) =  -707.181384604     A.U. after   13 cycles
 Normal termination of Gaussian 16 at Wed Apr  9 02:23:51 2025.
 Gaussian 16:  ES64L-G16RevC.01  3-Jul-2019

 ----------------------------------------------------------------------
 #t hf aug-cc-pvdz iop(5/13=1,5/36=2,99/5=2) pseudo=read geom=check gue
 ss=(read,tcheck) scf=(maxcycle=1)
 ----------------------------------------------------------------------
 -----
 title
 -----
 Structure from the checkpoint file:  "CarbhydAroAA_20_mol3.chk"
 Charge =  0 Multiplicity = 1

                         Standard orientation:
 ---------------------------------------------------------------------
 Center     Atomic      Atomic             Coordinates (Angstroms)
 Number     Number       Type             X           Y           Z
 ---------------------------------------------------------------------
      1          6           0       -0.727947   -1.421871   -0.145655
      2          8           0       -1.238356   -2.682763    0.200387
      3          1           0       -1.106322   -3.221337   -0.431135
      4          8           0        0.706682   -1.243539    0.031845
      5          6           0        1.274972    0.043693   -0.067805
      6          6           0        2.739752    0.134225    0.382272
      7          8           0        3.391725   -1.065264   -0.062247
      8          1           0        2.813938   -1.643625   -0.253120
      9          1           0        2.797423    0.218203    1.346378
     10          1           0        3.167740    0.918193    0.003011
     11          1           0        1.302761    0.128007   -1.033864
     12          6           0        0.420282    1.262193    0.177832
     13          8           0        0.982306    2.271907   -0.637009
     14          1           0        1.526382    2.725520   -0.186182
     15          1           0        0.443769    1.479317    1.123268
     16          6           0       -1.092956    1.099966   -0.019651
     17          1           0       -1.214331    1.104078   -0.982405
     18          8           0       -1.810702    2.230346    0.433787
     19          1           0       -1.326982    2.913758    0.370611
     20          1           0       -0.695327   -1.372572   -1.113617
     21          6           0       -1.711941   -0.271216    0.125134
     22          1           0       -1.881054   -0.320971    1.078944
     23          9           0       -3.054912   -0.455112   -0.263194
 ---------------------------------------------------------------------

 SCF Done:  E(RHF) =  -710.175655102     A.U. after    2 cycles

 The electronic state is 1-A.
 Alpha  occ. eigenvalues --  -29.27076 -21.13488 -21.13028 -21.11466 -21.09135
 Alpha  occ. eigenvalues --  -21.07281 -11.55675 -11.54093 -11.51748 -11.48986
 Alpha  occ. eigenvalues --  -11.46809 -11.42530  -1.85093  -1.79966  -1.75981
 Alpha  occ. eigenvalues --   -1.74803  -1.70554  -1.27771  -1.19116  -1.07192
 Alpha  occ. eigenvalues --   -0.98745  -0.96294  -0.88459  -0.75607  -0.74609
 Alpha  occ. eigenvalues --   -0.71661  -0.70788  -0.67658  -0.66126  -0.63237
 Alpha  occ. eigenvalues --   -0.59704  -0.58654  -0.55520  -0.55001  -0.53058
 Alpha  occ. eigenvalues --   -0.47019  -0.45804  -0.44930  -0.43960  -0.39397
 Alpha  occ. eigenvalues --   -0.38171  -0.35677  -0.34728  -0.33135  -0.31498
 Alpha  occ. eigenvalues --   -0.30888  -0.26045  -0.24704
 Alpha virt. eigenvalues --    0.03324   0.04093   0.04688   0.05390   0.05511
 Alpha virt. eigenvalues --    0.06163   0.06521   0.06902   0.07431   0.08305
 Alpha virt. eigenvalues --    0.08818   0.10824   0.11509   0.12507   0.13166

 Mulliken charges:
               1
     1  C    1.618594
     2  O   -3.029724
     3  H    0.597682
     4  O   -4.024101
     5  C    0.388678
     6  C   -1.037196
     7  O   -3.171440
     8  H    1.087985
     9  H    1.318586
    10  H    1.142192
    11  H    2.240619
    12  C    0.855572
    13  O   -3.323534
    14  H    0.734169
    15  H    2.032656
    16  C    1.154598
    17  H    1.599687
    18  O   -3.723184
    19  H    0.878591
    20  H    1.716986
    21  C   -1.551846
    22  H    2.137930
    23  F    0.356501
 Sum of Mulliken charges =  -0.00000

 Dipole moment (field-independent basis, Debye):
    X=             -0.8749    Y=              0.7028    Z=             -0.6876  Tot=              1.3161

 Test job not archived.
 1\1\GINC-SE338\SP\RHF\Aug-CC-pVDZ\C6H11F1O5\OHZDE\09-Apr-2025\0\\#t hf
  aug-cc-pvdz iop(5/13=1,5/36=2,99/5=2) pseudo=read geom=check guess=(r
 ead,tcheck) scf=(maxcycle=1)\\title\\0,1\C,0,134.77499,93.517,-20.046\
 O,0,134.518,92.335,-19.334\H,0,135.04201,92.283,-18.679\O,0,134.181,94
 .731,-19.503\C,0,134.188,95.92,-20.262\C,0,133.32001,97.05,-19.691\O,0
 ,133.464,97.011,-18.263\H,0,133.78301,96.269,-18.034\H,0,132.392,96.93
 1,-19.945\H,0,133.602,97.91,-20.041\H,0,135.103,96.201,-20.104\C,0,134
 .29601,95.85,-21.765\O,0,134.966,97.038,-22.138\H,0,134.40199,97.627,-

 Normal termination of Gaussian 16 at Wed Apr  9 02:24:08 2025.
