 Gaussian 16, Revision C.01,

 ----------------------------------------------------------------------
 #t hf aug-cc-pvdz symm=none int=(grid=ultrafine) guess=(read,tcheck) s
 table=(opt,rrhf)
 ----------------------------------------------------------------------
 -----
 title
 -----
 Symbolic Z-matrix:
 Charge =  0 Multiplicity = 1

 SCF Done:  E(RHF) =  -366.062332736     A.U. after   12 cycles

 1\1\GINC-SE252\Stability\RHF\Aug-CC-pVDZ\H4O1Si1\OHZDE\09-Apr-2025\0\\
 #t hf aug-cc-pvdz symm=none int=(grid=ultrafine) guess=(read,tcheck) s
 table=(opt,rrhf)\\title\\0,1\O,0,-2.2315426,-0.0184865,0.\H,0,-1.31099
 47,0.2590669,0.\H,0,-2.735532,0.7954934,0.\Si,0,1.4665347,-0.0547721,0
 .\H,0,2.4057673,-0.4906509,-1.0901298\H,0,2.4057673,-0.4906509,1.09012
 98\\Version=ES64L-G16RevC.01\HF=-366.0623327\RMSD=2.294e-09\Dipole=0.5
 915891,0.6164733,0.\Quadrupole=-1.2549579,2.3819995,-1.1270416,-2.0510
 399,0.,0.\PG=Unknown\\@

 Normal termination of Gaussian 16 at Wed Apr  9 02:18:00 2025.
 Gaussian 16:  ES64L-G16RevC.01  3-Jul-2019

 ----------------------------------------------------------------------
 #t hf aug-cc-pvdz iop(5/13=1,5/36=2,99/5=2) pseudo=read geom=check gue
 ss=(read,tcheck) scf=(maxcycle=1)
 ----------------------------------------------------------------------
 -----
 title
 -----
 Structure from the checkpoint file:  "CARBHB12_3_mol1.chk"
 Charge =  0 Multiplicity = 1

                         Standard orientation:
 ---------------------------------------------------------------------
 Center     Atomic      Atomic             Coordinates (Angstroms)
 Number     Number       Type             X           Y           Z
 ---------------------------------------------------------------------
      1          8           0        0.009319    2.364032    0.000000
      2          1           0       -0.277253    1.446252    0.000000
      3          1           0       -0.799677    2.875984    0.000000
      4         14           0        0.009319   -1.334223   -0.000000
      5          1           0        0.435961   -2.277687    1.090130
      6          1           0        0.435961   -2.277687   -1.090130
 ---------------------------------------------------------------------

 SCF Done:  E(RHF) =  -366.520984937     A.U. after    2 cycles

 The electronic state is 1-A'.
 Alpha  occ. eigenvalues --  -76.25916 -21.08428  -5.58444  -2.19405  -2.18984
 Alpha  occ. eigenvalues --   -2.16252  -1.64726  -0.72799  -0.62237  -0.45819
 Alpha  occ. eigenvalues --   -0.45326  -0.33988  -0.31414
 Alpha virt. eigenvalues --    0.00889   0.04166   0.05437   0.06169   0.08105
 Alpha virt. eigenvalues --    0.09537   0.09951   0.11625   0.13585   0.16946
 Alpha virt. eigenvalues --    0.17741   0.19318   0.19395   0.21800   0.23396

 Mulliken charges:
               1
     1  O   -1.901357
     2  H    1.167463
     3  H    0.816833
     4  Si   2.405581
     5  H   -1.244260
     6  H   -1.244260
 Sum of Mulliken charges =   0.00000

 Dipole moment (field-independent basis, Debye):
    X=             -1.1273    Y=             -0.2124    Z=              0.0000  Tot=              1.1471

 Test job not archived.
 1\1\GINC-SE252\SP\RHF\Aug-CC-pVDZ\H4O1Si1\OHZDE\09-Apr-2025\0\\#t hf a
 ug-cc-pvdz iop(5/13=1,5/36=2,99/5=2) pseudo=read geom=check guess=(rea
 d,tcheck) scf=(maxcycle=1)\\title\\0,1\O,0,-2.2315426,-0.0184865,0.\H,
 0,-1.3109947,0.2590669,0.\H,0,-2.735532,0.7954934,0.\Si,0,1.4665347,-0
 .0547721,0.\H,0,2.4057673,-0.4906509,-1.0901298\H,0,2.4057673,-0.49065
 09,1.0901298\\Version=ES64L-G16RevC.01\State=1-A'\HF=-366.5209849\RMSD
 =8.398e-02\Dipole=0.0878926,0.4426565,0.\Quadrupole=-2.2549705,3.22844
 41,-0.9734736,0.211095,0.,0.\PG=CS [SG(H2O1Si1),X(H2)]\\@

 Normal termination of Gaussian 16 at Wed Apr  9 02:18:02 2025.
