 Gaussian 16, Revision C.01,

 ----------------------------------------------------------------------
 #t hf aug-cc-pvdz symm=none int=(grid=ultrafine) guess=(read,tcheck) s
 table=(opt,rrhf)
 ----------------------------------------------------------------------
 -----
 title
 -----
 Symbolic Z-matrix:
 Charge =  0 Multiplicity = 1

 SCF Done:  E(RHF) =  -460.089016657     A.U. after    9 cycles
 Normal termination of Gaussian 16 at Wed Apr  9 02:17:31 2025.
 Gaussian 16:  ES64L-G16RevC.01  3-Jul-2019

 ----------------------------------------------------------------------
 #t hf aug-cc-pvdz iop(5/13=1,5/36=2,99/5=2) pseudo=read geom=check gue
 ss=(read,tcheck) scf=(maxcycle=1)
 ----------------------------------------------------------------------
 -----
 title
 -----
 Structure from the checkpoint file:  "CARBHB12_10_mol2.chk"
 Charge =  0 Multiplicity = 1

                         Standard orientation:
 ---------------------------------------------------------------------
 Center     Atomic      Atomic             Coordinates (Angstroms)
 Number     Number       Type             X           Y           Z
 ---------------------------------------------------------------------
      1         17           0        0.000000    0.000000    0.075395
      2          1           0        0.000000    0.000000   -1.281714
 ---------------------------------------------------------------------

 SCF Done:  E(RHF) =  -460.342610472     A.U. after    2 cycles

 The electronic state is 1-SG.
 Alpha  occ. eigenvalues --  -99.91409 -10.48224  -9.68159  -9.67479  -9.67479
 Alpha  occ. eigenvalues --   -1.29345  -0.67929  -0.52640  -0.52640
 Alpha virt. eigenvalues --    0.02216   0.09713   0.12503   0.13093   0.13093
 Alpha virt. eigenvalues --    0.18787   0.25332   0.25332   0.33686   0.33686
 Alpha virt. eigenvalues --    0.40409   0.49669   0.49669   0.54320   0.83175

 Mulliken charges:
               1
     1  Cl  -0.446919
     2  H    0.446919
 Sum of Mulliken charges =   0.00000

 Dipole moment (field-independent basis, Debye):
    X=             -0.0000    Y=             -0.0000    Z=             -0.9146  Tot=              0.9146

 Test job not archived.
 1\1\GINC-SE128\SP\RHF\Aug-CC-pVDZ\Cl1H1\OHZDE\09-Apr-2025\0\\#t hf aug
 -cc-pvdz iop(5/13=1,5/36=2,99/5=2) pseudo=read geom=check guess=(read,
 tcheck) scf=(maxcycle=1)\\title\\0,1\Cl,0,0.,0.,-0.6785546\H,0,0.,0.,0
 .6785546\\Version=ES64L-G16RevC.01\State=1-SG\HF=-460.3426105\RMSD=1.4
 11e-02\Dipole=0.,0.,0.3598194\Quadrupole=-1.0792421,-1.0792421,2.15848
 42,0.,0.,0.\PG=C*V [C*(H1Cl1)]\\@

 Normal termination of Gaussian 16 at Wed Apr  9 02:17:32 2025.
