 Gaussian 16, Revision C.01,

 ----------------------------------------------------------------------
 #t hf aug-cc-pvdz symm=none int=(grid=ultrafine) guess=(read,tcheck) s
 table=(opt,rrhf)
 ----------------------------------------------------------------------
 -----
 title
 -----
 Symbolic Z-matrix:
 Charge =  0 Multiplicity = 1

 SCF Done:  E(RHF) =  -593.093052400     A.U. after   15 cycles
 Normal termination of Gaussian 16 at Wed Apr  9 02:18:03 2025.
 Gaussian 16:  ES64L-G16RevC.01  3-Jul-2019

 ----------------------------------------------------------------------
 #t hf aug-cc-pvdz iop(5/13=1,5/36=2,99/5=2) pseudo=read geom=check gue
 ss=(read,tcheck) scf=(maxcycle=1)
 ----------------------------------------------------------------------
 -----
 title
 -----
 Structure from the checkpoint file:  "CARBHB12_6_mol1.chk"
 Charge =  0 Multiplicity = 1

                         Standard orientation:
 ---------------------------------------------------------------------
 Center     Atomic      Atomic             Coordinates (Angstroms)
 Number     Number       Type             X           Y           Z
 ---------------------------------------------------------------------
      1          7           0       -3.220353   -0.259060    0.028816
      2          1           0       -2.207913   -0.193947   -0.003222
      3          1           0       -3.510777   -0.644272   -0.859478
      4          1           0       -3.442800   -0.957181    0.724590
      5          6           0        0.152591    0.222163   -0.057417
      6         17           0        1.516683   -0.802181    0.002583
      7          6           0        0.548719    1.639285    0.007561
      8          1           0        1.605011    1.904786   -0.075401
      9          1           0       -0.056871    2.195173   -0.713612
     10          1           0        0.164361    1.977258    0.980635
 ---------------------------------------------------------------------

 SCF Done:  E(RHF) =  -593.998397529     A.U. after    2 cycles

 The electronic state is 1-A.
 Alpha  occ. eigenvalues --  -99.91891 -15.72095 -11.47629 -11.39753 -10.49426
 Alpha  occ. eigenvalues --   -9.69260  -9.68399  -9.68309  -1.38142  -1.22836
 Alpha  occ. eigenvalues --   -1.13025  -0.83164  -0.64165  -0.60718  -0.60221
 Alpha  occ. eigenvalues --   -0.58938  -0.58822  -0.54246  -0.50896  -0.38223
 Alpha  occ. eigenvalues --   -0.36345
 Alpha virt. eigenvalues --    0.03107   0.03486   0.05332   0.06216   0.06399
 Alpha virt. eigenvalues --    0.07108   0.07687   0.08075   0.11464   0.12953
 Alpha virt. eigenvalues --    0.13114   0.14714   0.15292   0.15736   0.18054

 Mulliken charges:
               1
     1  N   -2.148349
     2  H    0.961063
     3  H    0.570184
     4  H    0.581899
     5  C   -1.342827
     6  Cl   0.066770
     7  C   -2.692907
     8  H    1.352474
     9  H    1.322274
    10  H    1.329420
 Sum of Mulliken charges =   0.00000

 Dipole moment (field-independent basis, Debye):
    X=              1.6054    Y=              1.0548    Z=             -0.1428  Tot=              1.9262

 Test job not archived.
 1\1\GINC-SE365\SP\RHF\Aug-CC-pVDZ\C2H6Cl1N1\OHZDE\09-Apr-2025\0\\#t hf
  aug-cc-pvdz iop(5/13=1,5/36=2,99/5=2) pseudo=read geom=check guess=(r
 ead,tcheck) scf=(maxcycle=1)\\title\\0,1\N,0,-2.4871659,0.1746169,-0.1
 204509\H,0,-1.4936065,0.1249013,-0.3221195\H,0,-2.7954866,1.0883668,-0
 .423437\H,0,-2.9392636,-0.4917072,-0.7308413\C,0,0.8901512,-0.0150136,
 -0.5370216\Cl,0,1.9304756,-0.169816,-1.8814132\C,0,1.6355809,-0.130506
 1,0.7280366\H,0,2.7276874,-0.1356677,0.7079582\H,0,1.256034,0.6291129,
 1.4170683\H,0,1.2755937,-1.0742873,1.1622204\\Version=ES64L-G16RevC.01

 Normal termination of Gaussian 16 at Wed Apr  9 02:18:06 2025.
