 Gaussian 16, Revision C.01,

 ----------------------------------------------------------------------
 #t hf aug-cc-pvdz symm=none int=(grid=ultrafine) guess=(read,tcheck) s
 table=(opt,rrhf)
 ----------------------------------------------------------------------
 -----
 title
 -----
 Symbolic Z-matrix:
 Charge =  0 Multiplicity = 1

 SCF Done:  E(RHF) =  -346.224761813     A.U. after   12 cycles

 1\1\GINC-SE073\Stability\RHF\Aug-CC-pVDZ\H5N1Si1\OHZDE\09-Apr-2025\0\\
 #t hf aug-cc-pvdz symm=none int=(grid=ultrafine) guess=(read,tcheck) s
 table=(opt,rrhf)\\title\\0,1\N,0,-2.021816,0.0384296,-0.1370857\H,0,-1
 .0569167,0.3421306,-0.1534744\H,0,-2.5889661,0.8736855,-0.1772062\H,0,
 -2.17994,-0.3748521,0.7710586\Si,0,1.9938584,0.0138474,-0.0502141\H,0,
 2.874327,-0.3713375,-1.2095769\H,0,2.9794534,-0.5219035,0.9564988\\Ver
 sion=ES64L-G16RevC.01\HF=-346.2247618\RMSD=2.698e-09\Dipole=0.3508123,
 0.3324379,0.447327\Quadrupole=-0.5941292,1.614723,-1.0205938,-0.309846

 Normal termination of Gaussian 16 at Wed Apr  9 02:18:00 2025.
 Gaussian 16:  ES64L-G16RevC.01  3-Jul-2019

 ----------------------------------------------------------------------
 #t hf aug-cc-pvdz iop(5/13=1,5/36=2,99/5=2) pseudo=read geom=check gue
 ss=(read,tcheck) scf=(maxcycle=1)
 ----------------------------------------------------------------------
 -----
 title
 -----
 Structure from the checkpoint file:  "CARBHB12_7_mol1.chk"
 Charge =  0 Multiplicity = 1

                         Standard orientation:
 ---------------------------------------------------------------------
 Center     Atomic      Atomic             Coordinates (Angstroms)
 Number     Number       Type             X           Y           Z
 ---------------------------------------------------------------------
      1          7           0        2.550283   -0.059699   -0.114198
      2          1           0        1.600150   -0.167568    0.216172
      3          1           0        3.154708   -0.321608    0.651959
      4          1           0        2.692414    0.928314   -0.269635
      5         14           0       -1.462046   -0.006819    0.065260
      6          1           0       -2.362914   -1.024639   -0.582963
      7          1           0       -2.467693    1.098862   -0.129784
 ---------------------------------------------------------------------

 SCF Done:  E(RHF) =  -346.641039532     A.U. after    2 cycles

 The electronic state is 1-A.
 Alpha  occ. eigenvalues --  -76.25378 -15.73573  -5.57887  -2.18782  -2.18399
 Alpha  occ. eigenvalues --   -2.15714  -1.24124  -0.72208  -0.60253  -0.60162
 Alpha  occ. eigenvalues --   -0.45244  -0.38064  -0.30929
 Alpha virt. eigenvalues --    0.01189   0.03964   0.05336   0.05933   0.07415
 Alpha virt. eigenvalues --    0.08151   0.09677   0.10395   0.11243   0.13808
 Alpha virt. eigenvalues --    0.16843   0.17246   0.19193   0.19446   0.20462

 Mulliken charges:
               1
     1  N   -2.008063
     2  H    0.843930
     3  H    0.617591
     4  H    0.624267
     5  Si   2.389035
     6  H   -1.218722
     7  H   -1.248039
 Sum of Mulliken charges =  -0.00000

 Dipole moment (field-independent basis, Debye):
    X=              0.1579    Y=              0.6489    Z=              1.3365  Tot=              1.4941

 Test job not archived.
 1\1\GINC-SE073\SP\RHF\Aug-CC-pVDZ\H5N1Si1\OHZDE\09-Apr-2025\0\\#t hf a
 ug-cc-pvdz iop(5/13=1,5/36=2,99/5=2) pseudo=read geom=check guess=(rea
 d,tcheck) scf=(maxcycle=1)\\title\\0,1\N,0,-2.021816,0.0384296,-0.1370
 857\H,0,-1.0569167,0.3421306,-0.1534744\H,0,-2.5889661,0.8736855,-0.17
 72062\H,0,-2.17994,-0.3748521,0.7710586\Si,0,1.9938584,0.0138474,-0.05
 02141\H,0,2.874327,-0.3713375,-1.2095769\H,0,2.9794534,-0.5219035,0.95
 64988\\Version=ES64L-G16RevC.01\State=1-A\HF=-346.6410395\RMSD=7.310e-
 02\Dipole=-0.0409485,0.4381217,0.389745\Quadrupole=-2.6017743,2.851336

 Normal termination of Gaussian 16 at Wed Apr  9 02:18:02 2025.
