 Gaussian 16, Revision C.01,

 ----------------------------------------------------------------------
 #t hf aug-cc-pvdz symm=none int=(grid=ultrafine) guess=(read,tcheck) s
 table=(opt,rrhf)
 ----------------------------------------------------------------------
 -----
 title
 -----
 Symbolic Z-matrix:
 Charge =  0 Multiplicity = 1

 SCF Done:  E(RHF) =  -707.192816440     A.U. after   13 cycles
 Normal termination of Gaussian 16 at Wed Apr  9 02:23:54 2025.
 Gaussian 16:  ES64L-G16RevC.01  3-Jul-2019

 ----------------------------------------------------------------------
 #t hf aug-cc-pvdz iop(5/13=1,5/36=2,99/5=2) pseudo=read geom=check gue
 ss=(read,tcheck) scf=(maxcycle=1)
 ----------------------------------------------------------------------
 -----
 title
 -----
 Structure from the checkpoint file:  "CarbhydAroAA_21_mol3.chk"
 Charge =  0 Multiplicity = 1

                         Standard orientation:
 ---------------------------------------------------------------------
 Center     Atomic      Atomic             Coordinates (Angstroms)
 Number     Number       Type             X           Y           Z
 ---------------------------------------------------------------------
      1          6           0       -0.690475   -1.458234   -0.237535
      2          1           0       -0.728653   -1.470036   -1.206921
      3          8           0        0.719610   -1.249236   -0.152266
      4          6           0        1.284857    0.103839   -0.147314
      5          1           0        1.376595    0.302106   -1.092231
      6          6           0        0.387581    1.317549    0.161161
      7          8           0        0.788983    2.484573   -0.586901
      8          1           0        1.370006    2.909237   -0.153846
      9          1           0        0.534954    1.483335    1.105027
     10          6           0       -1.119483    1.072374    0.050100
     11          1           0       -1.116018    1.160894   -0.915635
     12          8           0       -1.979975    2.085792    0.421567
     13          1           0       -1.551446    2.803680    0.498434
     14          6           0        2.700281    0.112801    0.506358
     15          1           0        3.126890    0.974358    0.376454
     16          8           0        3.481279   -0.927741   -0.097979
     17          1           0        2.974247   -1.547593   -0.350728
     18          1           0        2.631664   -0.028869    1.463650
     19          6           0       -1.669896   -0.339647    0.130014
     20          9           0       -2.951111   -0.625119   -0.294922
     21          1           0       -1.787616   -0.328189    1.092935
     22          8           0       -1.138506   -2.669003    0.287743
     23          1           0       -0.598923   -3.280017    0.083130
 ---------------------------------------------------------------------

 SCF Done:  E(RHF) =  -710.184067258     A.U. after    2 cycles

 The electronic state is 1-A.
 Alpha  occ. eigenvalues --  -29.26782 -21.13676 -21.12000 -21.11518 -21.09765
 Alpha  occ. eigenvalues --  -21.07295 -11.55308 -11.53297 -11.50893 -11.49022
 Alpha  occ. eigenvalues --  -11.46114 -11.42862  -1.84533  -1.79709  -1.76349
 Alpha  occ. eigenvalues --   -1.74645  -1.69959  -1.27350  -1.19473  -1.07207
 Alpha  occ. eigenvalues --   -0.98002  -0.96519  -0.87535  -0.76192  -0.74258
 Alpha  occ. eigenvalues --   -0.72041  -0.70351  -0.66277  -0.66121  -0.62843
 Alpha  occ. eigenvalues --   -0.59863  -0.58516  -0.55612  -0.54838  -0.53777
 Alpha  occ. eigenvalues --   -0.47039  -0.46403  -0.45334  -0.43577  -0.39833
 Alpha  occ. eigenvalues --   -0.37495  -0.35681  -0.34565  -0.33248  -0.31616
 Alpha  occ. eigenvalues --   -0.31006  -0.25313  -0.24502
 Alpha virt. eigenvalues --    0.03308   0.04031   0.04701   0.05376   0.05689
 Alpha virt. eigenvalues --    0.05990   0.06227   0.06805   0.07346   0.08201
 Alpha virt. eigenvalues --    0.08586   0.11245   0.11741   0.12518   0.12932

 Mulliken charges:
               1
     1  C    2.472759
     2  H    1.476449
     3  O   -4.025809
     4  C    0.329597
     5  H    1.669680
     6  C    0.535581
     7  O   -3.253701
     8  H    0.768161
     9  H    2.068777
    10  C    1.363002
    11  H    1.413866
    12  O   -3.835199
    13  H    0.816805
    14  C   -0.924867
    15  H    1.286826
    16  O   -3.072193
    17  H    1.088274
    18  H    1.385287
    19  C   -1.488927
    20  F    0.307673
    21  H    2.024871
    22  O   -3.286759
    23  H    0.879848
 Sum of Mulliken charges =  -0.00000

 Dipole moment (field-independent basis, Debye):
    X=             -0.3490    Y=              0.5504    Z=             -0.1029  Tot=              0.6598

 Test job not archived.
 1\1\GINC-SE402\SP\RHF\Aug-CC-pVDZ\C6H11F1O5\OHZDE\09-Apr-2025\0\\#t hf
  aug-cc-pvdz iop(5/13=1,5/36=2,99/5=2) pseudo=read geom=check guess=(r
 ead,tcheck) scf=(maxcycle=1)\\title\\0,1\C,0,105.135,88.708,3.523\H,0,
 104.71,89.369,4.092\O,0,106.446,88.875,4.064\C,0,106.89,88.097,5.225\H
 ,0,106.582,88.632,5.973\C,0,106.128,86.825,5.643\O,0,106.129,86.646,7.
 075\H,0,106.811,86.212,7.303\H,0,106.634,86.105,5.236\C,0,104.72,86.67
 5,5.061\H,0,104.329,87.276,5.714\O,0,104.028,85.506,5.306\H,0,104.411,
 85.076,5.917\C,0,108.446,88.013,5.276\H,0,108.736,87.626,6.117\O,0,108

 Normal termination of Gaussian 16 at Wed Apr  9 02:24:10 2025.
