 Gaussian 16, Revision C.01,

 ----------------------------------------------------------------------
 #t hf aug-cc-pvdz symm=none int=(grid=ultrafine) guess=(read,tcheck) s
 table=(opt,rrhf)
 ----------------------------------------------------------------------
 -----
 title
 -----
 Symbolic Z-matrix:
 Charge =  0 Multiplicity = 1

 SCF Done:  E(RHF) =  -762.981501144     A.U. after   13 cycles
 Normal termination of Gaussian 16 at Wed Apr  9 02:18:54 2025.
 Gaussian 16:  ES64L-G16RevC.01  3-Jul-2019

 ----------------------------------------------------------------------
 #t hf aug-cc-pvdz iop(5/13=1,5/36=2,99/5=2) pseudo=read geom=check gue
 ss=(read,tcheck) scf=(maxcycle=1)
 ----------------------------------------------------------------------
 -----
 title
 -----
 Structure from the checkpoint file:  "CARBHB12_12_mol1.chk"
 Charge =  0 Multiplicity = 1

                         Standard orientation:
 ---------------------------------------------------------------------
 Center     Atomic      Atomic             Coordinates (Angstroms)
 Number     Number       Type             X           Y           Z
 ---------------------------------------------------------------------
      1          6           0        0.106058   -0.164759    0.105110
      2          6           0        1.894499    1.208926   -0.064649
      3          6           0        2.359268   -0.055536   -0.070191
      4          7           0        1.252348   -0.870772    0.019428
      5          7           0        0.525280    1.112995    0.027043
      6          1           0        2.420898    2.148569   -0.118414
      7          1           0        3.369586   -0.428921   -0.130789
      8          6           0        1.311881   -2.312352    0.028165
      9          6           0       -0.371028    2.244410    0.046245
     10          1           0        1.800988   -2.689786   -0.871072
     11          1           0        1.857982   -2.675587    0.899683
     12          1           0        0.296580   -2.696226    0.062017
     13          1           0       -0.185379    2.868965    0.919864
     14          1           0       -0.253194    2.846471   -0.854687
     15          1           0       -1.393632    1.877969    0.086485
     16         17           0       -2.972271   -0.473624   -0.043753
     17          1           0       -1.632692   -0.419536    0.157340
 ---------------------------------------------------------------------

 SCF Done:  E(RHF) =  -764.708128443     A.U. after    2 cycles

 The electronic state is 1-A.
 Alpha  occ. eigenvalues --  -99.83156 -15.78544 -15.78331 -11.47682 -11.42117
 Alpha  occ. eigenvalues --  -11.41317 -11.40677 -11.38391 -10.40324  -9.60459
 Alpha  occ. eigenvalues --   -9.59795  -9.59649  -1.61700  -1.38137  -1.23168
 Alpha  occ. eigenvalues --   -1.14440  -1.06352  -0.99422  -0.83735  -0.78739
 Alpha  occ. eigenvalues --   -0.72939  -0.67215  -0.64253  -0.62350  -0.61912
 Alpha  occ. eigenvalues --   -0.60566  -0.56553  -0.53979  -0.52397  -0.51097
 Alpha  occ. eigenvalues --   -0.46479  -0.46453  -0.37558  -0.37200  -0.32529
 Alpha virt. eigenvalues --    0.02819   0.04399   0.04870   0.05314   0.05467
 Alpha virt. eigenvalues --    0.06481   0.07514   0.08291   0.08961   0.10249
 Alpha virt. eigenvalues --    0.10699   0.11462   0.12224   0.12487   0.13018

 Mulliken charges:
               1
     1  C    1.636016
     2  C    0.482437
     3  C    0.222420
     4  N   -3.631989
     5  N   -3.648521
     6  H    1.373784
     7  H    1.364821
     8  C   -3.323251
     9  C   -3.315481
    10  H    1.417591
    11  H    1.451284
    12  H    1.575179
    13  H    1.431330
    14  H    1.401768
    15  H    1.532899
    16  Cl  -0.931484
    17  H    0.961198
 Sum of Mulliken charges =   0.00000

 Dipole moment (field-independent basis, Debye):
    X=              6.3337    Y=              1.2249    Z=             -0.0725  Tot=              6.4514

 Test job not archived.
 1\1\GINC-SE115\SP\RHF\Aug-CC-pVDZ\C5H9Cl1N2\OHZDE\09-Apr-2025\0\\#t hf
  aug-cc-pvdz iop(5/13=1,5/36=2,99/5=2) pseudo=read geom=check guess=(r
 ead,tcheck) scf=(maxcycle=1)\\title\\0,1\C,0,-0.0923972,-0.090821,-0.5
 581819\C,0,0.0818928,0.6858239,1.5586069\C,0,0.0601558,-0.659471,1.626
 5329\N,0,-0.0316562,-1.1070769,0.326867\N,0,0.0035018,1.0028629,0.2223
 02\H,0,0.1463878,1.4253789,2.3407929\H,0,0.1031438,-1.3172889,2.480499
 9\C,0,-0.0663492,-2.5007778,-0.0448429\C,0,0.0139618,2.3496258,-0.2972
 709\H,0,0.8207238,-3.0243948,0.314651\H,0,-0.9500261,-2.9923398,0.3640

 Normal termination of Gaussian 16 at Wed Apr  9 02:19:01 2025.
