 Gaussian 16, Revision C.01,

 ----------------------------------------------------------------------
 #t hf aug-cc-pvdz symm=none int=(grid=ultrafine) guess=(read,tcheck) s
 table=(opt,rrhf)
 ----------------------------------------------------------------------
 -----
 title
 -----
 Symbolic Z-matrix:
 Charge =  0 Multiplicity = 1

 SCF Done:  E(RHF) =  -1491.82019233     A.U. after   12 cycles
 Normal termination of Gaussian 16 at Wed Apr  9 02:20:36 2025.
 Gaussian 16:  ES64L-G16RevC.01  3-Jul-2019

 ----------------------------------------------------------------------
 #t hf aug-cc-pvdz iop(5/13=1,5/36=2,99/5=2) pseudo=read geom=check gue
 ss=(read,tcheck) scf=(maxcycle=1)
 ----------------------------------------------------------------------
 -----
 title
 -----
 Structure from the checkpoint file:  "Cl-set_ccl3oh_ccl3oh_090_dimer_mol2.chk"
 Charge =  0 Multiplicity = 1

                         Standard orientation:
 ---------------------------------------------------------------------
 Center     Atomic      Atomic             Coordinates (Angstroms)
 Number     Number       Type             X           Y           Z
 ---------------------------------------------------------------------
      1          6           0       -0.025299   -0.000149    0.284450
      2          8           0       -0.084819   -0.001278    1.630350
      3          1           0        0.806691    0.009247    1.989580
      4         17           0        0.862677   -1.438824   -0.333550
      5         17           0       -1.682050   -0.023862   -0.317780
      6         17           0        0.820765    1.462796   -0.333320
 ---------------------------------------------------------------------

 SCF Done:  E(RHF) =  -1493.03597714     A.U. after    2 cycles

 The electronic state is 1-A.
 Alpha  occ. eigenvalues --  -99.91986 -99.91777 -99.91756 -21.14803 -11.58838
 Alpha  occ. eigenvalues --  -10.49545 -10.49219 -10.49110  -9.69383  -9.69106
 Alpha  occ. eigenvalues --   -9.68862  -9.68442  -9.68431  -9.68247  -9.68197
 Alpha  occ. eigenvalues --   -9.68165  -9.68116  -1.83498  -1.41539  -1.31734
 Alpha  occ. eigenvalues --   -1.31147  -0.96092  -0.76921  -0.73772  -0.70772
 Alpha  occ. eigenvalues --   -0.59219  -0.57793  -0.54612  -0.51666  -0.51315
 Alpha  occ. eigenvalues --   -0.50368  -0.48124  -0.40439
 Alpha virt. eigenvalues --   -0.00288   0.03698   0.06218   0.06829   0.07673
 Alpha virt. eigenvalues --    0.09638   0.09763   0.12954   0.14096   0.14140
 Alpha virt. eigenvalues --    0.15107   0.16698   0.17295   0.18267   0.18646

 Mulliken charges:
               1
     1  C   -0.201521
     2  O   -2.370852
     3  H    0.973371
     4  Cl   0.528611
     5  Cl   0.541320
     6  Cl   0.529072
 Sum of Mulliken charges =   0.00000

 Dipole moment (field-independent basis, Debye):
    X=              0.1570    Y=              0.0025    Z=              2.0050  Tot=              2.0111

 Test job not archived.
 1\1\GINC-SE252\SP\RHF\Aug-CC-pVDZ\C1H1Cl3O1\OHZDE\09-Apr-2025\0\\#t hf
  aug-cc-pvdz iop(5/13=1,5/36=2,99/5=2) pseudo=read geom=check guess=(r
 ead,tcheck) scf=(maxcycle=1)\\title\\0,1\C,0,-0.0253,-0.00015,0.28445\
 O,0,-0.08482,-0.00128,1.63035\H,0,0.80669,0.00926,1.98958\Cl,0,0.8627,
 -1.43881,-0.33355\Cl,0,-1.68205,-0.02389,-0.31778\Cl,0,0.82074,1.46281
 ,-0.33332\\Version=ES64L-G16RevC.01\State=1-A\HF=-1493.0359771\RMSD=5.
 428e-02\Dipole=0.061779,0.0009861,0.7888098\Quadrupole=0.3874483,-1.68
 62999,1.2988516,0.0288436,2.0790331,0.0246039\PG=C01 [X(C1H1Cl3O1)]\\@

 Normal termination of Gaussian 16 at Wed Apr  9 02:20:38 2025.
