 Gaussian 16, Revision C.01,

 ----------------------------------------------------------------------
 #t hf aug-cc-pvdz symm=none int=(grid=ultrafine) guess=(read,tcheck) s
 table=(opt,rrhf)
 ----------------------------------------------------------------------
 -----
 title
 -----
 Symbolic Z-matrix:
 Charge =  0 Multiplicity = 1

 SCF Done:  E(RHF) =  -1913.70569261     A.U. after   11 cycles
 Normal termination of Gaussian 16 at Wed Apr  9 02:20:37 2025.
 Gaussian 16:  ES64L-G16RevC.01  3-Jul-2019

 ----------------------------------------------------------------------
 #t hf aug-cc-pvdz iop(5/13=1,5/36=2,99/5=2) pseudo=read geom=check gue
 ss=(read,tcheck) scf=(maxcycle=1)
 ----------------------------------------------------------------------
 -----
 title
 -----
 Structure from the checkpoint file:  "Cl-set_c2cl4_c2cl4_090_dimer_mol2.chk"
 Charge =  0 Multiplicity = 1

                         Standard orientation:
 ---------------------------------------------------------------------
 Center     Atomic      Atomic             Coordinates (Angstroms)
 Number     Number       Type             X           Y           Z
 ---------------------------------------------------------------------
      1          6           0        0.000000    0.667040   -0.000157
      2          6           0       -0.000000   -0.667040   -0.000157
      3         17           0        0.000000   -1.585100    1.446413
      4         17           0        0.000000    1.585100    1.446413
      5         17           0        0.000000    1.585730   -1.446357
      6         17           0       -0.000000   -1.585730   -1.446357
 ---------------------------------------------------------------------

 SCF Done:  E(RHF) =  -1915.03763028     A.U. after    2 cycles

 The electronic state is 1-A1.
 Alpha  occ. eigenvalues --  -99.93113 -99.93101 -99.93081 -99.93078 -11.53529
 Alpha  occ. eigenvalues --  -11.49435 -10.50739 -10.50729 -10.50496 -10.50441
 Alpha  occ. eigenvalues --   -9.70644  -9.70599  -9.70498  -9.70121  -9.69730
 Alpha  occ. eigenvalues --   -9.69675  -9.69468  -9.69467  -9.69444  -9.69427
 Alpha  occ. eigenvalues --   -9.69367  -9.69338  -1.49765  -1.39083  -1.33064
 Alpha  occ. eigenvalues --   -1.31923  -1.09823  -0.87219  -0.74360  -0.74061
 Alpha  occ. eigenvalues --   -0.67344  -0.62621  -0.59766  -0.56678  -0.55631
 Alpha  occ. eigenvalues --   -0.54918  -0.54819  -0.54244  -0.50054  -0.38978
 Alpha virt. eigenvalues --    0.03144   0.04043   0.04090   0.04674   0.05464
 Alpha virt. eigenvalues --    0.08590   0.08675   0.09904   0.12110   0.12405
 Alpha virt. eigenvalues --    0.14181   0.14231   0.15239   0.16357   0.17115

 Mulliken charges:
               1
     1  C    0.012210
     2  C    0.012210
     3  Cl  -0.006302
     4  Cl  -0.006302
     5  Cl  -0.005908
     6  Cl  -0.005908
 Sum of Mulliken charges =  -0.00000

 Dipole moment (field-independent basis, Debye):
    X=             -0.0000    Y=             -0.0000    Z=             -0.0003  Tot=              0.0003

 Test job not archived.
 1\1\GINC-SE015\SP\RHF\Aug-CC-pVDZ\C2Cl4\OHZDE\09-Apr-2025\0\\#t hf aug
 -cc-pvdz iop(5/13=1,5/36=2,99/5=2) pseudo=read geom=check guess=(read,
 tcheck) scf=(maxcycle=1)\\title\\0,1\C,0,0.,0.66704,0.00016\C,0,0.,-0.
 66704,0.00016\Cl,0,0.,-1.5851,-1.44641\Cl,0,0.,1.5851,-1.44641\Cl,0,0.
 ,1.58573,1.44636\Cl,0,0.,-1.58573,1.44636\\Version=ES64L-G16RevC.01\St
 ate=1-A1\HF=-1915.0376303\RMSD=5.407e-01\Dipole=0.,0.,0.0001317\Quadru
 pole=-2.9185092,0.1803791,2.7381302,0.,0.,0.\PG=C02V [SGV(C2Cl4)]\\@

 Normal termination of Gaussian 16 at Wed Apr  9 02:20:39 2025.
