 Gaussian 16, Revision C.01,

 ----------------------------------------------------------------------
 #t hf aug-cc-pvdz symm=none int=(grid=ultrafine) guess=(read,tcheck) s
 table=(opt,rrhf)
 ----------------------------------------------------------------------
 -----
 title
 -----
 Symbolic Z-matrix:
 Charge =  0 Multiplicity = 1

 SCF Done:  E(RHF) =  -1875.85073382     A.U. after   10 cycles
 Normal termination of Gaussian 16 at Wed Apr  9 02:20:35 2025.
 Gaussian 16:  ES64L-G16RevC.01  3-Jul-2019

 ----------------------------------------------------------------------
 #t hf aug-cc-pvdz iop(5/13=1,5/36=2,99/5=2) pseudo=read geom=check gue
 ss=(read,tcheck) scf=(maxcycle=1)
 ----------------------------------------------------------------------
 -----
 title
 -----
 Structure from the checkpoint file:  "Cl-set_c6h6_ccl4_090_dimer_mol3.chk"
 Charge =  0 Multiplicity = 1

                         Standard orientation:
 ---------------------------------------------------------------------
 Center     Atomic      Atomic             Coordinates (Angstroms)
 Number     Number       Type             X           Y           Z
 ---------------------------------------------------------------------
      1          6           0        0.000000    0.000000    0.000000
      2         17           0        1.022350    1.022350    1.022350
      3         17           0       -1.022350   -1.022350    1.022350
      4         17           0        1.022350   -1.022350   -1.022350
      5         17           0       -1.022350    1.022350   -1.022350
 ---------------------------------------------------------------------

 SCF Done:  E(RHF) =  -1877.00585578     A.U. after    2 cycles

 The electronic state is 1-A1.
 Alpha  occ. eigenvalues --  -99.93013 -99.93013 -99.93013 -99.92974 -11.59543
 Alpha  occ. eigenvalues --  -10.50739 -10.50362 -10.50362 -10.50362  -9.70363
 Alpha  occ. eigenvalues --   -9.70363  -9.70363  -9.69947  -9.69490  -9.69490
 Alpha  occ. eigenvalues --   -9.69490  -9.69367  -9.69367  -9.69367  -9.69308
 Alpha  occ. eigenvalues --   -9.69308  -1.51140  -1.32539  -1.32539  -1.32539
 Alpha  occ. eigenvalues --   -0.98201  -0.74769  -0.74769  -0.74769  -0.60069
 Alpha  occ. eigenvalues --   -0.60069  -0.53231  -0.53231  -0.53231  -0.51233
 Alpha  occ. eigenvalues --   -0.51233  -0.51233
 Alpha virt. eigenvalues --   -0.03293   0.04483   0.04483   0.04483   0.04786
 Alpha virt. eigenvalues --    0.09413   0.09413   0.09413   0.14324   0.14324
 Alpha virt. eigenvalues --    0.15766   0.15766   0.15766   0.18111   0.18111

 Mulliken charges:
               1
     1  C   -3.141928
     2  Cl   0.785482
     3  Cl   0.785482
     4  Cl   0.785482
     5  Cl   0.785482
 Sum of Mulliken charges =  -0.00000

 Dipole moment (field-independent basis, Debye):
    X=              0.0000    Y=             -0.0000    Z=             -0.0000  Tot=              0.0000

 Test job not archived.
 1\1\GINC-SE029\SP\RHF\Aug-CC-pVDZ\C1Cl4\OHZDE\09-Apr-2025\0\\#t hf aug
 -cc-pvdz iop(5/13=1,5/36=2,99/5=2) pseudo=read geom=check guess=(read,
 tcheck) scf=(maxcycle=1)\\title\\0,1\C,0,0.,0.,0.\Cl,0,1.02235,1.02235
 ,1.02235\Cl,0,-1.02235,-1.02235,1.02235\Cl,0,1.02235,-1.02235,-1.02235
 \Cl,0,-1.02235,1.02235,-1.02235\\Version=ES64L-G16RevC.01\State=1-A1\H
 F=-1877.0058558\RMSD=5.775e-02\Dipole=0.,0.,0.\Quadrupole=0.,0.,0.,0.,
 0.,0.\PG=TD [O(C1),4C3(Cl1)]\\@

 Normal termination of Gaussian 16 at Wed Apr  9 02:20:37 2025.
