 Gaussian 16, Revision C.01,

 ----------------------------------------------------------------------
 #t hf aug-cc-pvdz symm=none int=(grid=ultrafine) guess=(read,tcheck) s
 table=(opt,rrhf)
 ----------------------------------------------------------------------
 -----
 title
 -----
 Symbolic Z-matrix:
 Charge =  0 Multiplicity = 1

 SCF Done:  E(RHF) =  -918.966082412     A.U. after    9 cycles
 Normal termination of Gaussian 16 at Wed Apr  9 02:21:20 2025.
 Gaussian 16:  ES64L-G16RevC.01  3-Jul-2019

 ----------------------------------------------------------------------
 #t hf aug-cc-pvdz iop(5/13=1,5/36=2,99/5=2) pseudo=read geom=check gue
 ss=(read,tcheck) scf=(maxcycle=1)
 ----------------------------------------------------------------------
 -----
 title
 -----
 Structure from the checkpoint file:  "Cl-set_ch4_cl2_090_dimer_mol3.chk"
 Charge =  0 Multiplicity = 1

                         Standard orientation:
 ---------------------------------------------------------------------
 Center     Atomic      Atomic             Coordinates (Angstroms)
 Number     Number       Type             X           Y           Z
 ---------------------------------------------------------------------
      1         17           0        0.000000    0.000000    0.996860
      2         17           0        0.000000    0.000000   -0.996860
 ---------------------------------------------------------------------

 SCF Done:  E(RHF) =  -919.453208405     A.U. after    2 cycles

 The electronic state is 1-SGG.
 Alpha  occ. eigenvalues --  -99.95271 -99.95227 -10.52476 -10.52452  -9.71897
 Alpha  occ. eigenvalues --   -9.71883  -9.71235  -9.71235  -9.71145  -9.71145
 Alpha  occ. eigenvalues --   -1.44597  -1.21453  -0.69584  -0.64342  -0.64342
 Alpha  occ. eigenvalues --   -0.50128  -0.50128
 Alpha virt. eigenvalues --   -0.06193   0.09623   0.09933   0.11665   0.11665
 Alpha virt. eigenvalues --    0.11816   0.17517   0.17517   0.20694   0.20694
 Alpha virt. eigenvalues --    0.25390   0.25390   0.27790   0.34835   0.37782

 Mulliken charges:
               1
     1  Cl   0.000000
     2  Cl  -0.000000
 Sum of Mulliken charges =  -0.00000

 Dipole moment (field-independent basis, Debye):
    X=              0.0000    Y=             -0.0000    Z=             -0.0000  Tot=              0.0000

 Test job not archived.
 1\1\GINC-SE092\SP\RHF\Aug-CC-pVDZ\Cl2\OHZDE\09-Apr-2025\0\\#t hf aug-c
 c-pvdz iop(5/13=1,5/36=2,99/5=2) pseudo=read geom=check guess=(read,tc
 heck) scf=(maxcycle=1)\\title\\0,1\Cl,0,0.,0.,0.99686\Cl,0,0.,0.,-0.99
 686\\Version=ES64L-G16RevC.01\State=1-SGG\HF=-919.4532084\RMSD=1.180e-
 02\Dipole=0.,0.,0.\Quadrupole=-1.6903932,-1.6903932,3.3807864,0.,0.,0.
 \PG=D*H [C*(Cl1.Cl1)]\\@

 Normal termination of Gaussian 16 at Wed Apr  9 02:21:33 2025.
