 Gaussian 16, Revision C.01,

 ----------------------------------------------------------------------
 #t hf aug-cc-pvdz symm=none int=(grid=ultrafine) guess=(read,tcheck) s
 table=(opt,rrhf)
 ----------------------------------------------------------------------
 -----
 title
 -----
 Symbolic Z-matrix:
 Charge =  0 Multiplicity = 1

 SCF Done:  E(RHF) =  -1604.57865239     A.U. after   14 cycles
 Normal termination of Gaussian 16 at Wed Apr  9 02:20:41 2025.
 Gaussian 16:  ES64L-G16RevC.01  3-Jul-2019

 ----------------------------------------------------------------------
 #t hf aug-cc-pvdz iop(5/13=1,5/36=2,99/5=2) pseudo=read geom=check gue
 ss=(read,tcheck) scf=(maxcycle=1)
 ----------------------------------------------------------------------
 -----
 title
 -----
 Structure from the checkpoint file:  "Cl-set_ccl3co2h_ccl3co2h_090_dimer_mol2.chk"
 Charge =  0 Multiplicity = 1

                         Standard orientation:
 ---------------------------------------------------------------------
 Center     Atomic      Atomic             Coordinates (Angstroms)
 Number     Number       Type             X           Y           Z
 ---------------------------------------------------------------------
      1          6           0        1.261500    0.459936   -0.000350
      2          8           0        2.090865   -0.577950   -0.000180
      3          8           0        1.589444    1.602798   -0.000590
      4          1           0        2.989483   -0.233325   -0.000320
      5          6           0       -0.216088   -0.018571   -0.000010
      6         17           0       -0.490493   -0.998573   -1.456110
      7         17           0       -0.490833   -0.994753    1.458570
      8         17           0       -1.295405    1.368993   -0.001950
 ---------------------------------------------------------------------

 SCF Done:  E(RHF) =  -1606.25565079     A.U. after    2 cycles

 The electronic state is 1-A.
 Alpha  occ. eigenvalues --  -99.92832 -99.92826 -99.92204 -21.15827 -21.09460
 Alpha  occ. eigenvalues --  -11.59011 -11.54697 -10.50366 -10.50138 -10.49635
 Alpha  occ. eigenvalues --   -9.70196  -9.70147  -9.69543  -9.69302  -9.69291
 Alpha  occ. eigenvalues --   -9.69236  -9.69154  -9.68680  -9.68582  -1.87517
 Alpha  occ. eigenvalues --   -1.70204  -1.47312  -1.32220  -1.31781  -1.06391
 Alpha  occ. eigenvalues --   -0.86221  -0.74017  -0.73453  -0.70524  -0.63205
 Alpha  occ. eigenvalues --   -0.61002  -0.57809  -0.54498  -0.54326  -0.52185
 Alpha  occ. eigenvalues --   -0.52122  -0.50775  -0.48328  -0.37401  -0.34114
 Alpha virt. eigenvalues --   -0.00045   0.03653   0.04764   0.06030   0.07065
 Alpha virt. eigenvalues --    0.09717   0.10128   0.10642   0.11886   0.13246
 Alpha virt. eigenvalues --    0.14152   0.14269   0.15054   0.15592   0.17078

 Mulliken charges:
               1
     1  C    6.224422
     2  O   -2.791349
     3  O   -2.711869
     4  H    0.881856
     5  C   -2.548385
     6  Cl   0.317272
     7  Cl   0.317631
     8  Cl   0.310422
 Sum of Mulliken charges =  -0.00000

 Dipole moment (field-independent basis, Debye):
    X=              1.9712    Y=             -0.3314    Z=             -0.0001  Tot=              1.9988

 Test job not archived.
 1\1\GINC-SE341\SP\RHF\Aug-CC-pVDZ\C2H1Cl3O2\OHZDE\09-Apr-2025\0\\#t hf
  aug-cc-pvdz iop(5/13=1,5/36=2,99/5=2) pseudo=read geom=check guess=(r
 ead,tcheck) scf=(maxcycle=1)\\title\\0,1\C,0,-1.2615,0.45993,0.00035\O
 ,0,-2.09086,-0.57796,0.00018\O,0,-1.58945,1.60279,0.00059\H,0,-2.98948
 ,-0.23334,0.00032\C,0,0.21609,-0.01857,0.00001\Cl,0,0.4905,-0.99857,1.
 45611\Cl,0,0.49084,-0.99475,-1.45857\Cl,0,1.2954,1.369,0.00195\\Versio
 n=ES64L-G16RevC.01\State=1-A\HF=-1606.2556508\RMSD=1.373e-01\Dipole=-0
 .7755183,-0.1303697,0.0000371\Quadrupole=3.0865141,-2.530676,-0.555838

 Normal termination of Gaussian 16 at Wed Apr  9 02:20:44 2025.
