 Gaussian 16, Revision C.01,

 ----------------------------------------------------------------------
 #t hf aug-cc-pvdz symm=none int=(grid=ultrafine) guess=(read,tcheck) s
 table=(opt,rrhf)
 ----------------------------------------------------------------------
 -----
 title
 -----
 Symbolic Z-matrix:
 Charge =  0 Multiplicity = 1

 SCF Done:  E(RHF) =  -582.378880029     A.U. after   14 cycles
 Normal termination of Gaussian 16 at Wed Apr  9 02:19:22 2025.
 Gaussian 16:  ES64L-G16RevC.01  3-Jul-2019

 ----------------------------------------------------------------------
 #t hf aug-cc-pvdz iop(5/13=1,5/36=2,99/5=2) pseudo=read geom=check gue
 ss=(read,tcheck) scf=(maxcycle=1)
 ----------------------------------------------------------------------
 -----
 title
 -----
 Structure from the checkpoint file:  "CO2MOF_25_pycf3-1+CO2_dimer_mol2.chk"
 Charge =  0 Multiplicity = 1

                         Standard orientation:
 ---------------------------------------------------------------------
 Center     Atomic      Atomic             Coordinates (Angstroms)
 Number     Number       Type             X           Y           Z
 ---------------------------------------------------------------------
      1          6           0        0.767213    1.202821   -0.017963
      2          6           0        2.162217    1.144253    0.001412
      3          7           0        2.860300   -0.000804    0.011281
      4          6           0        2.160445   -1.145009    0.001360
      5          6           0        0.765573   -1.201406   -0.018127
      6          6           0        0.057762    0.001354   -0.029305
      7          6           0       -1.452049    0.000650   -0.004456
      8          9           0       -1.920731   -0.030343    1.275664
      9          9           0       -1.972672    1.109046   -0.591346
     10          9           0       -1.971093   -1.079902   -0.642938
     11          1           0        0.249950    2.160335   -0.031257
     12          1           0        2.748736    2.065672    0.007048
     13          1           0        0.247020   -2.158327   -0.031695
     14          1           0        2.745691   -2.067232    0.006995
 ---------------------------------------------------------------------

 SCF Done:  E(RHF) =  -584.704791609     A.U. after    2 cycles

 The electronic state is 1-A.
 Alpha  occ. eigenvalues --  -29.31833 -29.31769 -29.31356 -15.76325 -11.63155
 Alpha  occ. eigenvalues --  -11.51277 -11.47347 -11.46781 -11.44633 -11.40720
 Alpha  occ. eigenvalues --   -1.49072  -1.40636  -1.19450  -1.13798  -0.94103
 Alpha  occ. eigenvalues --   -0.93560  -0.88375  -0.85916  -0.78590  -0.68735
 Alpha  occ. eigenvalues --   -0.63446  -0.62363  -0.61255  -0.56164  -0.49947
 Alpha  occ. eigenvalues --   -0.48515  -0.44274  -0.44198  -0.42032  -0.38686
 Alpha  occ. eigenvalues --   -0.37187  -0.35461  -0.34511  -0.30927  -0.26315
 Alpha  occ. eigenvalues --   -0.25576  -0.22214
 Alpha virt. eigenvalues --    0.03348   0.05175   0.06190   0.06355   0.09077
 Alpha virt. eigenvalues --    0.09754   0.09880   0.09964   0.11286   0.11841
 Alpha virt. eigenvalues --    0.11935   0.12956   0.13072   0.13336   0.13467

 Mulliken charges:
               1
     1  C   -2.122551
     2  C   -1.312239
     3  N   -3.602399
     4  C   -1.300853
     5  C   -2.119365
     6  C    2.631485
     7  C    0.753482
     8  F    0.146152
     9  F    0.268181
    10  F    0.248425
    11  H    1.705529
    12  H    1.502596
    13  H    1.699519
    14  H    1.502039
 Sum of Mulliken charges =  -0.00000

 Dipole moment (field-independent basis, Debye):
    X=             -2.7269    Y=             -0.0033    Z=              0.0757  Tot=              2.7280

 Test job not archived.
 1\1\GINC-SE127\SP\RHF\Aug-CC-pVDZ\C6H4F3N1\OHZDE\09-Apr-2025\0\\#t hf
 aug-cc-pvdz iop(5/13=1,5/36=2,99/5=2) pseudo=read geom=check guess=(re
 ad,tcheck) scf=(maxcycle=1)\\title\\0,1\C,0,1.3498885,0.0283893,1.8089
 114\C,0,0.151214,0.0485684,1.0929406\N,0,0.0818715,0.0158807,-0.245975
 5\C,0,1.2412168,-0.0396283,-0.9182373\C,0,2.4944347,-0.0643441,-0.3033
 682\C,0,2.544871,-0.0307655,1.0909342\C,0,3.8735968,-0.0092876,1.80799
 51\F,0,4.3264734,1.2676545,1.9617856\F,0,3.7926037,-0.5542128,3.049173
 7\F,0,4.8309208,-0.6900404,1.1262577\H,0,1.3492989,0.0508323,2.8970592

 Normal termination of Gaussian 16 at Wed Apr  9 02:19:28 2025.
