 Gaussian 16, Revision C.01,

 ----------------------------------------------------------------------
 #t hf aug-cc-pvdz symm=none int=(grid=ultrafine) guess=(read,tcheck) s
 table=(opt,rrhf)
 ----------------------------------------------------------------------
 -----
 title
 -----
 Symbolic Z-matrix:
 Charge =  0 Multiplicity = 1

 SCF Done:  E(RHF) =  -1024.10256905     A.U. after   17 cycles
 Normal termination of Gaussian 16 at Wed Apr  9 02:20:28 2025.
 Gaussian 16:  ES64L-G16RevC.01  3-Jul-2019

 ----------------------------------------------------------------------
 #t hf aug-cc-pvdz iop(5/13=1,5/36=2,99/5=2) pseudo=read geom=check gue
 ss=(read,tcheck) scf=(maxcycle=1)
 ----------------------------------------------------------------------
 -----
 title
 -----
 Structure from the checkpoint file:  "CO2MOF_22_cbIm-1+CO2_dimer_mol1.chk"
 Charge =  0 Multiplicity = 1

                         Standard orientation:
 ---------------------------------------------------------------------
 Center     Atomic      Atomic             Coordinates (Angstroms)
 Number     Number       Type             X           Y           Z
 ---------------------------------------------------------------------
      1          6           0       -0.793319    0.160900   -0.947100
      2          6           0        0.457061   -0.449731   -0.784398
      3          6           0        0.654407   -1.413221    0.242207
      4          6           0       -0.364882   -1.789292    1.117930
      5          6           0       -1.604267   -1.176301    0.948898
      6          6           0       -1.801131   -0.220343   -0.067953
      7          7           0        1.982407   -1.785474    0.116621
      8          6           0        2.511129   -1.055269   -0.925485
      9          7           0        1.638293   -0.249808   -1.492864
     10         17           0       -3.382348    0.513091   -0.217583
     11          1           0       -0.961207    0.905767   -1.721240
     12          1           0       -2.435202   -1.428873    1.604078
     13          1           0        3.551375   -1.159077   -1.220325
     14          1           0        2.484833   -2.435935    0.707554
     15          1           0       -0.213770   -2.524648    1.907209
     16          6           0        1.605907    2.167781    0.654810
     17          8           0        1.035963    2.930495   -0.024894
     18          8           0        2.181482    1.422011    1.352630
 ---------------------------------------------------------------------

 SCF Done:  E(RHF) =  -1026.83328794     A.U. after    2 cycles

 The electronic state is 1-A.
 Alpha  occ. eigenvalues --  -99.88928 -21.15113 -21.14981 -15.81237 -15.73729
 Alpha  occ. eigenvalues --  -11.62724 -11.53445 -11.46927 -11.46563 -11.45839
 Alpha  occ. eigenvalues --  -11.45011 -11.43657 -11.39093 -10.46295  -9.66341
 Alpha  occ. eigenvalues --   -9.65447  -9.65253  -1.82985  -1.73792  -1.58051
 Alpha  occ. eigenvalues --   -1.37746  -1.29588  -1.25068  -1.09776  -1.07392
 Alpha  occ. eigenvalues --   -0.91059  -0.87465  -0.84162  -0.75094  -0.72221
 Alpha  occ. eigenvalues --   -0.69054  -0.67446  -0.63575  -0.61999  -0.61251
 Alpha  occ. eigenvalues --   -0.60999  -0.59976  -0.59062  -0.56279  -0.56202
 Alpha  occ. eigenvalues --   -0.50836  -0.49916  -0.47295  -0.46498  -0.42543
 Alpha  occ. eigenvalues --   -0.39522  -0.36828  -0.36577  -0.31054  -0.30667
 Alpha virt. eigenvalues --    0.03016   0.03955   0.04471   0.06548   0.06665
 Alpha virt. eigenvalues --    0.08178   0.08535   0.08882   0.10051   0.10563
 Alpha virt. eigenvalues --    0.10911   0.11167   0.11755   0.12335   0.12592

 Mulliken charges:
               1
     1  C   -0.939007
     2  C    4.090335
     3  C    2.514700
     4  C   -2.152746
     5  C   -2.030830
     6  C   -1.173251
     7  N   -3.965820
     8  C    0.503267
     9  N   -3.838863
    10  Cl  -0.833870
    11  H    1.813159
    12  H    1.769256
    13  H    1.693705
    14  H    0.822937
    15  H    1.717190
    16  C    4.196483
    17  O   -2.133315
    18  O   -2.053331
 Sum of Mulliken charges =  -0.00000

 Dipole moment (field-independent basis, Debye):
    X=              3.7783    Y=             -3.3667    Z=              2.1051  Tot=              5.4810

 Test job not archived.
 1\1\GINC-SE340\SP\RHF\Aug-CC-pVDZ\C8H5Cl1N2O2\OHZDE\09-Apr-2025\0\\#t
 hf aug-cc-pvdz iop(5/13=1,5/36=2,99/5=2) pseudo=read geom=check guess=
 (read,tcheck) scf=(maxcycle=1)\\title\\0,1\C,0,0.4293805,-0.5304066,1.
 609173\C,0,0.3055493,-0.0096559,0.3144614\C,0,1.436631,0.0469328,-0.54
 49732\C,0,2.6968366,-0.4035409,-0.1497198\C,0,2.8103374,-0.9189185,1.1
 394307\C,0,1.6899971,-0.9749035,1.9928372\N,0,0.9564237,0.6181706,-1.7
 115993\C,0,-0.3812921,0.8821831,-1.5127347\N,0,-0.8120824,0.5220317,-0
 .3222563\Cl,0,1.9079644,-1.6290424,3.600679\H,0,-0.4223595,-0.574483,2

 Normal termination of Gaussian 16 at Wed Apr  9 02:20:40 2025.
