 Gaussian 16, Revision C.01,

 ----------------------------------------------------------------------
 #t hf aug-cc-pvdz symm=none int=(grid=ultrafine) guess=(read,tcheck) s
 table=(opt,rrhf)
 ----------------------------------------------------------------------
 -----
 title
 -----
 Symbolic Z-matrix:
 Charge =  0 Multiplicity = 1

 SCF Done:  E(RHF) =  -770.038610947     A.U. after   15 cycles
 Normal termination of Gaussian 16 at Wed Apr  9 02:20:21 2025.
 Gaussian 16:  ES64L-G16RevC.01  3-Jul-2019

 ----------------------------------------------------------------------
 #t hf aug-cc-pvdz iop(5/13=1,5/36=2,99/5=2) pseudo=read geom=check gue
 ss=(read,tcheck) scf=(maxcycle=1)
 ----------------------------------------------------------------------
 -----
 title
 -----
 Structure from the checkpoint file:  "CO2MOF_26_pycf3-2+CO2_dimer_mol1.chk"
 Charge =  0 Multiplicity = 1

                         Standard orientation:
 ---------------------------------------------------------------------
 Center     Atomic      Atomic             Coordinates (Angstroms)
 Number     Number       Type             X           Y           Z
 ---------------------------------------------------------------------
      1          6           0        0.582239    0.581693    0.125015
      2          6           0        0.206450    1.428644   -0.917287
      3          6           0       -0.977045    2.157060   -0.780251
      4          7           0       -1.774332    2.088090    0.295448
      5          6           0       -1.395203    1.269605    1.288607
      6          6           0       -0.232561    0.497193    1.255862
      7          6           0        1.816530   -0.280356    0.013597
      8          9           0        2.421499   -0.460622    1.215550
      9          9           0        1.500558   -1.521175   -0.461942
     10          9           0        2.736916    0.246243   -0.832072
     11          1           0        0.816054    1.519855   -1.813975
     12          1           0       -1.301867    2.828282   -1.578059
     13          1           0        0.028127   -0.151295    2.090161
     14          1           0       -2.055516    1.227626    2.157537
     15          6           0       -2.043338   -1.740473   -0.368584
     16          8           0       -2.022106   -1.197051   -1.405346
     17          8           0       -2.070352   -2.290613    0.665424
 ---------------------------------------------------------------------

 SCF Done:  E(RHF) =  -773.104082016     A.U. after    2 cycles

 The electronic state is 1-A.
 Alpha  occ. eigenvalues --  -29.32137 -29.32026 -29.31718 -21.16209 -21.16075
 Alpha  occ. eigenvalues --  -15.76625 -11.63769 -11.63584 -11.51797 -11.47652
 Alpha  occ. eigenvalues --  -11.47293 -11.45045 -11.41066  -1.84027  -1.74742
 Alpha  occ. eigenvalues --   -1.49278  -1.40951  -1.19736  -1.14105  -0.94360
 Alpha  occ. eigenvalues --   -0.93826  -0.88663  -0.86196  -0.78829  -0.73200
 Alpha  occ. eigenvalues --   -0.68959  -0.63738  -0.63268  -0.62978  -0.62596
 Alpha  occ. eigenvalues --   -0.61475  -0.60053  -0.56246  -0.50163  -0.48816
 Alpha  occ. eigenvalues --   -0.44676  -0.44423  -0.42501  -0.38953  -0.38696
 Alpha  occ. eigenvalues --   -0.37615  -0.36923  -0.35363  -0.34730  -0.31177
 Alpha  occ. eigenvalues --   -0.26602  -0.25960  -0.22506
 Alpha virt. eigenvalues --    0.03631   0.05029   0.06235   0.06500   0.07568
 Alpha virt. eigenvalues --    0.09194   0.09545   0.09650   0.10251   0.10713
 Alpha virt. eigenvalues --    0.10800   0.11682   0.12336   0.12703   0.13144

 Mulliken charges:
               1
     1  C    2.864809
     2  C   -2.439545
     3  C   -1.131882
     4  N   -3.764608
     5  C   -1.336100
     6  C   -2.154066
     7  C    0.670407
     8  F    0.220209
     9  F    0.044738
    10  F    0.264679
    11  H    1.760822
    12  H    1.548993
    13  H    1.782764
    14  H    1.546939
    15  C    4.267784
    16  O   -2.034242
    17  O   -2.111702
 Sum of Mulliken charges =   0.00000

 Dipole moment (field-independent basis, Debye):
    X=              2.3045    Y=             -1.4798    Z=             -0.3883  Tot=              2.7661

 Test job not archived.
 1\1\GINC-SE292\SP\RHF\Aug-CC-pVDZ\C7H4F3N1O2\OHZDE\09-Apr-2025\0\\#t h
 f aug-cc-pvdz iop(5/13=1,5/36=2,99/5=2) pseudo=read geom=check guess=(
 read,tcheck) scf=(maxcycle=1)\\title\\0,1\C,0,2.7034238,-0.1588363,1.2
 600439\C,0,1.5434792,-0.0086743,2.0195935\C,0,0.3918996,0.4537787,1.37
 92561\N,0,0.3372191,0.7634771,0.0759346\C,0,1.4623579,0.6105625,-0.638
 6993\C,0,2.6673952,0.1554289,-0.1000278\C,0,3.9976847,-0.5943505,1.903
 6534\F,0,4.7580237,-1.3413205,1.0627644\F,0,4.749345,0.4880493,2.26285
 32\F,0,3.7926042,-1.3256553,3.0273566\H,0,1.5339936,-0.2432441,3.08207

 Normal termination of Gaussian 16 at Wed Apr  9 02:20:32 2025.
