 Gaussian 16, Revision C.01,

 ----------------------------------------------------------------------
 #t hf aug-cc-pvdz symm=none int=(grid=ultrafine) guess=(read,tcheck) s
 table=(opt,rrhf)
 ----------------------------------------------------------------------
 -----
 title
 -----
 Symbolic Z-matrix:
 Charge =  0 Multiplicity = 1

 SCF Done:  E(RHF) =  -836.441445805     A.U. after   17 cycles
 Normal termination of Gaussian 16 at Wed Apr  9 02:19:47 2025.
 Gaussian 16:  ES64L-G16RevC.01  3-Jul-2019

 ----------------------------------------------------------------------
 #t hf aug-cc-pvdz iop(5/13=1,5/36=2,99/5=2) pseudo=read geom=check gue
 ss=(read,tcheck) scf=(maxcycle=1)
 ----------------------------------------------------------------------
 -----
 title
 -----
 Structure from the checkpoint file:  "CO2MOF_22_cbIm-1+CO2_dimer_mol2.chk"
 Charge =  0 Multiplicity = 1

                         Standard orientation:
 ---------------------------------------------------------------------
 Center     Atomic      Atomic             Coordinates (Angstroms)
 Number     Number       Type             X           Y           Z
 ---------------------------------------------------------------------
      1          7           0       -2.003423   -1.483235    0.000001
      2          6           0       -0.873960   -0.671728   -0.000014
      3          6           0       -1.249688    0.699474   -0.000012
      4          7           0       -2.635114    0.678363    0.000005
      5          6           0       -3.018545   -0.647110    0.000012
      6          6           0       -0.309799    1.731273   -0.000003
      7          6           0        1.034312    1.364906   -0.000000
      8          6           0        1.408230    0.006155   -0.000003
      9          6           0        0.480368   -1.029594   -0.000011
     10         17           0        3.115289   -0.380612    0.000007
     11          1           0        0.788532   -2.072599   -0.000011
     12          1           0        1.810882    2.126747    0.000006
     13          1           0       -4.066543   -0.933393    0.000026
     14          1           0       -3.251444    1.481384    0.000006
     15          1           0       -0.597093    2.782111    0.000005
 ---------------------------------------------------------------------

 SCF Done:  E(RHF) =  -838.431720896     A.U. after    2 cycles

 The electronic state is 1-A.
 Alpha  occ. eigenvalues --  -99.88750 -15.80994 -15.73473 -11.52939 -11.46494
 Alpha  occ. eigenvalues --  -11.46037 -11.45483 -11.44535 -11.43237 -11.38748
 Alpha  occ. eigenvalues --  -10.46120  -9.66157  -9.65265  -9.65073  -1.57807
 Alpha  occ. eigenvalues --   -1.37499  -1.29262  -1.24821  -1.09481  -1.07133
 Alpha  occ. eigenvalues --   -0.90819  -0.87207  -0.83886  -0.74826  -0.68811
 Alpha  occ. eigenvalues --   -0.67208  -0.62274  -0.60966  -0.59749  -0.56044
 Alpha  occ. eigenvalues --   -0.56009  -0.50610  -0.49687  -0.47094  -0.46151
 Alpha  occ. eigenvalues --   -0.42167  -0.39209  -0.30802  -0.30299
 Alpha virt. eigenvalues --    0.02849   0.04040   0.04625   0.06527   0.06605
 Alpha virt. eigenvalues --    0.08633   0.09012   0.09841   0.10647   0.11280
 Alpha virt. eigenvalues --    0.11558   0.12179   0.12531   0.13084   0.13499

 Mulliken charges:
               1
     1  N   -3.881915
     2  C    4.171130
     3  C    1.870690
     4  N   -3.930532
     5  C    0.858628
     6  C   -1.945771
     7  C   -1.930505
     8  C   -1.056404
     9  C   -0.989989
    10  Cl  -0.853654
    11  H    1.793309
    12  H    1.749619
    13  H    1.649133
    14  H    0.806925
    15  H    1.689336
 Sum of Mulliken charges =   0.00000

 Dipole moment (field-independent basis, Debye):
    X=             -4.4442    Y=              3.2452    Z=              0.0000  Tot=              5.5029

 Test job not archived.
 1\1\GINC-SE051\SP\RHF\Aug-CC-pVDZ\C7H5Cl1N2\OHZDE\09-Apr-2025\0\\#t hf
  aug-cc-pvdz iop(5/13=1,5/36=2,99/5=2) pseudo=read geom=check guess=(r
 ead,tcheck) scf=(maxcycle=1)\\title\\0,1\N,0,-1.0127732,0.0002714,-1.1
 230068\C,0,0.0655517,-0.0020189,-0.2446909\C,0,1.2910329,-0.0002233,-0
 .9654944\N,0,0.9088213,0.0032014,-2.2973178\C,0,-0.4707897,0.0033177,-
 2.3212647\C,0,2.5324931,-0.0018825,-0.3277059\C,0,2.5298853,-0.00543,1
 .0654343\C,0,1.3159503,-0.007214,1.7812402\C,0,0.0738184,-0.0055863,1.
 1560923\Cl,0,1.3884422,-0.0116636,3.5300578\H,0,-0.8525026,-0.0070058,

 Normal termination of Gaussian 16 at Wed Apr  9 02:19:56 2025.
