 Gaussian 16, Revision C.01,

 ----------------------------------------------------------------------
 #t hf aug-cc-pvdz symm=none int=(grid=ultrafine) guess=(read,tcheck) s
 table=(opt,rrhf)
 ----------------------------------------------------------------------
 -----
 title
 -----
 Symbolic Z-matrix:
 Charge =  0 Multiplicity = 1

 SCF Done:  E(RHF) =  -1024.10264794     A.U. after   17 cycles
 Normal termination of Gaussian 16 at Wed Apr  9 02:20:55 2025.
 Gaussian 16:  ES64L-G16RevC.01  3-Jul-2019

 ----------------------------------------------------------------------
 #t hf aug-cc-pvdz iop(5/13=1,5/36=2,99/5=2) pseudo=read geom=check gue
 ss=(read,tcheck) scf=(maxcycle=1)
 ----------------------------------------------------------------------
 -----
 title
 -----
 Structure from the checkpoint file:  "CO2MOF_23_cbIm-2+CO2_dimer_mol1.chk"
 Charge =  0 Multiplicity = 1

                         Standard orientation:
 ---------------------------------------------------------------------
 Center     Atomic      Atomic             Coordinates (Angstroms)
 Number     Number       Type             X           Y           Z
 ---------------------------------------------------------------------
      1          6           0        0.195279   -0.361732   -0.024181
      2          6           0        1.558902   -0.682827   -0.007584
      3          6           0        2.536540    0.349528    0.014415
      4          6           0        2.194218    1.702546    0.020260
      5          6           0        0.836178    2.012647    0.003934
      6          6           0       -0.131856    0.989255   -0.017585
      7          7           0        3.748356   -0.321730    0.026425
      8          6           0        3.461942   -1.671638    0.011863
      9          7           0        2.172904   -1.930640   -0.008576
     10         17           0       -1.820705    1.460335   -0.035531
     11          1           0       -0.567632   -1.136458   -0.041529
     12          1           0        0.509807    3.050417    0.007803
     13          1           0        4.251422   -2.417959    0.017446
     14          1           0        4.670204    0.096184    0.042892
     15          1           0        2.942577    2.494037    0.036899
     16          6           0       -3.914129   -1.138600    0.018543
     17          8           0       -4.788950   -0.365034    0.100489
     18          8           0       -3.051757   -1.927517   -0.063292
 ---------------------------------------------------------------------

 SCF Done:  E(RHF) =  -1026.82757967     A.U. after    2 cycles

 The electronic state is 1-A.
 Alpha  occ. eigenvalues --  -99.89212 -21.15317 -21.15207 -15.81027 -15.73486
 Alpha  occ. eigenvalues --  -11.62822 -11.53406 -11.46610 -11.46339 -11.45728
 Alpha  occ. eigenvalues --  -11.44755 -11.43545 -11.38844 -10.46582  -9.66633
 Alpha  occ. eigenvalues --   -9.65844  -9.65547  -1.83147  -1.73866  -1.57822
 Alpha  occ. eigenvalues --   -1.37743  -1.29287  -1.25044  -1.09555  -1.07258
 Alpha  occ. eigenvalues --   -0.90904  -0.87247  -0.83967  -0.74911  -0.72378
 Alpha  occ. eigenvalues --   -0.68835  -0.67505  -0.62316  -0.62287  -0.62127
 Alpha  occ. eigenvalues --   -0.61039  -0.59865  -0.59207  -0.56390  -0.56023
 Alpha  occ. eigenvalues --   -0.50865  -0.49769  -0.47275  -0.46356  -0.42196
 Alpha  occ. eigenvalues --   -0.39217  -0.36867  -0.36704  -0.30943  -0.30341
 Alpha virt. eigenvalues --    0.02893   0.04097   0.04628   0.06382   0.06620
 Alpha virt. eigenvalues --    0.08381   0.08906   0.10046   0.10341   0.10813
 Alpha virt. eigenvalues --    0.11242   0.11419   0.11850   0.12398   0.12756

 Mulliken charges:
               1
     1  C   -0.516793
     2  C    3.704080
     3  C    2.257322
     4  C   -2.553939
     5  C   -2.697617
     6  C   -0.110448
     7  N   -4.003352
     8  C    0.837145
     9  N   -3.908065
    10  Cl  -0.946502
    11  H    1.901825
    12  H    1.797555
    13  H    1.708475
    14  H    0.809668
    15  H    1.721281
    16  C    3.978272
    17  O   -2.032433
    18  O   -1.946475
 Sum of Mulliken charges =  -0.00000

 Dipole moment (field-independent basis, Debye):
    X=              5.5354    Y=              0.7526    Z=              0.0808  Tot=              5.5869

 Test job not archived.
 1\1\GINC-SE132\SP\RHF\Aug-CC-pVDZ\C8H5Cl1N2O2\OHZDE\09-Apr-2025\0\\#t
 hf aug-cc-pvdz iop(5/13=1,5/36=2,99/5=2) pseudo=read geom=check guess=
 (read,tcheck) scf=(maxcycle=1)\\title\\0,1\C,0,0.3640001,0.0213539,1.2
 139623\C,0,0.1995157,0.0090632,-0.1773096\C,0,1.3360602,-0.0041833,-1.
 0317733\C,0,2.6416077,-0.005399,-0.5383974\C,0,2.7958029,0.0065953,0.8
 460816\C,0,1.6692538,0.0194419,1.6920172\N,0,0.8064529,-0.0140988,-2.3
 118705\C,0,-0.5672653,-0.0068008,-2.1801782\N,0,-0.9707082,0.0070431,-
 0.9287151\Cl,0,1.9459106,0.0323843,3.4234163\H,0,-0.4922312,0.0320109,

 Normal termination of Gaussian 16 at Wed Apr  9 02:21:08 2025.
