 Gaussian 16, Revision C.01,

 ----------------------------------------------------------------------
 #t hf aug-cc-pvdz symm=none int=(grid=ultrafine) guess=(read,tcheck) s
 table=(opt,rrhf)
 ----------------------------------------------------------------------
 -----
 title
 -----
 Symbolic Z-matrix:
 Charge =  0 Multiplicity = 1

 SCF Done:  E(RHF) =  -643.316347292     A.U. after   15 cycles
 Normal termination of Gaussian 16 at Wed Apr  9 02:19:10 2025.
 Gaussian 16:  ES64L-G16RevC.01  3-Jul-2019

 ----------------------------------------------------------------------
 #t hf aug-cc-pvdz iop(5/13=1,5/36=2,99/5=2) pseudo=read geom=check gue
 ss=(read,tcheck) scf=(maxcycle=1)
 ----------------------------------------------------------------------
 -----
 title
 -----
 Structure from the checkpoint file:  "CR20_12_mol3.chk"
 Charge =  0 Multiplicity = 1

                         Standard orientation:
 ---------------------------------------------------------------------
 Center     Atomic      Atomic             Coordinates (Angstroms)
 Number     Number       Type             X           Y           Z
 ---------------------------------------------------------------------
      1          6           0        0.790003    0.200556    0.006695
      2          6           0       -1.637824   -0.091242    0.238937
      3          8           0       -1.194990    1.192583   -0.180143
      4          7           0        0.200804    1.329096   -0.022581
      5         16           0       -0.248623   -1.233470   -0.101001
      6          6           0        2.274396    0.086528    0.080712
      7          1           0        2.579330   -0.425247    0.993949
      8          1           0        2.652228   -0.491065   -0.764745
      9          1           0        2.717057    1.079453    0.059406
     10          1           0       -1.857763   -0.092771    1.309601
     11          1           0       -2.518051   -0.354242   -0.341038
 ---------------------------------------------------------------------

 SCF Done:  E(RHF) =  -644.653705212     A.U. after    2 cycles

 The electronic state is 1-A.
 Alpha  occ. eigenvalues --  -75.70712 -21.08487 -15.78185 -13.14914 -13.13683
 Alpha  occ. eigenvalues --  -13.03486 -11.46141 -11.44816 -11.40120  -8.05071
 Alpha  occ. eigenvalues --   -1.83606  -1.32316  -1.19372  -1.07403  -0.92002
 Alpha  occ. eigenvalues --   -0.76139  -0.67923  -0.64958  -0.61076  -0.60180
 Alpha  occ. eigenvalues --   -0.51479  -0.49413  -0.48067  -0.41414  -0.35908
 Alpha  occ. eigenvalues --   -0.31419  -0.23382
 Alpha virt. eigenvalues --    0.03132   0.03855   0.05421   0.06641   0.06764
 Alpha virt. eigenvalues --    0.07742   0.09828   0.11320   0.11719   0.12633
 Alpha virt. eigenvalues --    0.13289   0.13701   0.14662   0.15157   0.15924

 Mulliken charges:
               1
     1  C    2.168105
     2  C   -2.210322
     3  O   -2.341299
     4  N   -1.302811
     5  S    0.978671
     6  C   -4.031498
     7  H    1.256199
     8  H    1.261433
     9  H    1.316225
    10  H    1.474859
    11  H    1.430438
 Sum of Mulliken charges =  -0.00000

 Dipole moment (field-independent basis, Debye):
    X=              0.0797    Y=             -2.8490    Z=              0.0365  Tot=              2.8504

 Test job not archived.
 1\1\GINC-SE054\SP\RHF\Aug-CC-pVDZ\C3H5N1O1S1\OHZDE\09-Apr-2025\0\\#t h
 f aug-cc-pvdz iop(5/13=1,5/36=2,99/5=2) pseudo=read geom=check guess=(
 read,tcheck) scf=(maxcycle=1)\\title\\0,1\C,0,0.790003,0.200556,0.0066
 95\C,0,-1.637824,-0.091241,0.238937\O,0,-1.194989,1.192583,-0.180143\N
 ,0,0.200805,1.329096,-0.022581\S,0,-0.248623,-1.23347,-0.101001\C,0,2.
 274396,0.086527,0.080712\H,0,2.57933,-0.425248,0.993949\H,0,2.652228,-
 0.491066,-0.764745\H,0,2.717058,1.079452,0.059406\H,0,-1.857763,-0.092
 77,1.309601\H,0,-2.518051,-0.354241,-0.341038\\Version=ES64L-G16RevC.0

 Normal termination of Gaussian 16 at Wed Apr  9 02:19:15 2025.
