 Gaussian 16, Revision C.01,

 ----------------------------------------------------------------------
 #t hf aug-cc-pvdz symm=none int=(grid=ultrafine) guess=(read,tcheck) s
 table=(opt,rrhf)
 ----------------------------------------------------------------------
 -----
 title
 -----
 Symbolic Z-matrix:
 Charge =  0 Multiplicity = 1

 SCF Done:  E(RHF) =  -742.172361537     A.U. after   14 cycles
 Normal termination of Gaussian 16 at Wed Apr  9 02:19:13 2025.
 Gaussian 16:  ES64L-G16RevC.01  3-Jul-2019

 ----------------------------------------------------------------------
 #t hf aug-cc-pvdz iop(5/13=1,5/36=2,99/5=2) pseudo=read geom=check gue
 ss=(read,tcheck) scf=(maxcycle=1)
 ----------------------------------------------------------------------
 -----
 title
 -----
 Structure from the checkpoint file:  "CR20_14_mol3.chk"
 Charge =  0 Multiplicity = 1

                         Standard orientation:
 ---------------------------------------------------------------------
 Center     Atomic      Atomic             Coordinates (Angstroms)
 Number     Number       Type             X           Y           Z
 ---------------------------------------------------------------------
      1          6           0        0.366341    0.331324   -0.178300
      2          6           0       -1.932772   -0.281797    0.381738
      3          1           0       -2.852294   -0.616603   -0.089387
      4          8           0       -1.712426    1.077620    0.012420
      5          7           0       -0.345051    1.378985   -0.031050
      6         16           0       -0.482917   -1.214603   -0.240472
      7          6           0        1.839962    0.451015   -0.382400
      8          1           0        2.127804    0.042402   -1.353008
      9          1           0        2.127237    1.498607   -0.316430
     10          9           0        2.531704   -0.265649    0.592199
     11          1           0       -1.987839   -0.377014    1.468359
 ---------------------------------------------------------------------

 SCF Done:  E(RHF) =  -743.826404003     A.U. after    2 cycles

 The electronic state is 1-A.
 Alpha  occ. eigenvalues --  -75.71811 -29.27215 -21.10020 -15.80350 -13.16527
 Alpha  occ. eigenvalues --  -13.14801 -13.04548 -11.49629 -11.45863 -11.44964
 Alpha  occ. eigenvalues --   -8.06162  -1.85504  -1.35144  -1.20803  -1.15852
 Alpha  occ. eigenvalues --   -0.93355  -0.80594  -0.71664  -0.68506  -0.67998
 Alpha  occ. eigenvalues --   -0.67143  -0.54168  -0.52900  -0.50901  -0.43117
 Alpha  occ. eigenvalues --   -0.38795  -0.37486  -0.33630  -0.26875  -0.26093
 Alpha  occ. eigenvalues --   -0.23963
 Alpha virt. eigenvalues --    0.03341   0.04420   0.05591   0.06235   0.07358
 Alpha virt. eigenvalues --    0.09888   0.10928   0.11379   0.12532   0.12666
 Alpha virt. eigenvalues --    0.13486   0.13794   0.15031   0.15640   0.15942

 Mulliken charges:
               1
     1  C    1.617839
     2  C   -2.299476
     3  H    1.431291
     4  O   -2.376691
     5  N   -1.265802
     6  S    0.933343
     7  C   -2.582011
     8  H    1.319508
     9  H    1.425342
    10  F    0.318624
    11  H    1.478033
 Sum of Mulliken charges =  -0.00000

 Dipole moment (field-independent basis, Debye):
    X=              0.6512    Y=             -3.5157    Z=              0.6322  Tot=              3.6310

 Test job not archived.
 1\1\GINC-SE253\SP\RHF\Aug-CC-pVDZ\C3H4F1N1O1S1\OHZDE\09-Apr-2025\0\\#t
  hf aug-cc-pvdz iop(5/13=1,5/36=2,99/5=2) pseudo=read geom=check guess
 =(read,tcheck) scf=(maxcycle=1)\\title\\0,1\C,0,0.366341,0.331324,-0.1
 783\C,0,-1.932772,-0.281797,0.381738\H,0,-2.852294,-0.616603,-0.089387
 \O,0,-1.712426,1.07762,0.01242\N,0,-0.345051,1.378985,-0.03105\S,0,-0.
 482917,-1.214603,-0.240472\C,0,1.839962,0.451015,-0.3824\H,0,2.127804,
 0.042402,-1.353008\H,0,2.127237,1.498607,-0.31643\F,0,2.531704,-0.2656
 49,0.592199\H,0,-1.987839,-0.377014,1.468359\\Version=ES64L-G16RevC.01

 Normal termination of Gaussian 16 at Wed Apr  9 02:19:18 2025.
