 Gaussian 16, Revision C.01,

 ----------------------------------------------------------------------
 #t hf aug-cc-pvdz symm=none int=(grid=ultrafine) guess=(read,tcheck) s
 table=(opt,rrhf)
 ----------------------------------------------------------------------
 -----
 title
 -----
 Symbolic Z-matrix:
 Charge =  0 Multiplicity = 1

 SCF Done:  E(RHF) =  -682.361687980     A.U. after   14 cycles
 Normal termination of Gaussian 16 at Wed Apr  9 02:19:32 2025.
 Gaussian 16:  ES64L-G16RevC.01  3-Jul-2019

 ----------------------------------------------------------------------
 #t hf aug-cc-pvdz iop(5/13=1,5/36=2,99/5=2) pseudo=read geom=check gue
 ss=(read,tcheck) scf=(maxcycle=1)
 ----------------------------------------------------------------------
 -----
 title
 -----
 Structure from the checkpoint file:  "CR20_15_mol3.chk"
 Charge =  0 Multiplicity = 1

                         Standard orientation:
 ---------------------------------------------------------------------
 Center     Atomic      Atomic             Coordinates (Angstroms)
 Number     Number       Type             X           Y           Z
 ---------------------------------------------------------------------
      1          6           0        1.108469    0.183920    0.043193
      2          6           0       -1.335764   -0.035548   -0.358232
      3          1           0       -1.949808   -0.235740   -1.234395
      4          8           0       -0.744744    1.256382   -0.563267
      5          7           0        0.574338    1.333023   -0.084047
      6         16           0        0.087905   -1.205626   -0.349914
      7          6           0        2.526192    0.017154    0.474385
      8          1           0        2.584244   -0.527079    1.417643
      9          1           0        3.086448   -0.550501   -0.270487
     10          1           0        2.985805    0.995217    0.595362
     11          6           0       -2.149973   -0.082120    0.920649
     12          1           0       -2.944628    0.663795    0.871893
     13          1           0       -2.601186   -1.066658    1.046850
     14          1           0       -1.523320    0.128326    1.786248
 ---------------------------------------------------------------------

 SCF Done:  E(RHF) =  -683.906868842     A.U. after    2 cycles

 The electronic state is 1-A.
 Alpha  occ. eigenvalues --  -75.70284 -21.07846 -15.77834 -13.15541 -13.14931
 Alpha  occ. eigenvalues --  -13.04918 -11.47667 -11.45999 -11.39919 -11.38230
 Alpha  occ. eigenvalues --   -8.04654  -1.83364  -1.32065  -1.22133  -1.07230
 Alpha  occ. eigenvalues --   -1.06234  -0.85799  -0.76099  -0.68084  -0.62273
 Alpha  occ. eigenvalues --   -0.60643  -0.59591  -0.58488  -0.54508  -0.49928
 Alpha  occ. eigenvalues --   -0.48832  -0.45611  -0.39485  -0.35277  -0.31475
 Alpha  occ. eigenvalues --   -0.23039
 Alpha virt. eigenvalues --    0.03172   0.04011   0.05463   0.06082   0.06354
 Alpha virt. eigenvalues --    0.06710   0.07290   0.08622   0.10470   0.11200
 Alpha virt. eigenvalues --    0.11798   0.12753   0.13158   0.13777   0.14529

 Mulliken charges:
               1
     1  C    2.394098
     2  C   -0.149921
     3  H    1.633015
     4  O   -2.743941
     5  N   -1.447053
     6  S    0.954006
     7  C   -4.454316
     8  H    1.268703
     9  H    1.270518
    10  H    1.335539
    11  C   -3.950004
    12  H    1.219727
    13  H    1.261126
    14  H    1.408504
 Sum of Mulliken charges =   0.00000

 Dipole moment (field-independent basis, Debye):
    X=             -0.0907    Y=             -2.6812    Z=             -0.1344  Tot=              2.6861

 Test job not archived.
 1\1\GINC-SE073\SP\RHF\Aug-CC-pVDZ\C4H7N1O1S1\OHZDE\09-Apr-2025\0\\#t h
 f aug-cc-pvdz iop(5/13=1,5/36=2,99/5=2) pseudo=read geom=check guess=(
 read,tcheck) scf=(maxcycle=1)\\title\\0,1\C,0,1.108469,0.18392,0.04319
 3\C,0,-1.335764,-0.035548,-0.358232\H,0,-1.949808,-0.23574,-1.234395\O
 ,0,-0.744744,1.256382,-0.563267\N,0,0.574338,1.333023,-0.084047\S,0,0.
 087905,-1.205626,-0.349914\C,0,2.526192,0.017154,0.474385\H,0,2.584244
 ,-0.527079,1.417643\H,0,3.086448,-0.550501,-0.270487\H,0,2.985805,0.99
 5217,0.595362\C,0,-2.149973,-0.08212,0.920649\H,0,-2.944628,0.663795,0

 Normal termination of Gaussian 16 at Wed Apr  9 02:19:37 2025.
