 Gaussian 16, Revision C.01,

 ----------------------------------------------------------------------
 #t hf aug-cc-pvdz symm=none int=(grid=ultrafine) guess=(read,tcheck) s
 table=(opt,rrhf)
 ----------------------------------------------------------------------
 -----
 title
 -----
 Symbolic Z-matrix:
 Charge =  0 Multiplicity = 1

 SCF Done:  E(RHF) =  -419.517542103     A.U. after   14 cycles
 Normal termination of Gaussian 16 at Wed Apr  9 02:19:42 2025.
 Gaussian 16:  ES64L-G16RevC.01  3-Jul-2019

 ----------------------------------------------------------------------
 #t hf aug-cc-pvdz iop(5/13=1,5/36=2,99/5=2) pseudo=read geom=check gue
 ss=(read,tcheck) scf=(maxcycle=1)
 ----------------------------------------------------------------------
 -----
 title
 -----
 Structure from the checkpoint file:  "CR20_4_mol3.chk"
 Charge =  0 Multiplicity = 1

                         Standard orientation:
 ---------------------------------------------------------------------
 Center     Atomic      Atomic             Coordinates (Angstroms)
 Number     Number       Type             X           Y           Z
 ---------------------------------------------------------------------
      1          6           0       -0.207115    0.229680    0.172018
      2          6           0        1.712361   -0.775656   -0.126341
      3          1           0        2.431287   -1.228899    0.552574
      4          8           0        1.878909    0.637338   -0.137104
      5          7           0        0.567195    1.191435   -0.136864
      6          6           0       -1.666524    0.372142    0.402478
      7          1           0       -1.927058    0.021528    1.402501
      8          1           0       -1.948421    1.415408    0.279480
      9          9           0       -2.379299   -0.399009   -0.512954
     10          1           0        1.786715   -1.186986   -1.139663
     11          8           0        0.379650   -0.978215    0.360956
 ---------------------------------------------------------------------

 SCF Done:  E(RHF) =  -421.220560878     A.U. after    2 cycles

 The electronic state is 1-A.
 Alpha  occ. eigenvalues --  -29.27617 -21.11532 -21.09353 -15.79322 -11.51736
 Alpha  occ. eigenvalues --  -11.48395 -11.46016  -1.93796  -1.72532  -1.32026
 Alpha  occ. eigenvalues --   -1.17649  -0.96073  -0.82565  -0.74131  -0.71678
 Alpha  occ. eigenvalues --   -0.69035  -0.68049  -0.57059  -0.53569  -0.52649
 Alpha  occ. eigenvalues --   -0.45353  -0.41947  -0.39455  -0.38437  -0.27907
 Alpha  occ. eigenvalues --   -0.27064  -0.26025
 Alpha virt. eigenvalues --    0.03740   0.05026   0.05686   0.06101   0.09006
 Alpha virt. eigenvalues --    0.10038   0.11431   0.12654   0.13686   0.14347
 Alpha virt. eigenvalues --    0.15043   0.15584   0.16009   0.17614   0.17820

 Mulliken charges:
               1
     1  C    4.039897
     2  C   -0.972070
     3  H    1.502929
     4  O   -2.341209
     5  N   -1.335690
     6  C   -2.261568
     7  H    1.248278
     8  H    1.361910
     9  F    0.270956
    10  H    1.530754
    11  O   -3.044187
 Sum of Mulliken charges =   0.00000

 Dipole moment (field-independent basis, Debye):
    X=             -1.1009    Y=             -2.4536    Z=             -0.1400  Tot=              2.6929

 Test job not archived.
 1\1\GINC-SE398\SP\RHF\Aug-CC-pVDZ\C3H4F1N1O2\OHZDE\09-Apr-2025\0\\#t h
 f aug-cc-pvdz iop(5/13=1,5/36=2,99/5=2) pseudo=read geom=check guess=(
 read,tcheck) scf=(maxcycle=1)\\title\\0,1\C,0,-0.207115,0.22968,0.1720
 18\C,0,1.712361,-0.775656,-0.126341\H,0,2.431287,-1.228899,0.552574\O,
 0,1.878909,0.637338,-0.137104\N,0,0.567195,1.191435,-0.136864\C,0,-1.6
 66524,0.372142,0.402478\H,0,-1.927058,0.021528,1.402501\H,0,-1.948421,
 1.415408,0.27948\F,0,-2.379299,-0.399009,-0.512954\H,0,1.786715,-1.186
 986,-1.139663\O,0,0.37965,-0.978215,0.360956\\Version=ES64L-G16RevC.01

 Normal termination of Gaussian 16 at Wed Apr  9 02:19:46 2025.
