 Gaussian 16, Revision C.01,

 ----------------------------------------------------------------------
 #t hf aug-cc-pvdz symm=none int=(grid=ultrafine) guess=(read,tcheck) s
 table=(opt,rrhf)
 ----------------------------------------------------------------------
 -----
 title
 -----
 Symbolic Z-matrix:
 Charge =  0 Multiplicity = 1

 SCF Done:  E(RHF) =  -419.550041433     A.U. after   14 cycles
 Normal termination of Gaussian 16 at Wed Apr  9 02:20:15 2025.
 Gaussian 16:  ES64L-G16RevC.01  3-Jul-2019

 ----------------------------------------------------------------------
 #t hf aug-cc-pvdz iop(5/13=1,5/36=2,99/5=2) pseudo=read geom=check gue
 ss=(read,tcheck) scf=(maxcycle=1)
 ----------------------------------------------------------------------
 -----
 title
 -----
 Structure from the checkpoint file:  "CR20_8_mol3.chk"
 Charge =  0 Multiplicity = 1

                         Standard orientation:
 ---------------------------------------------------------------------
 Center     Atomic      Atomic             Coordinates (Angstroms)
 Number     Number       Type             X           Y           Z
 ---------------------------------------------------------------------
      1          6           0       -0.974099    0.057056    0.015822
      2          6           0        1.167452   -0.155390    0.408144
      3          8           0        0.860903    1.167341    0.154306
      4          7           0       -0.518163    1.214244   -0.249727
      5          6           0       -2.363034   -0.410581   -0.177932
      6          1           0       -2.384499   -1.247824   -0.875922
      7          1           0       -2.777798   -0.752720    0.770857
      8          1           0       -2.969559    0.402312   -0.566469
      9          1           0        1.796767   -0.273739    1.286054
     10          9           0        1.842002   -0.712317   -0.659535
     11          8           0       -0.060616   -0.812766    0.544843
 ---------------------------------------------------------------------

 SCF Done:  E(RHF) =  -421.254161540     A.U. after    2 cycles

 The electronic state is 1-A.
 Alpha  occ. eigenvalues --  -29.27655 -21.12748 -21.10368 -15.79052 -11.54174
 Alpha  occ. eigenvalues --  -11.50681 -11.41942  -1.96870  -1.74681  -1.33222
 Alpha  occ. eigenvalues --   -1.11436  -1.04903  -0.81884  -0.79015  -0.74602
 Alpha  occ. eigenvalues --   -0.64025  -0.62658  -0.57173  -0.54272  -0.52748
 Alpha  occ. eigenvalues --   -0.48211  -0.43229  -0.39896  -0.39704  -0.28732
 Alpha  occ. eigenvalues --   -0.27503  -0.25438
 Alpha virt. eigenvalues --    0.03160   0.05117   0.05815   0.06074   0.08826
 Alpha virt. eigenvalues --    0.10453   0.11713   0.13038   0.13383   0.13616
 Alpha virt. eigenvalues --    0.14111   0.14642   0.15228   0.16439   0.18249

 Mulliken charges:
               1
     1  C    4.095114
     2  C    1.308709
     3  O   -2.561442
     4  N   -1.450277
     5  C   -4.070578
     6  H    1.176355
     7  H    1.192115
     8  H    1.287539
     9  H    1.563383
    10  F    0.606577
    11  O   -3.147495
 Sum of Mulliken charges =   0.00000

 Dipole moment (field-independent basis, Debye):
    X=              0.0644    Y=             -2.6062    Z=             -0.5559  Tot=              2.6657

 Test job not archived.
 1\1\GINC-SE029\SP\RHF\Aug-CC-pVDZ\C3H4F1N1O2\OHZDE\09-Apr-2025\0\\#t h
 f aug-cc-pvdz iop(5/13=1,5/36=2,99/5=2) pseudo=read geom=check guess=(
 read,tcheck) scf=(maxcycle=1)\\title\\0,1\C,0,-0.974099,0.057056,0.015
 822\C,0,1.167452,-0.15539,0.408144\O,0,0.860903,1.167341,0.154306\N,0,
 -0.518163,1.214244,-0.249727\C,0,-2.363034,-0.410581,-0.177932\H,0,-2.
 384499,-1.247824,-0.875922\H,0,-2.777798,-0.75272,0.770857\H,0,-2.9695
 59,0.402312,-0.566469\H,0,1.796767,-0.273739,1.286054\F,0,1.842002,-0.
 712317,-0.659535\O,0,-0.060616,-0.812766,0.544843\\Version=ES64L-G16Re

 Normal termination of Gaussian 16 at Wed Apr  9 02:20:19 2025.
