 Gaussian 16, Revision C.01,

 ----------------------------------------------------------------------
 #t hf aug-cc-pvdz symm=none int=(grid=ultrafine) guess=(read,tcheck) s
 table=(opt,rrhf)
 ----------------------------------------------------------------------
 -----
 title
 -----
 Symbolic Z-matrix:
 Charge =  0 Multiplicity = 1

 SCF Done:  E(RHF) =  -718.198977892     A.U. after   15 cycles
 Normal termination of Gaussian 16 at Wed Apr  9 02:19:16 2025.
 Gaussian 16:  ES64L-G16RevC.01  3-Jul-2019

 ----------------------------------------------------------------------
 #t hf aug-cc-pvdz iop(5/13=1,5/36=2,99/5=2) pseudo=read geom=check gue
 ss=(read,tcheck) scf=(maxcycle=1)
 ----------------------------------------------------------------------
 -----
 title
 -----
 Structure from the checkpoint file:  "CR20_16_mol3.chk"
 Charge =  0 Multiplicity = 1

                         Standard orientation:
 ---------------------------------------------------------------------
 Center     Atomic      Atomic             Coordinates (Angstroms)
 Number     Number       Type             X           Y           Z
 ---------------------------------------------------------------------
      1          6           0        1.105588    0.176772    0.020028
      2          6           0       -1.370052   -0.020513   -0.301969
      3          8           0       -0.776248    1.262344   -0.464806
      4          7           0        0.572241    1.331147   -0.073172
      5         16           0        0.052835   -1.198294   -0.303378
      6          6           0        2.541756    0.003884    0.384919
      7          1           0        2.642505   -0.555043    1.315873
      8          1           0        3.069888   -0.549250   -0.393112
      9          1           0        3.004160    0.981153    0.501928
     10          1           0       -2.017914   -0.198988   -1.154737
     11          8           0       -2.170824   -0.111947    0.822503
     12          1           0       -1.636860    0.012758    1.616862
 ---------------------------------------------------------------------

 SCF Done:  E(RHF) =  -719.830274004     A.U. after    2 cycles

 The electronic state is 1-A.
 Alpha  occ. eigenvalues --  -75.71476 -21.10244 -21.09203 -15.78947 -13.16444
 Alpha  occ. eigenvalues --  -13.16071 -13.04870 -11.49267 -11.46819 -11.40721
 Alpha  occ. eigenvalues --   -8.05893  -1.87099  -1.72349  -1.33339  -1.18072
 Alpha  occ. eigenvalues --   -1.08113  -0.90712  -0.77698  -0.70035  -0.65026
 Alpha  occ. eigenvalues --   -0.62035  -0.60858  -0.56615  -0.54072  -0.50557
 Alpha  occ. eigenvalues --   -0.46414  -0.43268  -0.36906  -0.33043  -0.31216
 Alpha  occ. eigenvalues --   -0.24366
 Alpha virt. eigenvalues --    0.02781   0.04450   0.05352   0.06316   0.06570
 Alpha virt. eigenvalues --    0.07963   0.09724   0.10880   0.12094   0.12444
 Alpha virt. eigenvalues --    0.13234   0.13327   0.13500   0.14521   0.15380

 Mulliken charges:
               1
     1  C    2.064706
     2  C    1.570526
     3  O   -2.693899
     4  N   -1.309213
     5  S    0.899361
     6  C   -4.169700
     7  H    1.273896
     8  H    1.270374
     9  H    1.316629
    10  H    1.705062
    11  O   -2.799093
    12  H    0.871351
 Sum of Mulliken charges =  -0.00000

 Dipole moment (field-independent basis, Debye):
    X=              0.5996    Y=             -2.7495    Z=              0.0000  Tot=              2.8141

 Test job not archived.
 1\1\GINC-SE080\SP\RHF\Aug-CC-pVDZ\C3H5N1O2S1\OHZDE\09-Apr-2025\0\\#t h
 f aug-cc-pvdz iop(5/13=1,5/36=2,99/5=2) pseudo=read geom=check guess=(
 read,tcheck) scf=(maxcycle=1)\\title\\0,1\C,0,1.105588,0.176772,0.0200
 28\C,0,-1.370052,-0.020513,-0.301969\O,0,-0.776248,1.262344,-0.464806\
 N,0,0.572241,1.331147,-0.073172\S,0,0.052835,-1.198294,-0.303378\C,0,2
 .541756,0.003884,0.384919\H,0,2.642505,-0.555043,1.315873\H,0,3.069888
 ,-0.54925,-0.393112\H,0,3.00416,0.981153,0.501928\H,0,-2.017914,-0.198
 988,-1.154737\O,0,-2.170824,-0.111947,0.822503\H,0,-1.63686,0.012758,1

 Normal termination of Gaussian 16 at Wed Apr  9 02:19:20 2025.
