 Gaussian 16, Revision C.01,

 ----------------------------------------------------------------------
 #t hf aug-cc-pvdz symm=none int=(grid=ultrafine) guess=(read,tcheck) s
 table=(opt,rrhf)
 ----------------------------------------------------------------------
 -----
 title
 -----
 Symbolic Z-matrix:
 Charge =  0 Multiplicity = 1

 SCF Done:  E(RHF) =  -212.778117174     A.U. after   12 cycles
 Normal termination of Gaussian 16 at Wed Apr  9 02:19:05 2025.
 Gaussian 16:  ES64L-G16RevC.01  3-Jul-2019

 ----------------------------------------------------------------------
 #t hf aug-cc-pvdz iop(5/13=1,5/36=2,99/5=2) pseudo=read geom=check gue
 ss=(read,tcheck) scf=(maxcycle=1)
 ----------------------------------------------------------------------
 -----
 title
 -----
 Structure from the checkpoint file:  "CR20_18_mol2.chk"
 Charge =  0 Multiplicity = 1

                         Standard orientation:
 ---------------------------------------------------------------------
 Center     Atomic      Atomic             Coordinates (Angstroms)
 Number     Number       Type             X           Y           Z
 ---------------------------------------------------------------------
      1          6           0        0.000000    0.400214   -0.000000
      2          1           0       -0.464362    1.390354    0.000000
      3          8           0        1.146369    0.135415   -0.000000
      4          9           0       -0.967399   -0.541663    0.000000
 ---------------------------------------------------------------------

 SCF Done:  E(RHF) =  -213.580520265     A.U. after    2 cycles

 The electronic state is 1-A'.
 Alpha  occ. eigenvalues --  -29.31883 -21.11046 -11.55795  -1.77608  -1.07563
 Alpha  occ. eigenvalues --   -0.77161  -0.60595  -0.56483  -0.44446  -0.32949
 Alpha  occ. eigenvalues --   -0.30977  -0.29864
 Alpha virt. eigenvalues --    0.03787   0.09647   0.10081   0.11704   0.15595
 Alpha virt. eigenvalues --    0.16049   0.21225   0.22293   0.25491   0.26569
 Alpha virt. eigenvalues --    0.30352   0.32618   0.33010   0.35382   0.37384

 Mulliken charges:
               1
     1  C    0.214718
     2  H    1.389649
     3  O   -2.306604
     4  F    0.702238
 Sum of Mulliken charges =  -0.00000

 Dipole moment (field-independent basis, Debye):
    X=             -2.9371    Y=             -0.9095    Z=              0.0000  Tot=              3.0747

 Test job not archived.
 1\1\GINC-SE455\SP\RHF\Aug-CC-pVDZ\C1H1F1O1\OHZDE\09-Apr-2025\0\\#t hf
 aug-cc-pvdz iop(5/13=1,5/36=2,99/5=2) pseudo=read geom=check guess=(re
 ad,tcheck) scf=(maxcycle=1)\\title\\0,1\C,0,0.,0.400214,0.\H,0,-0.4643
 62,1.390354,0.\O,0,1.146369,0.135415,0.\F,0,-0.967399,-0.541663,0.\\Ve
 rsion=ES64L-G16RevC.01\State=1-A'\HF=-213.5805203\RMSD=5.161e-02\Dipol
 e=-1.1555618,-0.3578121,0.\Quadrupole=-0.7958553,0.4737389,0.3221164,0
 .402295,0.,0.\PG=CS [SG(C1H1F1O1)]\\@

 Normal termination of Gaussian 16 at Wed Apr  9 02:19:06 2025.
