 Gaussian 16, Revision C.01,

 ----------------------------------------------------------------------
 #t hf aug-cc-pvdz symm=none int=(grid=ultrafine) guess=(read,tcheck) s
 table=(opt,rrhf)
 ----------------------------------------------------------------------
 -----
 title
 -----
 Symbolic Z-matrix:
 Charge =  0 Multiplicity = 1

 SCF Done:  E(RHF) =  -717.052020752     A.U. after   15 cycles
 Normal termination of Gaussian 16 at Wed Apr  9 02:19:43 2025.
 Gaussian 16:  ES64L-G16RevC.01  3-Jul-2019

 ----------------------------------------------------------------------
 #t hf aug-cc-pvdz iop(5/13=1,5/36=2,99/5=2) pseudo=read geom=check gue
 ss=(read,tcheck) scf=(maxcycle=1)
 ----------------------------------------------------------------------
 -----
 title
 -----
 Structure from the checkpoint file:  "CR20_20_mol3.chk"
 Charge =  0 Multiplicity = 1

                         Standard orientation:
 ---------------------------------------------------------------------
 Center     Atomic      Atomic             Coordinates (Angstroms)
 Number     Number       Type             X           Y           Z
 ---------------------------------------------------------------------
      1          6           0        0.000000    1.121289    0.000000
      2          6           0       -0.218304   -1.340504    0.000000
      3          8           0       -1.383087   -0.619211    0.000000
      4          7           0       -1.232135    0.773731    0.000000
      5         16           0        1.158472   -0.188411    0.000000
      6          6           0        0.398898    2.556510    0.000000
      7          1           0        0.996347    2.789860    0.881949
      8          1           0        0.996347    2.789860   -0.881949
      9          1           0       -0.495456    3.175668    0.000000
     10          8           0       -0.178338   -2.528377    0.000000
 ---------------------------------------------------------------------

 SCF Done:  E(RHF) =  -718.647111217     A.U. after    2 cycles

 The electronic state is 1-A'.
 Alpha  occ. eigenvalues --  -75.75272 -21.14159 -21.08397 -15.81692 -13.20478
 Alpha  occ. eigenvalues --  -13.17871 -13.07297 -11.55344 -11.49278 -11.42436
 Alpha  occ. eigenvalues --   -8.09798  -1.91706  -1.71975  -1.36418  -1.20692
 Alpha  occ. eigenvalues --   -1.10370  -0.83593  -0.79830  -0.65853  -0.65760
 Alpha  occ. eigenvalues --   -0.61490  -0.60103  -0.57790  -0.51752  -0.49677
 Alpha  occ. eigenvalues --   -0.48088  -0.38974  -0.37049  -0.29592  -0.27144
 Alpha virt. eigenvalues --    0.02029   0.05189   0.05772   0.06181   0.08082
 Alpha virt. eigenvalues --    0.09004   0.10824   0.11047   0.11684   0.12797
 Alpha virt. eigenvalues --    0.12939   0.13775   0.13777   0.14526   0.16272

 Mulliken charges:
               1
     1  C    1.694319
     2  C    3.945975
     3  O   -2.533791
     4  N   -1.220403
     5  S    1.255586
     6  C   -3.922675
     7  H    1.253998
     8  H    1.253998
     9  H    1.288547
    10  O   -3.015554
 Sum of Mulliken charges =   0.00000

 Dipole moment (field-independent basis, Debye):
    X=              3.3903    Y=              2.3499    Z=             -0.0000  Tot=              4.1251

 Test job not archived.
 1\1\GINC-SE159\SP\RHF\Aug-CC-pVDZ\C3H3N1O2S1\OHZDE\09-Apr-2025\0\\#t h
 f aug-cc-pvdz iop(5/13=1,5/36=2,99/5=2) pseudo=read geom=check guess=(
 read,tcheck) scf=(maxcycle=1)\\title\\0,1\C,0,0.,1.121289,0.\C,0,-0.21
 8304,-1.340504,0.\O,0,-1.383087,-0.619211,0.\N,0,-1.232135,0.773731,0.
 \S,0,1.158472,-0.188411,0.\C,0,0.398898,2.55651,0.\H,0,0.996347,2.7898
 6,0.881949\H,0,0.996347,2.78986,-0.881949\H,0,-0.495456,3.175668,0.\O,
 0,-0.178338,-2.528377,0.\\Version=ES64L-G16RevC.01\State=1-A'\HF=-718.
 6471112\RMSD=1.994e-01\Dipole=1.3338613,0.9245308,0.\Quadrupole=0.9167

 Normal termination of Gaussian 16 at Wed Apr  9 02:19:50 2025.
