 Gaussian 16, Revision C.01,

 ----------------------------------------------------------------------
 #t hf aug-cc-pvdz symm=none int=(grid=ultrafine) guess=(read,tcheck) s
 table=(opt,rrhf)
 ----------------------------------------------------------------------
 -----
 title
 -----
 Symbolic Z-matrix:
 Charge =  0 Multiplicity = 1

 SCF Done:  E(RHF) =  -682.354654921     A.U. after   14 cycles
 Normal termination of Gaussian 16 at Wed Apr  9 02:19:28 2025.
 Gaussian 16:  ES64L-G16RevC.01  3-Jul-2019

 ----------------------------------------------------------------------
 #t hf aug-cc-pvdz iop(5/13=1,5/36=2,99/5=2) pseudo=read geom=check gue
 ss=(read,tcheck) scf=(maxcycle=1)
 ----------------------------------------------------------------------
 -----
 title
 -----
 Structure from the checkpoint file:  "CR20_13_mol3.chk"
 Charge =  0 Multiplicity = 1

                         Standard orientation:
 ---------------------------------------------------------------------
 Center     Atomic      Atomic             Coordinates (Angstroms)
 Number     Number       Type             X           Y           Z
 ---------------------------------------------------------------------
      1          6           0        0.326292    0.357313    0.208725
      2          6           0       -2.042568   -0.278709    0.065325
      3          8           0       -1.715471    1.029909   -0.380937
      4          7           0       -0.399820    1.381272   -0.006945
      5         16           0       -0.473962   -1.220509    0.043145
      6          6           0        1.780303    0.479862    0.541354
      7          1           0        1.949556    0.052326    1.532440
      8          1           0       -2.438330   -0.250978    1.083946
      9          1           0       -2.767427   -0.702966   -0.623847
     10          6           0        2.695656   -0.206573   -0.479171
     11          1           0        3.738560   -0.072638   -0.193033
     12          1           0        2.501003   -1.277813   -0.538442
     13          1           0        2.557795    0.216713   -1.473858
     14          1           0        2.006646    1.543976    0.601183
 ---------------------------------------------------------------------

 SCF Done:  E(RHF) =  -683.897368837     A.U. after    2 cycles

 The electronic state is 1-A.
 Alpha  occ. eigenvalues --  -75.70521 -21.08357 -15.78069 -13.15270 -13.14035
 Alpha  occ. eigenvalues --  -13.03507 -11.46932 -11.44781 -11.42045 -11.37844
 Alpha  occ. eigenvalues --   -8.04872  -1.83442  -1.33058  -1.19402  -1.15354
 Alpha  occ. eigenvalues --   -0.94127  -0.91396  -0.75783  -0.68072  -0.65878
 Alpha  occ. eigenvalues --   -0.63480  -0.58003  -0.54960  -0.53249  -0.49100
 Alpha  occ. eigenvalues --   -0.47693  -0.46604  -0.41320  -0.35449  -0.31239
 Alpha  occ. eigenvalues --   -0.23248
 Alpha virt. eigenvalues --    0.03286   0.03942   0.05181   0.05929   0.06263
 Alpha virt. eigenvalues --    0.06755   0.06916   0.08854   0.11208   0.11392
 Alpha virt. eigenvalues --    0.11988   0.12449   0.13246   0.13765   0.14187

 Mulliken charges:
               1
     1  C    2.996321
     2  C   -2.406622
     3  O   -2.346828
     4  N   -1.423993
     5  S    0.994796
     6  C   -3.596845
     7  H    1.322843
     8  H    1.488882
     9  H    1.444249
    10  C   -3.818608
    11  H    1.163641
    12  H    1.425551
    13  H    1.324148
    14  H    1.432466
 Sum of Mulliken charges =  -0.00000

 Dipole moment (field-independent basis, Debye):
    X=              0.6668    Y=             -2.7881    Z=              0.1842  Tot=              2.8726

 Test job not archived.
 1\1\GINC-SE403\SP\RHF\Aug-CC-pVDZ\C4H7N1O1S1\OHZDE\09-Apr-2025\0\\#t h
 f aug-cc-pvdz iop(5/13=1,5/36=2,99/5=2) pseudo=read geom=check guess=(
 read,tcheck) scf=(maxcycle=1)\\title\\0,1\C,0,0.326292,0.357313,0.2087
 25\C,0,-2.042568,-0.278709,0.065325\O,0,-1.715471,1.029909,-0.380937\N
 ,0,-0.39982,1.381272,-0.006945\S,0,-0.473962,-1.220509,0.043145\C,0,1.
 780303,0.479862,0.541354\H,0,1.949556,0.052326,1.53244\H,0,-2.43833,-0
 .250978,1.083946\H,0,-2.767427,-0.702966,-0.623847\C,0,2.695656,-0.206
 573,-0.479171\H,0,3.73856,-0.072638,-0.193033\H,0,2.501003,-1.277813,-

 Normal termination of Gaussian 16 at Wed Apr  9 02:19:34 2025.
