 Gaussian 16, Revision C.01,

 ----------------------------------------------------------------------
 #t hf aug-cc-pvdz symm=none int=(grid=ultrafine) guess=(read,tcheck) s
 table=(opt,rrhf)
 ----------------------------------------------------------------------
 -----
 title
 -----
 Symbolic Z-matrix:
 Charge =  0 Multiplicity = 1

 SCF Done:  E(RHF) =  -305.686875245     A.U. after   14 cycles
 Normal termination of Gaussian 16 at Wed Apr  9 02:19:37 2025.
 Gaussian 16:  ES64L-G16RevC.01  3-Jul-2019

 ----------------------------------------------------------------------
 #t hf aug-cc-pvdz iop(5/13=1,5/36=2,99/5=2) pseudo=read geom=check gue
 ss=(read,tcheck) scf=(maxcycle=1)
 ----------------------------------------------------------------------
 -----
 title
 -----
 Structure from the checkpoint file:  "CR20_4_mol1.chk"
 Charge =  0 Multiplicity = 1

                         Standard orientation:
 ---------------------------------------------------------------------
 Center     Atomic      Atomic             Coordinates (Angstroms)
 Number     Number       Type             X           Y           Z
 ---------------------------------------------------------------------
      1          6           0        1.093623    0.287751    0.000000
      2          7           0        0.000000    0.790900    0.000000
      3          6           0       -1.335492    0.308292    0.000000
      4          1           0       -1.851762    0.653957    0.895519
      5          9           0       -1.380418   -1.079591    0.000000
      6          1           0       -1.851762    0.653957   -0.895519
      7          8           0        2.197313   -0.088019    0.000000
 ---------------------------------------------------------------------

 SCF Done:  E(RHF) =  -306.906234544     A.U. after    2 cycles

 The electronic state is 1-A'.
 Alpha  occ. eigenvalues --  -29.28059 -21.13268 -15.77877 -11.58902 -11.49975
 Alpha  occ. eigenvalues --   -1.77925  -1.44675  -1.13781  -0.79663  -0.71524
 Alpha  occ. eigenvalues --   -0.71130  -0.62810  -0.58575  -0.57157  -0.42721
 Alpha  occ. eigenvalues --   -0.36524  -0.34925  -0.27765  -0.27663
 Alpha virt. eigenvalues --    0.03740   0.05453   0.08006   0.10398   0.10976
 Alpha virt. eigenvalues --    0.11477   0.12374   0.14106   0.15580   0.16362
 Alpha virt. eigenvalues --    0.18429   0.19250   0.20847   0.22730   0.24410

 Mulliken charges:
               1
     1  C    3.748493
     2  N   -2.406101
     3  C   -2.184140
     4  H    1.384365
     5  F    0.417254
     6  H    1.384365
     7  O   -2.344236
 Sum of Mulliken charges =  -0.00000

 Dipole moment (field-independent basis, Debye):
    X=             -1.0402    Y=             -1.9029    Z=              0.0000  Tot=              2.1686

 Test job not archived.
 1\1\GINC-SE165\SP\RHF\Aug-CC-pVDZ\C2H2F1N1O1\OHZDE\09-Apr-2025\0\\#t h
 f aug-cc-pvdz iop(5/13=1,5/36=2,99/5=2) pseudo=read geom=check guess=(
 read,tcheck) scf=(maxcycle=1)\\title\\0,1\C,0,1.093623,0.287751,0.\N,0
 ,0.,0.7909,0.\C,0,-1.335492,0.308292,0.\H,0,-1.851762,0.653957,0.89551
 9\F,0,-1.380418,-1.079591,0.\H,0,-1.851762,0.653957,-0.895519\O,0,2.19
 7313,-0.088019,0.\\Version=ES64L-G16RevC.01\State=1-A'\HF=-306.9062345
 \RMSD=6.105e-02\Dipole=-0.409251,-0.7486524,0.\Quadrupole=0.8623801,-0
 .9153892,0.0530091,0.8460189,0.,0.\PG=CS [SG(C2F1N1O1),X(H2)]\\@

 Normal termination of Gaussian 16 at Wed Apr  9 02:19:43 2025.
