 Gaussian 16, Revision C.01,

 ----------------------------------------------------------------------
 #t hf aug-cc-pvdz symm=none int=(grid=ultrafine) guess=(read,tcheck) s
 table=(opt,rrhf)
 ----------------------------------------------------------------------
 -----
 title
 -----
 Symbolic Z-matrix:
 Charge =  0 Multiplicity = 1

 SCF Done:  E(RHF) =  -698.365193961     A.U. after   15 cycles
 Normal termination of Gaussian 16 at Wed Apr  9 02:19:33 2025.
 Gaussian 16:  ES64L-G16RevC.01  3-Jul-2019

 ----------------------------------------------------------------------
 #t hf aug-cc-pvdz iop(5/13=1,5/36=2,99/5=2) pseudo=read geom=check gue
 ss=(read,tcheck) scf=(maxcycle=1)
 ----------------------------------------------------------------------
 -----
 title
 -----
 Structure from the checkpoint file:  "CR20_17_mol3.chk"
 Charge =  0 Multiplicity = 1

                         Standard orientation:
 ---------------------------------------------------------------------
 Center     Atomic      Atomic             Coordinates (Angstroms)
 Number     Number       Type             X           Y           Z
 ---------------------------------------------------------------------
      1          6           0        1.118374    0.180849    0.031049
      2          6           0       -1.355935   -0.030421   -0.323650
      3          1           0       -1.959444   -0.169976   -1.217080
      4          8           0       -0.745731    1.281209   -0.470859
      5          7           0        0.589785    1.337209   -0.057925
      6         16           0        0.065703   -1.191641   -0.318419
      7          7           0       -2.171696   -0.202282    0.825734
      8          1           0       -1.666434   -0.054547    1.689879
      9          1           0       -2.989326    0.394467    0.798860
     10          6           0        2.548825   -0.006195    0.410049
     11          1           0        2.636457   -0.573600    1.337349
     12          1           0        3.082175   -0.556434   -0.366859
     13          1           0        3.016967    0.966774    0.540074
 ---------------------------------------------------------------------

 SCF Done:  E(RHF) =  -699.957270225     A.U. after    2 cycles

 The electronic state is 1-A.
 Alpha  occ. eigenvalues --  -75.70562 -21.07731 -15.77889 -15.75505 -13.16646
 Alpha  occ. eigenvalues --  -13.15070 -13.04637 -11.47299 -11.45783 -11.39978
 Alpha  occ. eigenvalues --   -8.04970  -1.83400  -1.35913  -1.31820  -1.15232
 Alpha  occ. eigenvalues --   -1.07204  -0.89146  -0.76769  -0.71425  -0.64330
 Alpha  occ. eigenvalues --   -0.62533  -0.61062  -0.59512  -0.53346  -0.49848
 Alpha  occ. eigenvalues --   -0.47062  -0.45486  -0.35752  -0.33442  -0.31950
 Alpha  occ. eigenvalues --   -0.23567
 Alpha virt. eigenvalues --    0.03128   0.04261   0.05196   0.06229   0.06617
 Alpha virt. eigenvalues --    0.07335   0.08359   0.10146   0.11505   0.12111
 Alpha virt. eigenvalues --    0.13058   0.13540   0.13824   0.14066   0.15092

 Mulliken charges:
               1
     1  C    2.068427
     2  C    0.741332
     3  H    1.780912
     4  O   -2.711830
     5  N   -1.386354
     6  S    1.091020
     7  N   -2.470332
     8  H    0.657444
     9  H    0.515140
    10  C   -4.138280
    11  H    1.269801
    12  H    1.272875
    13  H    1.309844
 Sum of Mulliken charges =  -0.00000

 Dipole moment (field-independent basis, Debye):
    X=             -0.1170    Y=             -2.0355    Z=              0.1081  Tot=              2.0418

 Test job not archived.
 1\1\GINC-SE252\SP\RHF\Aug-CC-pVDZ\C3H6N2O1S1\OHZDE\09-Apr-2025\0\\#t h
 f aug-cc-pvdz iop(5/13=1,5/36=2,99/5=2) pseudo=read geom=check guess=(
 read,tcheck) scf=(maxcycle=1)\\title\\0,1\C,0,1.118374,0.180849,0.0310
 49\C,0,-1.355935,-0.030421,-0.32365\H,0,-1.959444,-0.169976,-1.21708\O
 ,0,-0.745731,1.281209,-0.470859\N,0,0.589785,1.337209,-0.057925\S,0,0.
 065703,-1.191641,-0.318419\N,0,-2.171696,-0.202282,0.825734\H,0,-1.666
 434,-0.054547,1.689879\H,0,-2.989326,0.394466,0.79886\C,0,2.548825,-0.
 006195,0.410049\H,0,2.636457,-0.5736,1.337349\H,0,3.082175,-0.556434,-

 Normal termination of Gaussian 16 at Wed Apr  9 02:19:37 2025.
