 Gaussian 16, Revision C.01,

 ----------------------------------------------------------------------
 #t hf aug-cc-pvdz symm=none int=(grid=ultrafine) guess=(read,tcheck) s
 table=(opt,rrhf)
 ----------------------------------------------------------------------
 -----
 title
 -----
 Symbolic Z-matrix:
 Charge =  0 Multiplicity = 1

 SCF Done:  E(RHF) =  -604.267078641     A.U. after   14 cycles
 Normal termination of Gaussian 16 at Wed Apr  9 02:18:35 2025.
 Gaussian 16:  ES64L-G16RevC.01  3-Jul-2019

 ----------------------------------------------------------------------
 #t hf aug-cc-pvdz iop(5/13=1,5/36=2,99/5=2) pseudo=read geom=check gue
 ss=(read,tcheck) scf=(maxcycle=1)
 ----------------------------------------------------------------------
 -----
 title
 -----
 Structure from the checkpoint file:  "CR20_11_mol3.chk"
 Charge =  0 Multiplicity = 1

                         Standard orientation:
 ---------------------------------------------------------------------
 Center     Atomic      Atomic             Coordinates (Angstroms)
 Number     Number       Type             X           Y           Z
 ---------------------------------------------------------------------
      1          6           0       -0.021128    1.214372    0.086140
      2          6           0       -0.108628   -1.221844    0.170446
      3          8           0       -1.315493   -0.557579   -0.189681
      4          7           0       -1.231577    0.832938    0.032442
      5         16           0        1.239609    0.001101   -0.073611
      6          1           0       -0.137086   -1.527435    1.219029
      7          1           0        0.017096   -2.078554   -0.485332
      8          1           0        0.209766    2.263270    0.194920
 ---------------------------------------------------------------------

 SCF Done:  E(RHF) =  -605.397185908     A.U. after    2 cycles

 The electronic state is 1-A.
 Alpha  occ. eigenvalues --  -75.71475 -21.09243 -15.79673 -13.14668 -13.13557
 Alpha  occ. eigenvalues --  -13.04114 -11.45288 -11.45037  -8.05833  -1.84308
 Alpha  occ. eigenvalues --   -1.30294  -1.19913  -0.92544  -0.83178  -0.69514
 Alpha  occ. eigenvalues --   -0.67423  -0.54608  -0.52110  -0.51154  -0.42560
 Alpha  occ. eigenvalues --   -0.37057  -0.32766  -0.23525
 Alpha virt. eigenvalues --    0.03259   0.03918   0.05601   0.06722   0.09893
 Alpha virt. eigenvalues --    0.10945   0.11568   0.12362   0.12861   0.13764
 Alpha virt. eigenvalues --    0.14832   0.15932   0.17175   0.18517   0.19121

 Mulliken charges:
               1
     1  C   -0.404926
     2  C   -2.250335
     3  O   -2.283636
     4  N   -0.750895
     5  S    1.308387
     6  H    1.476479
     7  H    1.389166
     8  H    1.515760
 Sum of Mulliken charges =  -0.00000

 Dipole moment (field-independent basis, Debye):
    X=              2.9432    Y=             -0.9061    Z=             -0.0128  Tot=              3.0795

 Test job not archived.
 1\1\GINC-SE403\SP\RHF\Aug-CC-pVDZ\C2H3N1O1S1\OHZDE\09-Apr-2025\0\\#t h
 f aug-cc-pvdz iop(5/13=1,5/36=2,99/5=2) pseudo=read geom=check guess=(
 read,tcheck) scf=(maxcycle=1)\\title\\0,1\C,0,-0.021126,1.214372,0.086
 14\C,0,-0.10863,-1.221844,0.170446\O,0,-1.315494,-0.557577,-0.189681\N
 ,0,-1.231576,0.83294,0.032442\S,0,1.239609,0.001099,-0.073611\H,0,-0.1
 37088,-1.527435,1.219029\H,0,0.017093,-2.078554,-0.485332\H,0,0.209769
 ,2.26327,0.19492\\Version=ES64L-G16RevC.01\State=1-A\HF=-605.3971859\R
 MSD=9.339e-02\Dipole=1.1579487,-0.3564724,-0.0050225\Quadrupole=-1.503

 Normal termination of Gaussian 16 at Wed Apr  9 02:18:38 2025.
