 Gaussian 16, Revision C.01,

 ----------------------------------------------------------------------
 #t hf aug-cc-pvdz symm=none int=(grid=ultrafine) guess=(read,tcheck) s
 table=(opt,rrhf)
 ----------------------------------------------------------------------
 -----
 title
 -----
 Symbolic Z-matrix:
 Charge =  0 Multiplicity = 1

 SCF Done:  E(RHF) =  -742.191778942     A.U. after   15 cycles
 Normal termination of Gaussian 16 at Wed Apr  9 02:19:46 2025.
 Gaussian 16:  ES64L-G16RevC.01  3-Jul-2019

 ----------------------------------------------------------------------
 #t hf aug-cc-pvdz iop(5/13=1,5/36=2,99/5=2) pseudo=read geom=check gue
 ss=(read,tcheck) scf=(maxcycle=1)
 ----------------------------------------------------------------------
 -----
 title
 -----
 Structure from the checkpoint file:  "CR20_18_mol3.chk"
 Charge =  0 Multiplicity = 1

                         Standard orientation:
 ---------------------------------------------------------------------
 Center     Atomic      Atomic             Coordinates (Angstroms)
 Number     Number       Type             X           Y           Z
 ---------------------------------------------------------------------
      1          6           0        1.086160    0.183157    0.016115
      2          6           0       -1.349736   -0.024343   -0.290771
      3          8           0       -0.808878    1.236630   -0.478626
      4          7           0        0.547912    1.333859   -0.080917
      5         16           0        0.037138   -1.197151   -0.308965
      6          6           0        2.522072    0.014714    0.380915
      7          1           0        2.618615   -0.520582    1.325809
      8          1           0        3.046605   -0.559291   -0.384130
      9          1           0        2.987581    0.992780    0.474378
     10          1           0       -2.087944   -0.220132   -1.063697
     11          9           0       -2.008267   -0.089953    0.927661
 ---------------------------------------------------------------------

 SCF Done:  E(RHF) =  -743.846757094     A.U. after    2 cycles

 The electronic state is 1-A.
 Alpha  occ. eigenvalues --  -75.72562 -29.27513 -21.10726 -15.79720 -13.17205
 Alpha  occ. eigenvalues --  -13.17140 -13.05460 -11.51771 -11.47583 -11.41220
 Alpha  occ. eigenvalues --   -8.07080  -1.87363  -1.34813  -1.24980  -1.09018
 Alpha  occ. eigenvalues --   -1.01001  -0.79210  -0.75833  -0.70016  -0.62612
 Alpha  occ. eigenvalues --   -0.61985  -0.55027  -0.54347  -0.51333  -0.46156
 Alpha  occ. eigenvalues --   -0.39796  -0.37997  -0.33886  -0.27807  -0.25732
 Alpha  occ. eigenvalues --   -0.22592
 Alpha virt. eigenvalues --    0.02876   0.04317   0.05934   0.06414   0.07663
 Alpha virt. eigenvalues --    0.09318   0.10464   0.11980   0.12171   0.12973
 Alpha virt. eigenvalues --    0.13330   0.14121   0.14168   0.14898   0.15933

 Mulliken charges:
               1
     1  C    1.744864
     2  C   -0.517079
     3  O   -2.509598
     4  N   -1.430861
     5  S    0.884405
     6  C   -3.929092
     7  H    1.267639
     8  H    1.248357
     9  H    1.308424
    10  H    1.539819
    11  F    0.393124
 Sum of Mulliken charges =  -0.00000

 Dipole moment (field-independent basis, Debye):
    X=             -0.8925    Y=             -2.9326    Z=              1.5753  Tot=              3.4465

 Test job not archived.
 1\1\GINC-SE092\SP\RHF\Aug-CC-pVDZ\C3H4F1N1O1S1\OHZDE\09-Apr-2025\0\\#t
  hf aug-cc-pvdz iop(5/13=1,5/36=2,99/5=2) pseudo=read geom=check guess
 =(read,tcheck) scf=(maxcycle=1)\\title\\0,1\C,0,1.08616,0.183157,0.016
 115\C,0,-1.349736,-0.024343,-0.290771\O,0,-0.808878,1.23663,-0.478626\
 N,0,0.547912,1.333859,-0.080917\S,0,0.037138,-1.197151,-0.308965\C,0,2
 .522072,0.014714,0.380915\H,0,2.618615,-0.520582,1.325809\H,0,3.046605
 ,-0.559291,-0.38413\H,0,2.987581,0.99278,0.474378\H,0,-2.087944,-0.220
 132,-1.063697\F,0,-2.008267,-0.089953,0.927661\\Version=ES64L-G16RevC.

 Normal termination of Gaussian 16 at Wed Apr  9 02:19:50 2025.
