 Gaussian 16, Revision C.01,

 ----------------------------------------------------------------------
 #t hf aug-cc-pvdz symm=none int=(grid=ultrafine) guess=(read,tcheck) s
 table=(opt,rrhf)
 ----------------------------------------------------------------------
 -----
 title
 -----
 Symbolic Z-matrix:
 Charge =  0 Multiplicity = 1

 SCF Done:  E(RHF) =  -721.405036570     A.U. after   15 cycles
 Normal termination of Gaussian 16 at Wed Apr  9 02:20:32 2025.
 Gaussian 16:  ES64L-G16RevC.01  3-Jul-2019

 ----------------------------------------------------------------------
 #t hf aug-cc-pvdz iop(5/13=1,5/36=2,99/5=2) pseudo=read geom=check gue
 ss=(read,tcheck) scf=(maxcycle=1)
 ----------------------------------------------------------------------
 -----
 title
 -----
 Structure from the checkpoint file:  "CR20_19_mol3.chk"
 Charge =  0 Multiplicity = 1

                         Standard orientation:
 ---------------------------------------------------------------------
 Center     Atomic      Atomic             Coordinates (Angstroms)
 Number     Number       Type             X           Y           Z
 ---------------------------------------------------------------------
      1          6           0        1.398503    0.145372   -0.070837
      2          6           0       -1.101738    0.050284    0.029240
      3          8           0       -0.486532    1.243956   -0.498891
      4          7           0        0.898466    1.298696   -0.284384
      5         16           0        0.267995   -1.208165   -0.034131
      6          6           0        2.865728   -0.050966    0.109629
      7          1           0        3.086660   -0.448741    1.100772
      8          1           0        3.248177   -0.761886   -0.624853
      9          1           0        3.376802    0.900595   -0.017489
     10          6           0       -1.537457    0.289765    1.469856
     11          1           0       -2.293680    1.076153    1.493205
     12          1           0       -1.960439   -0.618668    1.898732
     13          1           0       -0.692873    0.602078    2.081264
     14          6           0       -2.257911   -0.313384   -0.885008
     15          1           0       -2.760995   -1.212935   -0.531147
     16          1           0       -2.982195    0.502088   -0.887967
     17          1           0       -1.909137   -0.476982   -1.901876
 ---------------------------------------------------------------------

 SCF Done:  E(RHF) =  -723.159489666     A.U. after    2 cycles

 The electronic state is 1-A.
 Alpha  occ. eigenvalues --  -75.69843 -21.07281 -15.77520 -13.16646 -13.15035
 Alpha  occ. eigenvalues --  -13.06042 -11.48800 -11.46023 -11.40643 -11.39758
 Alpha  occ. eigenvalues --  -11.37315  -8.04216  -1.83390  -1.32000  -1.24850
 Alpha  occ. eigenvalues --   -1.07752  -1.06608  -1.03159  -0.80972  -0.76017
 Alpha  occ. eigenvalues --   -0.65034  -0.63516  -0.60843  -0.60426  -0.59176
 Alpha  occ. eigenvalues --   -0.57227  -0.55593  -0.51232  -0.49265  -0.46962
 Alpha  occ. eigenvalues --   -0.43438  -0.38526  -0.34904  -0.30825  -0.22902
 Alpha virt. eigenvalues --    0.03228   0.03972   0.05518   0.05959   0.06212
 Alpha virt. eigenvalues --    0.06417   0.06685   0.07565   0.08226   0.08945
 Alpha virt. eigenvalues --    0.10245   0.10844   0.12632   0.12770   0.13413

 Mulliken charges:
               1
     1  C    2.714955
     2  C    3.674668
     3  O   -3.364136
     4  N   -1.515374
     5  S    0.719476
     6  C   -4.994110
     7  H    1.277923
     8  H    1.280623
     9  H    1.365906
    10  C   -4.580391
    11  H    1.224421
    12  H    1.262021
    13  H    1.442517
    14  C   -4.263841
    15  H    1.168156
    16  H    1.215126
    17  H    1.372062
 Sum of Mulliken charges =  -0.00000

 Dipole moment (field-independent basis, Debye):
    X=             -0.4186    Y=             -2.5785    Z=              0.3077  Tot=              2.6303

 Test job not archived.
 1\1\GINC-SE127\SP\RHF\Aug-CC-pVDZ\C5H9N1O1S1\OHZDE\09-Apr-2025\0\\#t h
 f aug-cc-pvdz iop(5/13=1,5/36=2,99/5=2) pseudo=read geom=check guess=(
 read,tcheck) scf=(maxcycle=1)\\title\\0,1\C,0,1.398503,0.145372,-0.070
 837\C,0,-1.101738,0.050284,0.02924\O,0,-0.486532,1.243956,-0.498891\N,
 0,0.898466,1.298696,-0.284384\S,0,0.267995,-1.208165,-0.034131\C,0,2.8
 65728,-0.050966,0.109629\H,0,3.08666,-0.448741,1.100772\H,0,3.248177,-
 0.761886,-0.624853\H,0,3.376802,0.900595,-0.017489\C,0,-1.537457,0.289
 765,1.469856\H,0,-2.29368,1.076153,1.493205\H,0,-1.960439,-0.618668,1.

 Normal termination of Gaussian 16 at Wed Apr  9 02:20:40 2025.
