 Gaussian 16, Revision C.01,

 ----------------------------------------------------------------------
 #t hf aug-cc-pvdz symm=none int=(grid=ultrafine) guess=(read,tcheck) s
 table=(opt,rrhf)
 ----------------------------------------------------------------------
 -----
 title
 -----
 Symbolic Z-matrix:
 Charge =  0 Multiplicity = 1

 SCF Done:  E(RHF) =  -628.327139500     A.U. after   15 cycles
 Normal termination of Gaussian 16 at Wed Apr  9 02:19:03 2025.
 Gaussian 16:  ES64L-G16RevC.01  3-Jul-2019

 ----------------------------------------------------------------------
 #t hf aug-cc-pvdz iop(5/13=1,5/36=2,99/5=2) pseudo=read geom=check gue
 ss=(read,tcheck) scf=(maxcycle=1)
 ----------------------------------------------------------------------
 -----
 title
 -----
 Structure from the checkpoint file:  "CR20_14_mol1.chk"
 Charge =  0 Multiplicity = 1

                         Standard orientation:
 ---------------------------------------------------------------------
 Center     Atomic      Atomic             Coordinates (Angstroms)
 Number     Number       Type             X           Y           Z
 ---------------------------------------------------------------------
      1          6           0        0.000000    0.692790    0.000000
      2         16           0        1.117939    1.794394    0.000000
      3          7           0       -0.912034   -0.080099    0.000000
      4          6           0       -1.217522   -1.459795    0.000000
      5          1           0       -1.787283   -1.709159    0.895651
      6          9           0       -0.069233   -2.236585    0.000000
      7          1           0       -1.787283   -1.709159   -0.895651
 ---------------------------------------------------------------------

 SCF Done:  E(RHF) =  -629.485306295     A.U. after    2 cycles

 The electronic state is 1-A'.
 Alpha  occ. eigenvalues --  -75.70176 -29.28339 -15.79451 -13.22529 -13.01497
 Alpha  occ. eigenvalues --  -13.01469 -11.54685 -11.50628  -8.04510  -1.46886
 Alpha  occ. eigenvalues --   -1.21150  -1.10732  -0.80141  -0.71825  -0.71304
 Alpha  occ. eigenvalues --   -0.57252  -0.52958  -0.52544  -0.40261  -0.31363
 Alpha  occ. eigenvalues --   -0.28244  -0.26179  -0.25973
 Alpha virt. eigenvalues --    0.03291   0.05483   0.05683   0.08329   0.09764
 Alpha virt. eigenvalues --    0.11254   0.11850   0.12787   0.13781   0.14105
 Alpha virt. eigenvalues --    0.15877   0.17004   0.18002   0.20573   0.20597

 Mulliken charges:
               1
     1  C    0.520420
     2  S    1.480989
     3  N   -2.789296
     4  C   -2.446307
     5  H    1.403419
     6  F    0.427357
     7  H    1.403419
 Sum of Mulliken charges =  -0.00000

 Dipole moment (field-independent basis, Debye):
    X=              2.3226    Y=             -0.5550    Z=             -0.0000  Tot=              2.3880

 Test job not archived.
 1\1\GINC-SE344\SP\RHF\Aug-CC-pVDZ\C2H2F1N1S1\OHZDE\09-Apr-2025\0\\#t h
 f aug-cc-pvdz iop(5/13=1,5/36=2,99/5=2) pseudo=read geom=check guess=(
 read,tcheck) scf=(maxcycle=1)\\title\\0,1\C,0,0.,0.69279,0.\S,0,1.1179
 39,1.794394,0.\N,0,-0.912034,-0.080099,0.\C,0,-1.217521,-1.459795,0.\H
 ,0,-1.787282,-1.70916,0.895651\F,0,-0.069232,-2.236585,0.\H,0,-1.78728
 2,-1.70916,-0.895651\\Version=ES64L-G16RevC.01\State=1-A'\HF=-629.4853
 063\RMSD=1.312e-01\Dipole=0.9137888,-0.2183354,0.\Quadrupole=-0.928205
 9,4.2522197,-3.3240138,4.464829,0.,0.\PG=CS [SG(C2F1N1S1),X(H2)]\\@

 Normal termination of Gaussian 16 at Wed Apr  9 02:19:07 2025.
