 Gaussian 16, Revision C.01,

 ----------------------------------------------------------------------
 #t hf aug-cc-pvdz symm=none int=(grid=ultrafine) guess=(read,tcheck) s
 table=(opt,rrhf)
 ----------------------------------------------------------------------
 -----
 title
 -----
 Symbolic Z-matrix:
 Charge =  0 Multiplicity = 1

 SCF Done:  E(RHF) =  -568.507456044     A.U. after   14 cycles
 Normal termination of Gaussian 16 at Wed Apr  9 02:19:07 2025.
 Gaussian 16:  ES64L-G16RevC.01  3-Jul-2019

 ----------------------------------------------------------------------
 #t hf aug-cc-pvdz iop(5/13=1,5/36=2,99/5=2) pseudo=read geom=check gue
 ss=(read,tcheck) scf=(maxcycle=1)
 ----------------------------------------------------------------------
 -----
 title
 -----
 Structure from the checkpoint file:  "CR20_13_mol1.chk"
 Charge =  0 Multiplicity = 1

                         Standard orientation:
 ---------------------------------------------------------------------
 Center     Atomic      Atomic             Coordinates (Angstroms)
 Number     Number       Type             X           Y           Z
 ---------------------------------------------------------------------
      1          6           0       -0.114333   -0.777314    0.000000
      2         16           0       -0.367106   -2.340737    0.000000
      3          7           0        0.000000    0.401172    0.000000
      4          6           0        0.799810    1.591603    0.000000
      5          1           0        1.445951    1.570224    0.881049
      6          1           0        1.445951    1.570224   -0.881049
      7          6           0       -0.055734    2.851447    0.000000
      8          1           0        0.587127    3.731737    0.000000
      9          1           0       -0.691895    2.888497   -0.883504
     10          1           0       -0.691895    2.888497    0.883504
 ---------------------------------------------------------------------

 SCF Done:  E(RHF) =  -569.547973969     A.U. after    2 cycles

 The electronic state is 1-A'.
 Alpha  occ. eigenvalues --  -75.67759 -15.78399 -13.20977 -12.99144 -12.99014
 Alpha  occ. eigenvalues --  -11.53543 -11.46365 -11.38843  -8.02043  -1.43845
 Alpha  occ. eigenvalues --   -1.19710  -1.10666  -0.94239  -0.73114  -0.67403
 Alpha  occ. eigenvalues --   -0.59005  -0.56141  -0.54851  -0.53341  -0.48976
 Alpha  occ. eigenvalues --   -0.48425  -0.25852  -0.24643
 Alpha virt. eigenvalues --    0.02504   0.05015   0.05585   0.05687   0.06490
 Alpha virt. eigenvalues --    0.06532   0.09677   0.09825   0.11050   0.11675
 Alpha virt. eigenvalues --    0.12585   0.13501   0.14803   0.15026   0.17478

 Mulliken charges:
               1
     1  C    1.195879
     2  S    1.502268
     3  N   -3.223429
     4  C   -2.766150
     5  H    1.502053
     6  H    1.502053
     7  C   -3.440468
     8  H    1.185471
     9  H    1.271162
    10  H    1.271162
 Sum of Mulliken charges =   0.00000

 Dipole moment (field-independent basis, Debye):
    X=              0.7361    Y=              0.1230    Z=             -0.0000  Tot=              0.7463

 Test job not archived.
 1\1\GINC-SE273\SP\RHF\Aug-CC-pVDZ\C3H5N1S1\OHZDE\09-Apr-2025\0\\#t hf
 aug-cc-pvdz iop(5/13=1,5/36=2,99/5=2) pseudo=read geom=check guess=(re
 ad,tcheck) scf=(maxcycle=1)\\title\\0,1\C,0,-0.114333,-0.777314,0.\S,0
 ,-0.367107,-2.340737,0.\N,0,0.,0.401172,0.\C,0,0.79981,1.591603,0.\H,0
 ,1.445951,1.570224,0.881049\H,0,1.445951,1.570224,-0.881049\C,0,-0.055
 733,2.851447,0.\H,0,0.587128,3.731737,0.\H,0,-0.691894,2.888497,-0.883
 504\H,0,-0.691894,2.888497,0.883504\\Version=ES64L-G16RevC.01\State=1-
 A'\HF=-569.547974\RMSD=2.805e-01\Dipole=0.2896189,0.0484011,0.\Quadrup

 Normal termination of Gaussian 16 at Wed Apr  9 02:19:11 2025.
