 Gaussian 16, Revision C.01,

 ----------------------------------------------------------------------
 #t hf aug-cc-pvdz symm=none int=(grid=ultrafine) guess=(read,tcheck) s
 table=(opt,rrhf)
 ----------------------------------------------------------------------
 -----
 title
 -----
 Symbolic Z-matrix:
 Charge =  0 Multiplicity = 1

 SCF Done:  E(RHF) =  -682.300639371     A.U. after   17 cycles
 Normal termination of Gaussian 16 at Wed Apr  9 02:20:36 2025.
 Gaussian 16:  ES64L-G16RevC.01  3-Jul-2019

 ----------------------------------------------------------------------
 #t hf aug-cc-pvdz iop(5/13=1,5/36=2,99/5=2) pseudo=read geom=check gue
 ss=(read,tcheck) scf=(maxcycle=1)
 ----------------------------------------------------------------------
 -----
 title
 -----
 Structure from the checkpoint file:  "CRBH20_15_mol1.chk"
 Charge =  0 Multiplicity = 1

                         Standard orientation:
 ---------------------------------------------------------------------
 Center     Atomic      Atomic             Coordinates (Angstroms)
 Number     Number       Type             X           Y           Z
 ---------------------------------------------------------------------
      1          6           0        1.198022   -0.139358   -0.033561
      2          6           0       -1.813149   -0.299587    0.327282
      3          8           0       -1.279483   -1.060943   -0.457368
      4          7           0        0.749291   -1.300306   -0.068345
      5         16           0        0.886121    1.491250   -0.117284
      6          6           0        2.711154   -0.705362    0.220093
      7          1           0        3.262081   -0.295739   -0.620507
      8          1           0        2.989383   -0.255310    1.167252
      9          1           0        2.825828   -1.784400    0.258963
     10          1           0       -1.301313   -0.018558    1.256912
     11          6           0       -3.171284    0.275461    0.107082
     12          1           0       -3.820256   -0.007400    0.939797
     13          1           0       -3.095366    1.365004    0.121022
     14          1           0       -3.595914   -0.060839   -0.834909
 ---------------------------------------------------------------------

 SCF Done:  E(RHF) =  -683.823868067     A.U. after    2 cycles

 The electronic state is 1-A.
 Alpha  occ. eigenvalues --  -75.64409 -21.07876 -15.84615 -13.13473 -13.00715
 Alpha  occ. eigenvalues --  -12.96313 -11.50307 -11.48977 -11.43356 -11.40104
 Alpha  occ. eigenvalues --   -7.98461  -1.73873  -1.41218  -1.13001  -1.09254
 Alpha  occ. eigenvalues --   -1.04236  -0.83843  -0.72272  -0.66040  -0.63467
 Alpha  occ. eigenvalues --   -0.60462  -0.59139  -0.58029  -0.55939  -0.51615
 Alpha  occ. eigenvalues --   -0.49501  -0.47780  -0.43677  -0.32048  -0.24604
 Alpha  occ. eigenvalues --   -0.21822
 Alpha virt. eigenvalues --    0.03201   0.03656   0.05623   0.05870   0.06452
 Alpha virt. eigenvalues --    0.06650   0.07121   0.08849   0.10211   0.10589
 Alpha virt. eigenvalues --    0.11848   0.12643   0.13099   0.13590   0.14574

 Mulliken charges:
               1
     1  C    0.844093
     2  C    1.287360
     3  O   -2.533118
     4  N   -1.577731
     5  S    0.830902
     6  C   -4.403006
     7  H    1.219011
     8  H    1.347014
     9  H    1.399326
    10  H    1.746412
    11  C   -3.859320
    12  H    1.164541
    13  H    1.238095
    14  H    1.296420
 Sum of Mulliken charges =  -0.00000

 Dipole moment (field-independent basis, Debye):
    X=             -1.5288    Y=              0.2286    Z=              0.6053  Tot=              1.6601

 Test job not archived.
 1\1\GINC-SE092\SP\RHF\Aug-CC-pVDZ\C4H7N1O1S1\OHZDE\09-Apr-2025\0\\#t h
 f aug-cc-pvdz iop(5/13=1,5/36=2,99/5=2) pseudo=read geom=check guess=(
 read,tcheck) scf=(maxcycle=1)\\title\\0,1\C,0,1.198022,-0.139358,-0.03
 3561\C,0,-1.813149,-0.299587,0.327282\O,0,-1.279483,-1.060943,-0.45736
 8\N,0,0.749291,-1.300306,-0.068345\S,0,0.886121,1.49125,-0.117284\C,0,
 2.711154,-0.705362,0.220093\H,0,3.262081,-0.295739,-0.620507\H,0,2.989
 383,-0.25531,1.167252\H,0,2.825828,-1.7844,0.258963\H,0,-1.301313,-0.0
 18558,1.256912\C,0,-3.171284,0.275461,0.107082\H,0,-3.820256,-0.0074,0

 Normal termination of Gaussian 16 at Wed Apr  9 02:20:41 2025.
