 Gaussian 16, Revision C.01,

 ----------------------------------------------------------------------
 #t hf aug-cc-pvdz symm=none int=(grid=ultrafine) guess=(read,tcheck) s
 table=(opt,rrhf)
 ----------------------------------------------------------------------
 -----
 title
 -----
 Symbolic Z-matrix:
 Charge =  0 Multiplicity = 1

 SCF Done:  E(RHF) =  -698.327566258     A.U. after   17 cycles
 Normal termination of Gaussian 16 at Wed Apr  9 02:20:33 2025.
 Gaussian 16:  ES64L-G16RevC.01  3-Jul-2019

 ----------------------------------------------------------------------
 #t hf aug-cc-pvdz iop(5/13=1,5/36=2,99/5=2) pseudo=read geom=check gue
 ss=(read,tcheck) scf=(maxcycle=1)
 ----------------------------------------------------------------------
 -----
 title
 -----
 Structure from the checkpoint file:  "CRBH20_17_mol1.chk"
 Charge =  0 Multiplicity = 1

                         Standard orientation:
 ---------------------------------------------------------------------
 Center     Atomic      Atomic             Coordinates (Angstroms)
 Number     Number       Type             X           Y           Z
 ---------------------------------------------------------------------
      1          6           0        1.186682   -0.155656   -0.036925
      2          6           0       -1.881065   -0.202354    0.301269
      3          8           0       -1.350246   -0.951306   -0.513911
      4          7           0        0.652258   -1.279304   -0.078969
      5         16           0        1.016781    1.493697   -0.137678
      6          6           0        2.640539   -0.844929    0.270911
      7          1           0        3.249870   -0.486447   -0.552529
      8          1           0        2.922921   -0.410839    1.224233
      9          1           0        2.668315   -1.929363    0.319121
     10          1           0       -1.359577    0.149742    1.195280
     11          7           0       -3.142812    0.235833    0.182404
     12          1           0       -3.673946    0.009188   -0.642796
     13          1           0       -3.517190    0.900942    0.835248
 ---------------------------------------------------------------------

 SCF Done:  E(RHF) =  -699.898361945     A.U. after    2 cycles

 The electronic state is 1-A.
 Alpha  occ. eigenvalues --  -75.63791 -21.05069 -15.83907 -15.80507 -13.12826
 Alpha  occ. eigenvalues --  -12.99777 -12.95573 -11.50182 -11.48344 -11.42756
 Alpha  occ. eigenvalues --   -7.97847  -1.73143  -1.40755  -1.36573  -1.08790
 Alpha  occ. eigenvalues --   -1.03635  -0.89232  -0.75877  -0.70162  -0.66160
 Alpha  occ. eigenvalues --   -0.62752  -0.59857  -0.56713  -0.54027  -0.51922
 Alpha  occ. eigenvalues --   -0.48999  -0.47108  -0.34546  -0.32248  -0.24032
 Alpha  occ. eigenvalues --   -0.21245
 Alpha virt. eigenvalues --    0.02972   0.03762   0.05125   0.06199   0.06686
 Alpha virt. eigenvalues --    0.07003   0.08115   0.10586   0.11795   0.12581
 Alpha virt. eigenvalues --    0.13381   0.13865   0.14453   0.14584   0.15250

 Mulliken charges:
               1
     1  C    0.920979
     2  C    2.341770
     3  O   -2.438818
     4  N   -1.578227
     5  S    0.856949
     6  C   -4.444897
     7  H    1.226499
     8  H    1.346022
     9  H    1.388573
    10  H    1.847644
    11  N   -2.830567
    12  H    0.620767
    13  H    0.743307
 Sum of Mulliken charges =   0.00000

 Dipole moment (field-independent basis, Debye):
    X=             -3.0221    Y=              0.8461    Z=              0.7762  Tot=              3.2329

 Test job not archived.
 1\1\GINC-SE159\SP\RHF\Aug-CC-pVDZ\C3H6N2O1S1\OHZDE\09-Apr-2025\0\\#t h
 f aug-cc-pvdz iop(5/13=1,5/36=2,99/5=2) pseudo=read geom=check guess=(
 read,tcheck) scf=(maxcycle=1)\\title\\0,1\C,0,1.186682,-0.155656,-0.03
 6925\C,0,-1.881065,-0.202354,0.301269\O,0,-1.350246,-0.951306,-0.51391
 1\N,0,0.652258,-1.279304,-0.078969\S,0,1.016781,1.493697,-0.137678\C,0
 ,2.640539,-0.844929,0.270911\H,0,3.24987,-0.486447,-0.552529\H,0,2.922
 921,-0.410839,1.224233\H,0,2.668315,-1.929363,0.319121\H,0,-1.359577,0
 .149742,1.19528\N,0,-3.142812,0.235833,0.182404\H,0,-3.673946,0.009188

 Normal termination of Gaussian 16 at Wed Apr  9 02:20:39 2025.
