 Gaussian 16, Revision C.01,

 ----------------------------------------------------------------------
 #t hf aug-cc-pvdz symm=none int=(grid=ultrafine) guess=(read,tcheck) s
 table=(opt,rrhf)
 ----------------------------------------------------------------------
 -----
 title
 -----
 Symbolic Z-matrix:
 Charge =  0 Multiplicity = 1

 SCF Done:  E(RHF) =  -419.478282607     A.U. after   17 cycles
 Normal termination of Gaussian 16 at Wed Apr  9 02:20:13 2025.
 Gaussian 16:  ES64L-G16RevC.01  3-Jul-2019

 ----------------------------------------------------------------------
 #t hf aug-cc-pvdz iop(5/13=1,5/36=2,99/5=2) pseudo=read geom=check gue
 ss=(read,tcheck) scf=(maxcycle=1)
 ----------------------------------------------------------------------
 -----
 title
 -----
 Structure from the checkpoint file:  "CRBH20_8_mol1.chk"
 Charge =  0 Multiplicity = 1

                         Standard orientation:
 ---------------------------------------------------------------------
 Center     Atomic      Atomic             Coordinates (Angstroms)
 Number     Number       Type             X           Y           Z
 ---------------------------------------------------------------------
      1          6           0        1.179210    0.191454   -0.041007
      2          6           0       -1.572502   -0.031066    0.321914
      3          8           0       -1.047661   -0.969874   -0.215689
      4          7           0        0.837804   -1.049190    0.050219
      5          6           0        2.743131   -0.012823    0.047978
      6          1           0        3.056507    0.579077    0.904999
      7          1           0        3.076466   -1.040335    0.161728
      8          1           0        3.127237    0.398913   -0.882915
      9          1           0       -1.211695    0.535200    1.173465
     10          9           0       -2.761455    0.375981   -0.085654
     11          8           0        0.652776    1.295156   -0.148216
 ---------------------------------------------------------------------

 SCF Done:  E(RHF) =  -421.175017262     A.U. after    2 cycles

 The electronic state is 1-A.
 Alpha  occ. eigenvalues --  -29.34631 -21.12737 -21.04107 -15.82884 -11.58288
 Alpha  occ. eigenvalues --  -11.50514 -11.41185  -1.81927  -1.70698  -1.33186
 Alpha  occ. eigenvalues --   -1.11195  -1.05382  -0.80799  -0.73062  -0.64507
 Alpha  occ. eigenvalues --   -0.63400  -0.61615  -0.57616  -0.55932  -0.51492
 Alpha  occ. eigenvalues --   -0.50392  -0.45760  -0.37391  -0.34086  -0.32213
 Alpha  occ. eigenvalues --   -0.32006  -0.29501
 Alpha virt. eigenvalues --    0.03603   0.05038   0.06183   0.06447   0.09435
 Alpha virt. eigenvalues --    0.09850   0.11201   0.12010   0.12495   0.13313
 Alpha virt. eigenvalues --    0.13837   0.14219   0.15679   0.15822   0.16603

 Mulliken charges:
               1
     1  C    5.201666
     2  C   -0.138594
     3  O   -2.191134
     4  N   -1.615718
     5  C   -4.368216
     6  H    1.237968
     7  H    1.374058
     8  H    1.204616
     9  H    1.503888
    10  F    0.782495
    11  O   -2.991030
 Sum of Mulliken charges =  -0.00000

 Dipole moment (field-independent basis, Debye):
    X=             -3.5808    Y=              1.1503    Z=              0.1705  Tot=              3.7649

 Test job not archived.
 1\1\GINC-SE252\SP\RHF\Aug-CC-pVDZ\C3H4F1N1O2\OHZDE\09-Apr-2025\0\\#t h
 f aug-cc-pvdz iop(5/13=1,5/36=2,99/5=2) pseudo=read geom=check guess=(
 read,tcheck) scf=(maxcycle=1)\\title\\0,1\C,0,-1.17921,-0.191454,-0.04
 1007\C,0,1.572502,0.031066,0.321914\O,0,1.047661,0.969874,-0.215689\N,
 0,-0.837804,1.04919,0.050219\C,0,-2.743131,0.012823,0.047978\H,0,-3.05
 6507,-0.579077,0.904999\H,0,-3.076466,1.040335,0.161728\H,0,-3.127237,
 -0.398913,-0.882915\H,0,1.211695,-0.5352,1.173465\F,0,2.761455,-0.3759
 81,-0.085654\O,0,-0.652776,-1.295156,-0.148216\\Version=ES64L-G16RevC.

 Normal termination of Gaussian 16 at Wed Apr  9 02:20:18 2025.
