 Gaussian 16, Revision C.01,

 ----------------------------------------------------------------------
 #t hf aug-cc-pvdz symm=none int=(grid=ultrafine) guess=(read,tcheck) s
 table=(opt,rrhf)
 ----------------------------------------------------------------------
 -----
 title
 -----
 Symbolic Z-matrix:
 Charge = -1 Multiplicity = 1

 SCF Done:  E(RHF) =  -958.676712470     A.U. after   11 cycles

 1\1\GINC-SE341\Stability\RHF\Aug-CC-pVDZ\C1H3Cl2\OHZDE\09-Apr-2025\0\\
 #t hf aug-cc-pvdz symm=none int=(grid=ultrafine) guess=(read,tcheck) s
 table=(opt,rrhf)\\title\\-1,1\Cl,0,0.000025,0.019526,2.32250057\C,0,0.
 000513,0.000486,-0.000089\H,0,0.76127963,-0.75073313,0.00637701\H,0,-1
 .03045091,-0.28272404,0.002147\H,0,0.27072812,1.03492775,-0.00869703\C
 l,0,-0.000297,-0.01978403,-2.32245823\\Version=ES64L-G16RevC.01\HF=-95
 8.6767125\RMSD=7.699e-09\Dipole=0.0006926,0.0006502,-0.0007218\Quadrup
 ole=9.962072,9.9598278,-19.9218998,-0.0000124,-0.0016601,-0.2527885\PG

 Normal termination of Gaussian 16 at Wed Apr  9 02:21:20 2025.
 Gaussian 16:  ES64L-G16RevC.01  3-Jul-2019

 ----------------------------------------------------------------------
 #t hf aug-cc-pvdz iop(5/13=1,5/36=2,99/5=2) pseudo=read geom=check gue
 ss=(read,tcheck) scf=(maxcycle=1)
 ----------------------------------------------------------------------
 -----
 title
 -----
 Structure from the checkpoint file:  "DBH24_16_mol2.chk"
 Charge = -1 Multiplicity = 1

                         Standard orientation:
 ---------------------------------------------------------------------
 Center     Atomic      Atomic             Coordinates (Angstroms)
 Number     Number       Type             X           Y           Z
 ---------------------------------------------------------------------
      1         17           0        2.322582   -0.000129    0.000143
      2          6           0       -0.000085    0.000479   -0.000520
      3          1           0        0.000077   -0.762122   -0.749905
      4          1           0       -0.000320   -0.267206    1.034586
      5          1           0        0.000081    1.030777   -0.286259
      6         17           0       -2.322543   -0.000126    0.000133
 ---------------------------------------------------------------------

 SCF Done:  E(RHF) =  -959.395364587     A.U. after    2 cycles

 The electronic state is 1-A.
 Alpha  occ. eigenvalues --  -99.65074 -99.65049 -11.31942 -10.21901 -10.21842
 Alpha  occ. eigenvalues --   -9.41823  -9.41680  -9.41322  -9.41322  -9.41315
 Alpha  occ. eigenvalues --   -9.41315  -1.05313  -1.00934  -0.86575  -0.48275
 Alpha  occ. eigenvalues --   -0.48274  -0.35413  -0.29069  -0.29069  -0.27986
 Alpha  occ. eigenvalues --   -0.27985  -0.25923
 Alpha virt. eigenvalues --    0.15239   0.17557   0.17559   0.19808   0.24686
 Alpha virt. eigenvalues --    0.28124   0.28130   0.28206   0.28206   0.29448
 Alpha virt. eigenvalues --    0.29451   0.32304   0.32304   0.33379   0.40073

 Mulliken charges:
               1
     1  Cl  -0.748618
     2  C   -3.761153
     3  H    1.419411
     4  H    1.419586
     5  H    1.419257
     6  Cl  -0.748482
 Sum of Mulliken charges =  -1.00000

 Dipole moment (field-independent basis, Debye):
    X=             -0.0016    Y=              0.0016    Z=             -0.0017  Tot=              0.0028

 Test job not archived.
 1\1\GINC-SE341\SP\RHF\Aug-CC-pVDZ\C1H3Cl2(1-)\OHZDE\09-Apr-2025\0\\#t
 hf aug-cc-pvdz iop(5/13=1,5/36=2,99/5=2) pseudo=read geom=check guess=
 (read,tcheck) scf=(maxcycle=1)\\title\\-1,1\Cl,0,0.000025,0.019526,2.3
 2250057\C,0,0.000513,0.000486,-0.000089\H,0,0.76127963,-0.75073313,0.0
 0637701\H,0,-1.03045091,-0.28272404,0.002147\H,0,0.27072812,1.03492775
 ,-0.00869703\Cl,0,-0.000297,-0.01978403,-2.32245823\\Version=ES64L-G16
 RevC.01\State=1-A\HF=-959.3953646\RMSD=5.459e-02\Dipole=0.0006627,0.00
 06233,-0.0006249\Quadrupole=9.4417523,9.4395516,-18.8813039,-0.0000098

 Normal termination of Gaussian 16 at Wed Apr  9 02:21:33 2025.
