 Gaussian 16, Revision C.01,

 ----------------------------------------------------------------------
 #t hf aug-cc-pvdz symm=none int=(grid=ultrafine) guess=(read,tcheck) s
 table=opt
 ----------------------------------------------------------------------
 -----
 title
 -----
 Symbolic Z-matrix:
 Charge =  0 Multiplicity = 2

 SCF Done:  E(UHF) =  -399.179558468     A.U. after   15 cycles
 Normal termination of Gaussian 16 at Wed Apr  9 02:21:19 2025.
 Gaussian 16:  ES64L-G16RevC.01  3-Jul-2019

 ----------------------------------------------------------------------
 #t hf aug-cc-pvdz iop(5/13=1,5/36=2,99/5=2) pseudo=read geom=check gue
 ss=(read,tcheck) scf=(maxcycle=1)
 ----------------------------------------------------------------------
 -----
 title
 -----
 Structure from the checkpoint file:  "DBH24_12_mol3.chk"
 Charge =  0 Multiplicity = 2

                         Standard orientation:
 ---------------------------------------------------------------------
 Center     Atomic      Atomic             Coordinates (Angstroms)
 Number     Number       Type             X           Y           Z
 ---------------------------------------------------------------------
      1          1           0        1.262098   -0.220096    0.000000
      2         16           0        0.000000    0.223154    0.000000
      3          1           0       -0.500576   -1.115447    0.000000
      4          1           0       -0.761522   -2.234916    0.000000
 ---------------------------------------------------------------------

 SCF Done:  E(UHF) =  -399.429985587     A.U. after    2 cycles

 The electronic state is 2-A'.
 Alpha  occ. eigenvalues --  -75.70708 -13.15148 -13.10413 -13.01895  -8.04319
 Alpha  occ. eigenvalues --   -1.12520  -0.66099  -0.49002  -0.34203  -0.26137
 Alpha virt. eigenvalues --    0.03539   0.05623   0.06233   0.12204   0.13777
 Alpha virt. eigenvalues --    0.14011   0.17469   0.21836   0.24779   0.26580
 Alpha virt. eigenvalues --    0.28795   0.29679   0.36176   0.40146   0.41187

  Beta  occ. eigenvalues --  -75.70299 -13.13911 -13.08946 -13.01635  -8.03865
  Beta  occ. eigenvalues --   -1.09480  -0.57751  -0.45933  -0.25707
  Beta virt. eigenvalues --   -0.00018   0.04972   0.06274   0.08411   0.13107
  Beta virt. eigenvalues --    0.13937   0.14845   0.18390   0.23139   0.26611
  Beta virt. eigenvalues --    0.27928   0.29663   0.30988   0.38781   0.42315

 Mulliken charges and spin densities:
               1          2
     1  H    0.915669  -0.023270
     2  S   -1.965948   0.381844
     3  H    0.817623   0.320345
     4  H    0.232656   0.321082
 Sum of Mulliken charges =  -0.00000   1.00000

 Dipole moment (field-independent basis, Debye):
    X=             -0.4978    Y=              1.1937    Z=              0.0000  Tot=              1.2933
                          Isotropic Fermi Contact Couplings
        Atom                 a.u.       MegaHertz       Gauss      10(-4) cm-1
     1  H(1)              -0.00250     -11.19481      -3.99459      -3.73419
     2  S(33)              0.03277      11.25583       4.01636       3.75454
     3  H(1)              -0.04277    -191.19706     -68.22387     -63.77647
     4  H(1)               0.20149     900.63448     321.36878     300.41933
 --------------------------------------------------------
       Center         ----  Spin Dipole Couplings  ----
                      3XX-RR        3YY-RR        3ZZ-RR
 --------------------------------------------------------

 Normal termination of Gaussian 16 at Wed Apr  9 02:21:33 2025.
