 Gaussian 16, Revision C.01,

 ----------------------------------------------------------------------
 #t hf aug-cc-pvdz symm=none int=(grid=ultrafine) guess=(read,tcheck) s
 table=(opt,rrhf)
 ----------------------------------------------------------------------
 -----
 title
 -----
 Symbolic Z-matrix:
 Charge = -1 Multiplicity = 1

 SCF Done:  E(RHF) =  -958.700327124     A.U. after   11 cycles

 1\1\GINC-SE367\Stability\RHF\Aug-CC-pVDZ\C1H3Cl2\OHZDE\09-Apr-2025\0\\
 #t hf aug-cc-pvdz symm=none int=(grid=ultrafine) guess=(read,tcheck) s
 table=(opt,rrhf)\\title\\-1,1\Cl,0,0.,0.,-2.2180723\C,0,0.,0.,-0.39966
 594\H,0,-0.51253194,0.88773136,-0.05771427\H,0,-0.51253194,-0.88773136
 ,-0.05771427\H,0,1.02506388,0.,-0.05771427\Cl,0,0.,0.,2.79088105\\Vers
 ion=ES64L-G16RevC.01\HF=-958.7003271\RMSD=7.202e-09\Dipole=0.,0.,-3.36
 5306\Quadrupole=11.1220226,11.1220226,-22.2440451,0.,0.,0.\PG=Unknown\
 \@

 Normal termination of Gaussian 16 at Wed Apr  9 02:21:20 2025.
 Gaussian 16:  ES64L-G16RevC.01  3-Jul-2019

 ----------------------------------------------------------------------
 #t hf aug-cc-pvdz iop(5/13=1,5/36=2,99/5=2) pseudo=read geom=check gue
 ss=(read,tcheck) scf=(maxcycle=1)
 ----------------------------------------------------------------------
 -----
 title
 -----
 Structure from the checkpoint file:  "DBH24_16_mol1.chk"
 Charge = -1 Multiplicity = 1

                         Standard orientation:
 ---------------------------------------------------------------------
 Center     Atomic      Atomic             Coordinates (Angstroms)
 Number     Number       Type             X           Y           Z
 ---------------------------------------------------------------------
      1         17           0        0.000000    0.000000   -2.384738
      2          6           0        0.000000    0.000000   -0.566331
      3          1           0       -0.000000    1.025064   -0.224380
      4          1           0       -0.887731   -0.512532   -0.224380
      5          1           0        0.887731   -0.512532   -0.224380
      6         17           0        0.000000    0.000000    2.624216
 ---------------------------------------------------------------------

 SCF Done:  E(RHF) =  -959.409337441     A.U. after    2 cycles

 The electronic state is 1-A1.
 Alpha  occ. eigenvalues --  -99.75118 -99.59058 -11.28251 -10.32375 -10.15621
 Alpha  occ. eigenvalues --   -9.52169  -9.51512  -9.51512  -9.35375  -9.35177
 Alpha  occ. eigenvalues --   -9.35177  -1.18808  -0.94220  -0.86616  -0.48770
 Alpha  occ. eigenvalues --   -0.48770  -0.45007  -0.34779  -0.34779  -0.22613
 Alpha  occ. eigenvalues --   -0.22434  -0.22434
 Alpha virt. eigenvalues --    0.14682   0.17295   0.17433   0.17433   0.24316
 Alpha virt. eigenvalues --    0.25896   0.25896   0.27297   0.29446   0.29446
 Alpha virt. eigenvalues --    0.31414   0.32774   0.32774   0.33223   0.39489

 Mulliken charges:
               1
     1  Cl  -0.263206
     2  C   -4.011261
     3  H    1.429228
     4  H    1.429228
     5  H    1.429228
     6  Cl  -1.013218
 Sum of Mulliken charges =  -1.00000

 Dipole moment (field-independent basis, Debye):
    X=             -0.0000    Y=              0.0000    Z=             -8.3415  Tot=              8.3415

 Test job not archived.
 1\1\GINC-SE367\SP\RHF\Aug-CC-pVDZ\C1H3Cl2(1-)\OHZDE\09-Apr-2025\0\\#t
 hf aug-cc-pvdz iop(5/13=1,5/36=2,99/5=2) pseudo=read geom=check guess=
 (read,tcheck) scf=(maxcycle=1)\\title\\-1,1\Cl,0,0.,0.,-2.2180723\C,0,
 0.,0.,-0.39966594\H,0,-0.51253194,0.88773136,-0.05771427\H,0,-0.512531
 94,-0.88773136,-0.05771427\H,0,1.02506388,0.,-0.05771427\Cl,0,0.,0.,2.
 79088105\\Version=ES64L-G16RevC.01\State=1-A1\HF=-959.4093374\RMSD=5.0
 19e-02\Dipole=0.,0.,-3.2817921\Quadrupole=10.0516244,10.0516244,-20.10
 32488,0.,0.,0.\PG=C03V [C3(Cl1C1Cl1),3SGV(H1)]\\@

 Normal termination of Gaussian 16 at Wed Apr  9 02:21:34 2025.
