 Gaussian 16, Revision C.01,

 ----------------------------------------------------------------------
 #t hf aug-cc-pvdz symm=none int=(grid=ultrafine) guess=(read,tcheck) s
 table=(opt,rrhf)
 ----------------------------------------------------------------------
 -----
 title
 -----
 Symbolic Z-matrix:
 Charge = -1 Multiplicity = 1

 SCF Done:  E(RHF) =  -214.446336283     A.U. after   13 cycles
 Normal termination of Gaussian 16 at Wed Apr  9 02:21:21 2025.
 Gaussian 16:  ES64L-G16RevC.01  3-Jul-2019

 ----------------------------------------------------------------------
 #t hf aug-cc-pvdz iop(5/13=1,5/36=2,99/5=2) pseudo=read geom=check gue
 ss=(read,tcheck) scf=(maxcycle=1)
 ----------------------------------------------------------------------
 -----
 title
 -----
 Structure from the checkpoint file:  "DBH24_18_mol3.chk"
 Charge = -1 Multiplicity = 1

                         Standard orientation:
 ---------------------------------------------------------------------
 Center     Atomic      Atomic             Coordinates (Angstroms)
 Number     Number       Type             X           Y           Z
 ---------------------------------------------------------------------
      1          9           0        1.850617   -0.013179   -0.000128
      2          6           0        0.090857    0.010586    0.000269
      3          1           0        0.040907    1.079548   -0.011749
      4          1           0        0.037163   -0.528013   -0.922943
      5          1           0        0.037486   -0.507463    0.935130
      6          8           0       -1.892804    0.103266   -0.000118
      7          1           0       -2.173823   -0.815113    0.000039
 ---------------------------------------------------------------------

 SCF Done:  E(RHF) =  -215.336548184     A.U. after    2 cycles

 The electronic state is 1-A.
 Alpha  occ. eigenvalues --  -28.93578 -20.77004 -11.26050  -1.31196  -0.85258
 Alpha  occ. eigenvalues --   -0.42804  -0.42786  -0.36066  -0.24697  -0.12342
 Alpha  occ. eigenvalues --   -0.06236   0.00369   0.00698   0.02363
 Alpha virt. eigenvalues --    0.16855   0.17710   0.17940   0.18534   0.27544
 Alpha virt. eigenvalues --    0.29062   0.29841   0.33083   0.37724   0.40416
 Alpha virt. eigenvalues --    0.41691   0.43949   0.44128   0.44935   0.50501

 Mulliken charges:
               1
     1  F   -0.299454
     2  C   -3.451512
     3  H    1.332579
     4  H    1.266235
     5  H    1.268504
     6  O   -1.907855
     7  H    0.791504
 Sum of Mulliken charges =  -1.00000

 Dipole moment (field-independent basis, Debye):
    X=              3.7739    Y=             -0.4945    Z=              0.0011  Tot=              3.8061

 Test job not archived.
 1\1\GINC-SE462\SP\RHF\Aug-CC-pVDZ\C1H4F1O1(1-)\OHZDE\09-Apr-2025\0\\#t
  hf aug-cc-pvdz iop(5/13=1,5/36=2,99/5=2) pseudo=read geom=check guess
 =(read,tcheck) scf=(maxcycle=1)\\title\\-1,1\F,0,1.85061737,-0.013179,
 -0.000128\C,0,0.09085708,0.01058598,0.000269\H,0,0.04090704,1.07954797
 ,-0.011749\H,0,0.037163,-0.52801302,-0.92294327\H,0,0.03748601,-0.5074
 6295,0.93513022\O,0,-1.89280338,0.10326629,-0.000118\H,0,-2.17382294,-
 0.81511282,0.000039\\Version=ES64L-G16RevC.01\State=1-A\HF=-215.336548
 2\RMSD=5.888e-02\Dipole=1.4847563,-0.1945537,0.0004399\Quadrupole=-13.

 Normal termination of Gaussian 16 at Wed Apr  9 02:21:34 2025.
