 Gaussian 16, Revision C.01,

 ----------------------------------------------------------------------
 #t hf aug-cc-pvdz symm=none int=(grid=ultrafine) guess=(read,tcheck) s
 table=(opt,rrhf)
 ----------------------------------------------------------------------
 -----
 title
 -----
 Symbolic Z-matrix:
 Charge = -1 Multiplicity = 1

 SCF Done:  E(RHF) =  -598.570027708     A.U. after   13 cycles
 Normal termination of Gaussian 16 at Wed Apr  9 02:21:20 2025.
 Gaussian 16:  ES64L-G16RevC.01  3-Jul-2019

 ----------------------------------------------------------------------
 #t hf aug-cc-pvdz iop(5/13=1,5/36=2,99/5=2) pseudo=read geom=check gue
 ss=(read,tcheck) scf=(maxcycle=1)
 ----------------------------------------------------------------------
 -----
 title
 -----
 Structure from the checkpoint file:  "DBH24_17_mol2.chk"
 Charge = -1 Multiplicity = 1

                         Standard orientation:
 ---------------------------------------------------------------------
 Center     Atomic      Atomic             Coordinates (Angstroms)
 Number     Number       Type             X           Y           Z
 ---------------------------------------------------------------------
      1          9           0        0.000000    0.000000   -2.537928
      2          6           0        0.000000    0.000000   -0.488372
      3          1           0       -0.000000    1.062085   -0.614972
      4          1           0       -0.919793   -0.531043   -0.614972
      5          1           0        0.919793   -0.531043   -0.614972
      6         17           0        0.000000    0.000000    1.624500
 ---------------------------------------------------------------------

 SCF Done:  E(RHF) =  -599.384502540     A.U. after    2 cycles

 The electronic state is 1-A1.
 Alpha  occ. eigenvalues --  -99.66646 -28.89238 -11.28495 -10.23597  -9.43425
 Alpha  occ. eigenvalues --   -9.42983  -9.42983  -1.06747  -0.85399  -0.45794
 Alpha  occ. eigenvalues --   -0.45794  -0.37792  -0.29585  -0.29585  -0.25427
 Alpha  occ. eigenvalues --    0.01169   0.02868   0.02868
 Alpha virt. eigenvalues --    0.16393   0.17838   0.17838   0.22102   0.27676
 Alpha virt. eigenvalues --    0.29059   0.29059   0.30168   0.30168   0.33777
 Alpha virt. eigenvalues --    0.40378   0.41825   0.41825   0.42125   0.49969

 Mulliken charges:
               1
     1  F   -0.591762
     2  C   -3.849305
     3  H    1.359782
     4  H    1.359782
     5  H    1.359782
     6  Cl  -0.638280
 Sum of Mulliken charges =  -1.00000

 Dipole moment (field-independent basis, Debye):
    X=             -0.0000    Y=             -0.0000    Z=             -0.2506  Tot=              0.2506

 Test job not archived.
 1\1\GINC-SE070\SP\RHF\Aug-CC-pVDZ\C1H3Cl1F1(1-)\OHZDE\09-Apr-2025\0\\#
 t hf aug-cc-pvdz iop(5/13=1,5/36=2,99/5=2) pseudo=read geom=check gues
 s=(read,tcheck) scf=(maxcycle=1)\\title\\-1,1\F,0,0.,0.,-1.99680875\C,
 0,0.,0.,0.0527475\H,0,-0.53104256,0.9197927,-0.07385285\H,0,-0.5310425
 6,-0.9197927,-0.07385285\H,0,1.06208512,0.,-0.07385285\Cl,0,0.,0.,2.16
 561981\\Version=ES64L-G16RevC.01\State=1-A1\HF=-599.3845025\RMSD=6.360
 e-02\Dipole=0.,0.,-0.0985963\Quadrupole=7.4941994,7.4941994,-14.988398
 9,0.,0.,0.\PG=C03V [C3(F1C1Cl1),3SGV(H1)]\\@

 Normal termination of Gaussian 16 at Wed Apr  9 02:21:33 2025.
