 Gaussian 16, Revision C.01,

 ----------------------------------------------------------------------
 #t hf aug-cc-pvdz symm=none int=(grid=ultrafine) guess=(read,tcheck) s
 table=(opt,rrhf)
 ----------------------------------------------------------------------
 -----
 title
 -----
 Symbolic Z-matrix:
 Charge =  0 Multiplicity = 1

 SCF Done:  E(RHF) =  -681.455843841     A.U. after   13 cycles
 Normal termination of Gaussian 16 at Wed Apr  9 02:22:20 2025.
 Gaussian 16:  ES64L-G16RevC.01  3-Jul-2019

 ----------------------------------------------------------------------
 #t hf aug-cc-pvdz iop(5/13=1,5/36=2,99/5=2) pseudo=read geom=check gue
 ss=(read,tcheck) scf=(maxcycle=1)
 ----------------------------------------------------------------------
 -----
 title
 -----
 Structure from the checkpoint file:  "DCONF_16_0_mol1.chk"
 Charge =  0 Multiplicity = 1

                         Standard orientation:
 ---------------------------------------------------------------------
 Center     Atomic      Atomic             Coordinates (Angstroms)
 Number     Number       Type             X           Y           Z
 ---------------------------------------------------------------------
      1          6           0        0.259942    1.615337   -0.273900
      2          1           0       -0.259054    2.061278    0.573697
      3          1           0       -0.276959    1.769174   -1.209607
      4          1           0        1.265885    2.031732   -0.347646
      5         16           0        0.523854   -0.123152    0.024399
      6          8           0        1.183828   -0.213489    1.312717
      7          7           0       -1.024131   -0.791577    0.166445
      8          1           0       -1.049112   -1.556472   -0.503204
      9          8           0        1.130759   -0.723072   -1.157267
     10          6           0       -2.221111    0.046409    0.040411
     11          1           0       -2.301489    0.571976   -0.918737
     12          1           0       -2.257490    0.768631    0.857659
     13          1           0       -3.084215   -0.612833    0.149669
 ---------------------------------------------------------------------

 SCF Done:  E(RHF) =  -683.018517210     A.U. after    2 cycles

 The electronic state is 1-A.
 Alpha  occ. eigenvalues --  -75.89777 -21.04373 -21.03818 -15.76835 -13.51445
 Alpha  occ. eigenvalues --  -13.42950 -13.34287 -11.43259 -11.42601  -8.24874
 Alpha  occ. eigenvalues --   -1.83044  -1.64565  -1.40488  -1.14703  -1.03586
 Alpha  occ. eigenvalues --   -0.87828  -0.69713  -0.66953  -0.64389  -0.62596
 Alpha  occ. eigenvalues --   -0.59734  -0.55742  -0.54360  -0.47605  -0.40983
 Alpha  occ. eigenvalues --   -0.39227  -0.37295  -0.36004  -0.33648
 Alpha virt. eigenvalues --    0.02110   0.03879   0.05001   0.05382   0.06559
 Alpha virt. eigenvalues --    0.07047   0.07664   0.10173   0.11002   0.12451
 Alpha virt. eigenvalues --    0.12951   0.14072   0.15100   0.15679   0.16056

 Mulliken charges:
               1
     1  C   -4.637494
     2  H    1.284152
     3  H    1.318579
     4  H    1.340208
     5  S    7.125126
     6  O   -2.526989
     7  N   -2.627994
     8  H    0.517576
     9  O   -2.596350
    10  C   -3.321249
    11  H    1.420276
    12  H    1.449759
    13  H    1.254399
 Sum of Mulliken charges =  -0.00000

 Dipole moment (field-independent basis, Debye):
    X=             -2.8234    Y=              1.4226    Z=             -0.9163  Tot=              3.2917

 Test job not archived.
 1\1\GINC-SE367\SP\RHF\Aug-CC-pVDZ\C2H7N1O2S1\OHZDE\09-Apr-2025\0\\#t h
 f aug-cc-pvdz iop(5/13=1,5/36=2,99/5=2) pseudo=read geom=check guess=(
 read,tcheck) scf=(maxcycle=1)\\title\\0,1\C,0,-1.1463,-1.3887,-0.6561\
 H,0,-0.4932,-1.1829,-1.5033\H,0,-0.9453,-0.7268,0.1859\H,0,-2.1884,-1.
 2936,-0.9655\S,0,-0.9858,-3.0969,-0.169\O,0,-1.2106,-3.8792,-1.3694\N,
 0,0.6313,-3.2786,0.2949\H,0,0.5995,-3.672,1.2321\O,0,-1.7909,-3.3305,1
 .0234\C,0,1.5627,-2.1471,0.2395\H,0,1.26,-1.287,0.8488\H,0,1.7032,-1.8
 311,-0.7955\H,0,2.526,-2.5096,0.603\\Version=ES64L-G16RevC.01\State=1-

 Normal termination of Gaussian 16 at Wed Apr  9 02:22:24 2025.
