 Gaussian 16, Revision C.01,

 ----------------------------------------------------------------------
 #t hf aug-cc-pvdz symm=none int=(grid=ultrafine) guess=(read,tcheck) s
 table=(opt,rrhf)
 ----------------------------------------------------------------------
 -----
 title
 -----
 Symbolic Z-matrix:
 Charge =  0 Multiplicity = 1

 SCF Done:  E(RHF) =  -796.893108975     A.U. after   16 cycles
 Normal termination of Gaussian 16 at Wed Apr  9 02:30:47 2025.
 Gaussian 16:  ES64L-G16RevC.01  3-Jul-2019

 ----------------------------------------------------------------------
 #t hf aug-cc-pvdz iop(5/13=1,5/36=2,99/5=2) pseudo=read geom=check gue
 ss=(read,tcheck) scf=(maxcycle=1)
 ----------------------------------------------------------------------
 -----
 title
 -----
 Structure from the checkpoint file:  "DCONF_52_-110_mol1.chk"
 Charge =  0 Multiplicity = 1

                         Standard orientation:
 ---------------------------------------------------------------------
 Center     Atomic      Atomic             Coordinates (Angstroms)
 Number     Number       Type             X           Y           Z
 ---------------------------------------------------------------------
      1          6           0       -1.475210    1.055480   -0.655725
      2          1           0       -0.973539    1.858590   -1.188279
      3          6           0       -2.868370    0.961554   -0.622206
      4          1           0       -3.486106    1.699817   -1.126603
      5          6           0       -3.445628   -0.109081    0.065647
      6          1           0       -4.523437   -0.230751    0.120058
      7          6           0       -2.601257   -1.033956    0.690754
      8          1           0       -3.017333   -1.879970    1.234532
      9          7           0       -1.259702   -0.950919    0.683259
     10          6           0       -0.710225    0.083502    0.010313
     11          6           0        1.508014    1.173398    0.698476
     12          1           0        1.051134    2.004987    1.225253
     13          6           0        2.904129    0.938254    0.606560
     14          1           0        3.665881    1.574713    1.043452
     15          6           0        3.194208   -0.217351   -0.097109
     16          1           0        4.167436   -0.630694   -0.329848
     17         16           0        1.771903   -1.005244   -0.638140
     18          6           0        0.758244    0.205474    0.044765
 ---------------------------------------------------------------------

 SCF Done:  E(RHF) =  -799.002974486     A.U. after    2 cycles

 The electronic state is 1-A.
 Alpha  occ. eigenvalues --  -75.71078 -15.74303 -13.18034 -13.15455 -13.03661
 Alpha  occ. eigenvalues --  -11.51614 -11.48184 -11.46799 -11.44646 -11.43762
 Alpha  occ. eigenvalues --  -11.41784 -11.41609 -11.38824 -11.37499  -8.05661
 Alpha  occ. eigenvalues --   -1.46315  -1.35473  -1.19097  -1.14137  -1.08191
 Alpha  occ. eigenvalues --   -1.03090  -0.89909  -0.89387  -0.79331  -0.77294
 Alpha  occ. eigenvalues --   -0.71948  -0.68438  -0.63370  -0.61233  -0.57035
 Alpha  occ. eigenvalues --   -0.55698  -0.54815  -0.51578  -0.49522  -0.47697
 Alpha  occ. eigenvalues --   -0.44687  -0.38809  -0.37138  -0.36332  -0.34004
 Alpha  occ. eigenvalues --   -0.30406  -0.26555
 Alpha virt. eigenvalues --    0.03019   0.04466   0.05160   0.05324   0.05680
 Alpha virt. eigenvalues --    0.06047   0.06728   0.08636   0.09578   0.10037
 Alpha virt. eigenvalues --    0.10352   0.10870   0.11724   0.12365   0.12632

 Mulliken charges:
               1
     1  C   -2.509421
     2  H    1.759545
     3  C   -0.002645
     4  H    1.568924
     5  C   -1.377361
     6  H    1.478974
     7  C   -1.059607
     8  H    1.651561
     9  N   -3.594666
    10  C    2.527468
    11  C   -3.298297
    12  H    1.641845
    13  C   -0.935044
    14  H    1.461789
    15  C   -3.724551
    16  H    1.306139
    17  S    1.171499
    18  C    1.933849
 Sum of Mulliken charges =   0.00000

 Dipole moment (field-independent basis, Debye):
    X=             -1.4108    Y=             -0.6393    Z=             -1.5370  Tot=              2.1820

 Test job not archived.
 1\1\GINC-SE367\SP\RHF\Aug-CC-pVDZ\C9H7N1S1\OHZDE\09-Apr-2025\0\\#t hf
 aug-cc-pvdz iop(5/13=1,5/36=2,99/5=2) pseudo=read geom=check guess=(re
 ad,tcheck) scf=(maxcycle=1)\\title\\0,1\C,0,30.188,-8.361,-0.0165\H,0,
 30.7672,-7.4421,-0.0371\C,0,28.7916,-8.3424,0.0072\H,0,28.2497,-7.4004
 ,0.0125\C,0,28.111,-9.5628,0.0131\H,0,27.0259,-9.6048,0.0283\C,0,28.86
 02,-10.745,-0.0016\H,0,28.3623,-11.7128,0.0019\N,0,30.2038,-10.7827,-0
 .0078\C,0,30.8533,-9.5983,-0.0202\C,0,33.1464,-9.2543,1.0777\H,0,32.75
 52,-8.8152,1.9898\C,0,34.5179,-9.5145,0.8244\H,0,35.3249,-9.2888,1.512

 Normal termination of Gaussian 16 at Wed Apr  9 02:30:56 2025.
