 Gaussian 16, Revision C.01,

 ----------------------------------------------------------------------
 #t hf aug-cc-pvdz symm=none int=(grid=ultrafine) guess=(read,tcheck) s
 table=(opt,rrhf)
 ----------------------------------------------------------------------
 -----
 title
 -----
 Symbolic Z-matrix:
 Charge =  0 Multiplicity = 1

 SCF Done:  E(RHF) =  -796.897644539     A.U. after   15 cycles
 Normal termination of Gaussian 16 at Wed Apr  9 02:30:59 2025.
 Gaussian 16:  ES64L-G16RevC.01  3-Jul-2019

 ----------------------------------------------------------------------
 #t hf aug-cc-pvdz iop(5/13=1,5/36=2,99/5=2) pseudo=read geom=check gue
 ss=(read,tcheck) scf=(maxcycle=1)
 ----------------------------------------------------------------------
 -----
 title
 -----
 Structure from the checkpoint file:  "DCONF_52_-150_mol1.chk"
 Charge =  0 Multiplicity = 1

                         Standard orientation:
 ---------------------------------------------------------------------
 Center     Atomic      Atomic             Coordinates (Angstroms)
 Number     Number       Type             X           Y           Z
 ---------------------------------------------------------------------
      1          6           0       -1.502725    1.238145   -0.305692
      2          1           0       -1.037668    2.181028   -0.578359
      3          6           0       -2.890491    1.105212   -0.269366
      4          1           0       -3.531607    1.951345   -0.501905
      5          6           0       -3.436898   -0.144130    0.041930
      6          1           0       -4.510978   -0.300133    0.073542
      7          6           0       -2.562357   -1.202793    0.308268
      8          1           0       -2.949052   -2.192820    0.542498
      9          7           0       -1.224478   -1.087224    0.305614
     10          6           0       -0.703171    0.124214    0.010430
     11          6           0        1.537368    1.342279    0.323158
     12          1           0        1.113297    2.305131    0.589412
     13          6           0        2.925320    1.066463    0.267768
     14          1           0        3.705850    1.790789    0.473459
     15          6           0        3.180300   -0.255901   -0.055133
     16          1           0        4.142605   -0.739608   -0.166896
     17         16           0        1.738157   -1.150511   -0.289426
     18          6           0        0.757387    0.230347    0.021931
 ---------------------------------------------------------------------

 SCF Done:  E(RHF) =  -799.008755189     A.U. after    2 cycles

 The electronic state is 1-A.
 Alpha  occ. eigenvalues --  -75.71040 -15.73993 -13.18345 -13.15697 -13.03382
 Alpha  occ. eigenvalues --  -11.51372 -11.48175 -11.46571 -11.44604 -11.43701
 Alpha  occ. eigenvalues --  -11.42184 -11.41675 -11.39262 -11.37785  -8.05604
 Alpha  occ. eigenvalues --   -1.46476  -1.35466  -1.19109  -1.14191  -1.08357
 Alpha  occ. eigenvalues --   -1.03057  -0.90071  -0.89432  -0.79306  -0.77319
 Alpha  occ. eigenvalues --   -0.72404  -0.68196  -0.63455  -0.61026  -0.57055
 Alpha  occ. eigenvalues --   -0.55884  -0.54999  -0.51306  -0.49716  -0.47079
 Alpha  occ. eigenvalues --   -0.44615  -0.39520  -0.37841  -0.36355  -0.35217
 Alpha  occ. eigenvalues --   -0.28831  -0.26521
 Alpha virt. eigenvalues --    0.03027   0.04450   0.04929   0.05338   0.05853
 Alpha virt. eigenvalues --    0.06359   0.06857   0.08916   0.09193   0.09622
 Alpha virt. eigenvalues --    0.09933   0.10315   0.11981   0.12696   0.12965

 Mulliken charges:
               1
     1  C   -2.587279
     2  H    1.809095
     3  C   -0.492579
     4  H    1.526039
     5  C   -1.610559
     6  H    1.477463
     7  C   -0.841709
     8  H    1.677966
     9  N   -3.913348
    10  C    2.857646
    11  C   -3.596691
    12  H    1.615484
    13  C   -1.505892
    14  H    1.424743
    15  C   -3.879545
    16  H    1.266101
    17  S    1.325142
    18  C    3.447924
 Sum of Mulliken charges =  -0.00000

 Dipole moment (field-independent basis, Debye):
    X=             -1.3875    Y=             -0.8613    Z=             -0.6585  Tot=              1.7609

 Test job not archived.
 1\1\GINC-SE073\SP\RHF\Aug-CC-pVDZ\C9H7N1S1\OHZDE\09-Apr-2025\0\\#t hf
 aug-cc-pvdz iop(5/13=1,5/36=2,99/5=2) pseudo=read geom=check guess=(re
 ad,tcheck) scf=(maxcycle=1)\\title\\0,1\C,0,30.1857,-8.3559,-0.0186\H,
 0,30.7524,-7.4302,-0.0584\C,0,28.7914,-8.3445,0.0075\H,0,28.2476,-7.40
 36,0.0016\C,0,28.1104,-9.5662,0.0106\H,0,27.0255,-9.6094,0.0211\C,0,28
 .863,-10.7451,-0.0071\H,0,28.3695,-11.7151,-0.0175\N,0,30.2055,-10.776
 2,-0.004\C,0,30.8573,-9.5923,-0.0004\C,0,33.2129,-8.7359,0.5646\H,0,32
 .8925,-7.8289,1.0671\C,0,34.5635,-9.1363,0.4193\H,0,35.4155,-8.5729,0.

 Normal termination of Gaussian 16 at Wed Apr  9 02:31:10 2025.
