 Gaussian 16, Revision C.01,

 ----------------------------------------------------------------------
 #t hf aug-cc-pvdz symm=none int=(grid=ultrafine) guess=(read,tcheck) s
 table=(opt,rrhf)
 ----------------------------------------------------------------------
 -----
 title
 -----
 Symbolic Z-matrix:
 Charge =  0 Multiplicity = 1

 SCF Done:  E(RHF) =  -355.056436548     A.U. after   12 cycles
 Normal termination of Gaussian 16 at Wed Apr  9 02:32:28 2025.
 Gaussian 16:  ES64L-G16RevC.01  3-Jul-2019

 ----------------------------------------------------------------------
 #t hf aug-cc-pvdz iop(5/13=1,5/36=2,99/5=2) pseudo=read geom=check gue
 ss=(read,tcheck) scf=(maxcycle=1)
 ----------------------------------------------------------------------
 -----
 title
 -----
 Structure from the checkpoint file:  "DCONF_9_100_mol1.chk"
 Charge =  0 Multiplicity = 1

                         Standard orientation:
 ---------------------------------------------------------------------
 Center     Atomic      Atomic             Coordinates (Angstroms)
 Number     Number       Type             X           Y           Z
 ---------------------------------------------------------------------
      1          6           0        0.265881   -0.258622   -0.375452
      2          1           0        0.331137   -1.332986   -0.575505
      3          1           0        0.283507    0.261374   -1.338060
      4          6           0        1.445500    0.163833    0.502570
      5          1           0        1.411467   -0.401411    1.441598
      6          1           0        1.345159    1.223914    0.764541
      7          6           0        2.786429   -0.069282   -0.191728
      8          1           0        2.910382   -1.125744   -0.449568
      9          1           0        3.621677    0.223501    0.450637
     10          1           0        2.849602    0.512732   -1.116372
     11          6           0       -1.072025    0.007391    0.284159
     12          1           0       -1.025501    0.098601    1.372296
     13          9           0       -1.960509   -0.997388   -0.002876
     14          9           0       -1.626396    1.161843   -0.204554
 ---------------------------------------------------------------------

 SCF Done:  E(RHF) =  -356.530562700     A.U. after    2 cycles

 The electronic state is 1-A.
 Alpha  occ. eigenvalues --  -29.27031 -29.26902 -11.52960 -11.43025 -11.39742
 Alpha  occ. eigenvalues --  -11.36315  -1.33689  -1.17428  -0.99596  -0.86696
 Alpha  occ. eigenvalues --   -0.79276  -0.73249  -0.65080  -0.64047  -0.56589
 Alpha  occ. eigenvalues --   -0.54370  -0.49771  -0.48050  -0.47387  -0.42764
 Alpha  occ. eigenvalues --   -0.37200  -0.29778  -0.27568  -0.25357  -0.20533
 Alpha virt. eigenvalues --    0.03816   0.05187   0.05686   0.05851   0.06078
 Alpha virt. eigenvalues --    0.06359   0.07940   0.08308   0.10743   0.12445
 Alpha virt. eigenvalues --    0.13504   0.14001   0.14637   0.15927   0.16455

 Mulliken charges:
               1
     1  C   -3.442933
     2  H    1.465657
     3  H    1.293238
     4  C   -3.007310
     5  H    1.376289
     6  H    1.438251
     7  C   -3.980016
     8  H    1.247048
     9  H    1.097088
    10  H    1.284255
    11  C   -0.934018
    12  H    1.695055
    13  F    0.254457
    14  F    0.212938
 Sum of Mulliken charges =  -0.00000

 Dipole moment (field-independent basis, Debye):
    X=             -0.6026    Y=              0.1628    Z=             -0.4829  Tot=              0.7892

 Test job not archived.
 1\1\GINC-SE127\SP\RHF\Aug-CC-pVDZ\C4H8F2\OHZDE\09-Apr-2025\0\\#t hf au
 g-cc-pvdz iop(5/13=1,5/36=2,99/5=2) pseudo=read geom=check guess=(read
 ,tcheck) scf=(maxcycle=1)\\title\\0,1\C,0,-0.1298,-0.0794,-0.0832\H,0,
 -0.1981,0.3958,-1.0671\H,0,-0.2332,0.7043,0.6734\C,0,1.2182,-0.7925,0.
 0404\H,0,1.2973,-1.5455,-0.7528\H,0,1.2616,-1.3295,0.9955\C,0,2.3908,0
 .1824,-0.0548\H,0,2.3716,0.7191,-1.0085\H,0,3.3483,-0.3405,0.0211\H,0,
 2.3443,0.9231,0.7495\C,0,-1.3025,-1.0292,0.0528\H,0,-1.0589,-2.0749,-0
 .1514\F,0,-2.3148,-0.6724,-0.8012\F,0,-1.8266,-0.9658,1.3178\\Version=

 Normal termination of Gaussian 16 at Wed Apr  9 02:32:31 2025.
